
     Program PWSCF v.7.2 starts on 12Jul2023 at 14:28:10 

     This program is part of the open-source Quantum ESPRESSO suite
     for quantum simulation of materials; please cite
         "P. Giannozzi et al., J. Phys.:Condens. Matter 21 395502 (2009);
         "P. Giannozzi et al., J. Phys.:Condens. Matter 29 465901 (2017);
         "P. Giannozzi et al., J. Chem. Phys. 152 154105 (2020);
          URL http://www.quantum-espresso.org", 
     in publications or presentations arising from this work. More details at
     http://www.quantum-espresso.org/quote

     Parallel version (MPI), running on     4 processors

     MPI processes distributed on     1 nodes
     6411 MiB available memory on the printing compute node when the environment starts

     Reading input from atom-lsda.in

     Current dimensions of program PWSCF are:
     Max number of different atomic species (ntypx) = 10
     Max number of k-points (npk) =  40000
     Max angular momentum in pseudopotentials (lmaxx) =  4
     file O.pz-rrkjus.UPF: wavefunction(s)  2S renormalized

     IMPORTANT: XC functional enforced from input :
     Exchange-correlation= XC-001L-009L
                           (   1   9   0   0   0   0   0)
     Any further DFT definition will be discarded
     Please, verify this is what you really want


     gamma-point specific algorithms are used

     R & G space division:  proc/nbgrp/npool/nimage =       4
     Subspace diagonalization in iterative solution of the eigenvalue problem:
     a serial algorithm will be used


     Parallelization info
     --------------------
     sticks:   dense  smooth     PW     G-vecs:    dense   smooth      PW
     Min         398     197     47                11956     4218     524
     Max         401     200     50                11961     4224     530
     Sum        1597     793    193                47833    16879    2103

     Using Slab Decomposition



     bravais-lattice index     =            1
     lattice parameter (alat)  =      10.0000  a.u.
     unit-cell volume          =    1000.0000 (a.u.)^3
     number of atoms/cell      =            1
     number of atomic types    =            1
     number of electrons       =         6.00
     number of Kohn-Sham states=            6
     kinetic-energy cutoff     =      25.0000  Ry
     charge density cutoff     =     200.0000  Ry
     scf convergence threshold =      1.0E-06
     mixing beta               =       0.2500
     number of iterations used =            8  plain     mixing
     Exchange-correlation= XC-001L-009L
                           (   1   9   0   0   0   0   0)

     celldm(1)=  10.000000  celldm(2)=   0.000000  celldm(3)=   0.000000
     celldm(4)=   0.000000  celldm(5)=   0.000000  celldm(6)=   0.000000

     crystal axes: (cart. coord. in units of alat)
               a(1) = (   1.000000   0.000000   0.000000 )  
               a(2) = (   0.000000   1.000000   0.000000 )  
               a(3) = (   0.000000   0.000000   1.000000 )  

     reciprocal axes: (cart. coord. in units 2 pi/alat)
               b(1) = (  1.000000  0.000000  0.000000 )  
               b(2) = (  0.000000  1.000000  0.000000 )  
               b(3) = (  0.000000  0.000000  1.000000 )  


     PseudoPot. # 1 for O  read from file:
     ./../pseudo/O.pz-rrkjus.UPF
     MD5 check sum: b574877712b4ae31214c077877edcb7d
     Pseudo is Ultrasoft, Zval =  6.0
     Generated by new atomic code, or converted to UPF format
     Using radial grid of 1269 points,  4 beta functions with: 
                l(1) =   0
                l(2) =   0
                l(3) =   1
                l(4) =   1
     Q(r) pseudized with 0 coefficients 


     atomic species   valence    mass     pseudopotential
     O                 6.00    15.99994     O ( 1.00)

     Starting magnetic structure 
     atomic species   magnetization
     O               0.000

     48 Sym. Ops., with inversion, found



   Cartesian axes

     site n.     atom                  positions (alat units)
         1        O      tau(   1) = (   0.0000000   0.0000000   0.0000000  )

     number of k points=     1
                       cart. coord. in units 2pi/alat
        k(    1) = (   0.0000000   0.0000000   0.0000000), wk =   1.0000000

     Dense  grid:    23917 G-vectors     FFT dimensions: (  45,  45,  45)

     Smooth grid:     8440 G-vectors     FFT dimensions: (  32,  32,  32)

     Occupations read from input 

      Spin-up

        1.0000   1.0000   1.0000   1.0000   0.0000   0.0000

      Spin-down

        1.0000   0.3333   0.3333   0.3333   0.0000   0.0000

     Estimated max dynamical RAM per process >      11.41 MB

     Estimated total dynamical RAM >      45.64 MB

     WARNING: libxc functional with ID    9 depends
      on external parameters: check the user_guide of
      QE if you need to modify them or to check their
      default values.
     Generating pointlists ...
     new r_m :   0.4125 (alat units)  4.1250 (a.u.) for type    1

     Initial potential from superposition of free atoms

     starting charge       6.0000, renormalised to       6.0000

     negative rho (up, down):  5.210E-06 5.210E-06
     Starting wfcs are    4 randomized atomic wfcs +    2 random wfcs

     total cpu time spent up to now is        0.1 secs

     Self-consistent Calculation

     iteration #  1     ecut=    25.00 Ry     beta= 0.25
     Davidson diagonalization with overlap
     ethr =  1.00E-02,  avg # of iterations =  6.0

     negative rho (up, down):  5.106E-06 3.582E-06

     total cpu time spent up to now is        0.1 secs

     total energy              =     -31.33921848 Ry
     estimated scf accuracy    <       0.07324196 Ry

     total magnetization       =     2.00 Bohr mag/cell
     absolute magnetization    =     2.00 Bohr mag/cell

     iteration #  2     ecut=    25.00 Ry     beta= 0.25
     Davidson diagonalization with overlap
     ethr =  1.22E-03,  avg # of iterations =  1.0

     negative rho (up, down):  5.364E-03 8.197E-03

     total cpu time spent up to now is        0.2 secs

     total energy              =     -31.39997750 Ry
     estimated scf accuracy    <       0.04369059 Ry

     total magnetization       =     2.00 Bohr mag/cell
     absolute magnetization    =     2.00 Bohr mag/cell

     iteration #  3     ecut=    25.00 Ry     beta= 0.25
     Davidson diagonalization with overlap
     ethr =  7.28E-04,  avg # of iterations =  2.0

     negative rho (up, down):  4.057E-03 5.826E-03

     total cpu time spent up to now is        0.2 secs

     total energy              =     -31.40415956 Ry
     estimated scf accuracy    <       0.00031878 Ry

     total magnetization       =     2.00 Bohr mag/cell
     absolute magnetization    =     2.00 Bohr mag/cell

     iteration #  4     ecut=    25.00 Ry     beta= 0.25
     Davidson diagonalization with overlap
     ethr =  5.31E-06,  avg # of iterations = 16.0

     negative rho (up, down):  3.173E-03 3.828E-03

     total cpu time spent up to now is        0.2 secs

     total energy              =     -31.40452647 Ry
     estimated scf accuracy    <       0.00005425 Ry

     total magnetization       =     2.00 Bohr mag/cell
     absolute magnetization    =     2.00 Bohr mag/cell

     iteration #  5     ecut=    25.00 Ry     beta= 0.25
     Davidson diagonalization with overlap
     ethr =  9.04E-07,  avg # of iterations =  4.0

     negative rho (up, down):  2.260E-03 2.486E-03

     total cpu time spent up to now is        0.3 secs

     total energy              =     -31.40461240 Ry
     estimated scf accuracy    <       0.00001250 Ry

     total magnetization       =     2.00 Bohr mag/cell
     absolute magnetization    =     2.00 Bohr mag/cell

     iteration #  6     ecut=    25.00 Ry     beta= 0.25
     Davidson diagonalization with overlap
     ethr =  2.08E-07,  avg # of iterations =  2.0

     negative rho (up, down):  1.512E-03 1.691E-03

     total cpu time spent up to now is        0.3 secs

     total energy              =     -31.40464261 Ry
     estimated scf accuracy    <       0.00000294 Ry

     total magnetization       =     2.00 Bohr mag/cell
     absolute magnetization    =     2.00 Bohr mag/cell

     iteration #  7     ecut=    25.00 Ry     beta= 0.25
     Davidson diagonalization with overlap
     ethr =  4.89E-08,  avg # of iterations =  2.0

     negative rho (up, down):  1.446E-05 2.253E-07

     Magnetic moment per site  (integrated on atomic sphere of radius R)
     atom   1 (R=0.413)  charge=  5.9925  magn=  1.9992

     total cpu time spent up to now is        0.3 secs

     End of self-consistent calculation

 ------ SPIN UP ------------


          k = 0.0000 0.0000 0.0000 (  1052 PWs)   bands (ev):

   -24.3361  -9.6472  -9.6472  -9.6471  -0.5372   4.4081

 ------ SPIN DOWN ----------


          k = 0.0000 0.0000 0.0000 (  1052 PWs)   bands (ev):

   -21.1163  -6.6369  -6.6369  -6.6369  -0.3968   4.4770

     highest occupied, lowest unoccupied level (ev):    -6.6369   -0.5372

!    total energy              =     -31.40468357 Ry
     estimated scf accuracy    <       0.00000013 Ry

     The total energy is the sum of the following terms:
     one-electron contribution =     -32.01541934 Ry
     hartree contribution      =      17.23678730 Ry
     xc contribution           =      -6.41178053 Ry
     ewald contribution        =     -10.21427100 Ry

     total magnetization       =     2.00 Bohr mag/cell
     absolute magnetization    =     2.00 Bohr mag/cell

     convergence has been achieved in   7 iterations

     Writing all to output data dir ./pwscf.save/

     init_run     :      0.06s CPU      0.06s WALL (       1 calls)
     electrons    :      0.20s CPU      0.23s WALL (       1 calls)

     Called by init_run:
     wfcinit      :      0.00s CPU      0.00s WALL (       1 calls)
     potinit      :      0.01s CPU      0.01s WALL (       1 calls)
     hinit0       :      0.04s CPU      0.04s WALL (       1 calls)

     Called by electrons:
     c_bands      :      0.03s CPU      0.04s WALL (       7 calls)
     sum_band     :      0.06s CPU      0.06s WALL (       7 calls)
     v_of_rho     :      0.05s CPU      0.06s WALL (       8 calls)
     newd         :      0.05s CPU      0.05s WALL (       8 calls)
     mix_rho      :      0.01s CPU      0.01s WALL (       7 calls)

     Called by c_bands:
     init_us_2    :      0.00s CPU      0.00s WALL (      30 calls)
     init_us_2:cp :      0.00s CPU      0.00s WALL (      30 calls)
     regterg      :      0.03s CPU      0.03s WALL (      14 calls)

     Called by *egterg:
     rdiaghg      :      0.00s CPU      0.00s WALL (      80 calls)
     h_psi        :      0.02s CPU      0.03s WALL (      82 calls)
     s_psi        :      0.00s CPU      0.00s WALL (      82 calls)
     g_psi        :      0.00s CPU      0.00s WALL (      66 calls)

     Called by h_psi:
     h_psi:calbec :      0.00s CPU      0.00s WALL (      82 calls)
     vloc_psi     :      0.02s CPU      0.02s WALL (      82 calls)
     add_vuspsi   :      0.00s CPU      0.00s WALL (      82 calls)

     General routines
     calbec       :      0.00s CPU      0.00s WALL (      96 calls)
     fft          :      0.03s CPU      0.03s WALL (      61 calls)
     ffts         :      0.00s CPU      0.00s WALL (      23 calls)
     fftw         :      0.02s CPU      0.02s WALL (     346 calls)
     interpolate  :      0.01s CPU      0.01s WALL (      16 calls)

     Parallel routines

     PWSCF        :      0.31s CPU      0.34s WALL


   This run was terminated on:  14:28:10  12Jul2023            

=------------------------------------------------------------------------------=
   JOB DONE.
=------------------------------------------------------------------------------=
