
     Program PWSCF v.6.3 starts on 19Jan2019 at  9:19:40 

     This program is part of the open-source Quantum ESPRESSO suite
     for quantum simulation of materials; please cite
         "P. Giannozzi et al., J. Phys.:Condens. Matter 21 395502 (2009);
         "P. Giannozzi et al., J. Phys.:Condens. Matter 29 465901 (2017);
          URL http://www.quantum-espresso.org", 
     in publications or presentations arising from this work. More details at
     http://www.quantum-espresso.org/quote

     Parallel version (MPI), running on     4 processors

     MPI processes distributed on     1 nodes
     R & G space division:  proc/nbgrp/npool/nimage =       4
     Reading input from lattice-ibrav-5.in

     Current dimensions of program PWSCF are:
     Max number of different atomic species (ntypx) = 10
     Max number of k-points (npk) =  40000
     Max angular momentum in pseudopotentials (lmaxx) =  3
               file H.pz-vbc.UPF: wavefunction(s)  1S renormalized

     gamma-point specific algorithms are used

     Subspace diagonalization in iterative solution of the eigenvalue problem:
     a serial algorithm will be used

 
     Parallelization info
     --------------------
     sticks:   dense  smooth     PW     G-vecs:    dense   smooth      PW
     Min         170     170     39                 2983     2983     361
     Max         173     173     42                 2984     2984     368
     Sum         685     685    163                11935    11935    1459
 


     bravais-lattice index     =           -5
     lattice parameter (alat)  =      10.0000  a.u.
     unit-cell volume          =     707.1068 (a.u.)^3
     number of atoms/cell      =            2
     number of atomic types    =            1
     number of electrons       =         2.00
     number of Kohn-Sham states=            4
     kinetic-energy cutoff     =      25.0000  Ry
     charge density cutoff     =     100.0000  Ry
     convergence threshold     =      1.0E-08
     mixing beta               =       0.7000
     number of iterations used =            8  plain     mixing
     Exchange-correlation      = SLA PZ NOGX NOGC ( 1  1  0  0 0 0)

     celldm(1)=  10.000000  celldm(2)=   0.000000  celldm(3)=   0.000000
     celldm(4)=   0.500000  celldm(5)=   0.000000  celldm(6)=   0.000000

     crystal axes: (cart. coord. in units of alat)
               a(1) = (   0.000000   0.707107   0.707107 )  
               a(2) = (   0.707107   0.000000   0.707107 )  
               a(3) = (   0.707107   0.707107   0.000000 )  

     reciprocal axes: (cart. coord. in units 2 pi/alat)
               b(1) = ( -0.707107  0.707107  0.707107 )  
               b(2) = (  0.707107 -0.707107  0.707107 )  
               b(3) = (  0.707107  0.707107 -0.707107 )  


     PseudoPot. # 1 for H  read from file:
     /home/giannozz/q-e/test-suite/..//pseudo/H.pz-vbc.UPF
     MD5 check sum: b4742c37e165d3c4b97552e3cd66ffd5
     Pseudo is Norm-conserving, Zval =  1.0
     Generated by new atomic code, or converted to UPF format
     Using radial grid of  131 points,  0 beta functions with: 

     atomic species   valence    mass     pseudopotential
        H              1.00     1.00080     H ( 1.00)

     16 Sym. Ops., with inversion, found



   Cartesian axes

     site n.     atom                  positions (alat units)
         1           H   tau(   1) = (   0.0000000   0.0000000  -0.0661404  )
         2           H   tau(   2) = (   0.0000000   0.0000000   0.0661404  )

     number of k points=     1
                       cart. coord. in units 2pi/alat
        k(    1) = (   0.0000000   0.0000000   0.0000000), wk =   2.0000000

     Dense  grid:     5968 G-vectors     FFT dimensions: (  32,  32,  32)

     Estimated max dynamical RAM per process >       1.29 MB

     Estimated total dynamical RAM >       5.16 MB

     Initial potential from superposition of free atoms

     starting charge    1.99995, renormalised to    2.00000

     negative rho (up, down):  3.614E-06 0.000E+00
     Starting wfcs are    2 randomized atomic wfcs +    2 random wfcs

     total cpu time spent up to now is        0.3 secs

     Self-consistent Calculation

     iteration #  1     ecut=    25.00 Ry     beta= 0.70
     Davidson diagonalization with overlap
     ethr =  1.00E-02,  avg # of iterations =  6.0

     total cpu time spent up to now is        0.3 secs

     total energy              =      -2.22495991 Ry
     Harris-Foulkes estimate   =      -2.29188181 Ry
     estimated scf accuracy    <       0.12781529 Ry

     iteration #  2     ecut=    25.00 Ry     beta= 0.70
     Davidson diagonalization with overlap
     ethr =  6.39E-03,  avg # of iterations =  1.0

     total cpu time spent up to now is        0.3 secs

     total energy              =      -2.23690845 Ry
     Harris-Foulkes estimate   =      -2.23710394 Ry
     estimated scf accuracy    <       0.00048511 Ry

     iteration #  3     ecut=    25.00 Ry     beta= 0.70
     Davidson diagonalization with overlap
     ethr =  2.43E-05,  avg # of iterations =  3.0

     total cpu time spent up to now is        0.3 secs

     total energy              =      -2.23698668 Ry
     Harris-Foulkes estimate   =      -2.23698302 Ry
     estimated scf accuracy    <       0.00000486 Ry

     iteration #  4     ecut=    25.00 Ry     beta= 0.70
     Davidson diagonalization with overlap
     ethr =  2.43E-07,  avg # of iterations =  3.0

     total cpu time spent up to now is        0.3 secs

     End of self-consistent calculation

          k = 0.0000 0.0000 0.0000 (   730 PWs)   bands (ev):

   -10.2432  -0.3498   2.6464   4.5904

     highest occupied, lowest unoccupied level (ev):   -10.2432   -0.3498

!    total energy              =      -2.23698716 Ry
     Harris-Foulkes estimate   =      -2.23698715 Ry
     estimated scf accuracy    <          9.1E-09 Ry

     The total energy is the sum of the following terms:

     one-electron contribution =      -2.51701080 Ry
     hartree contribution      =       1.35371058 Ry
     xc contribution           =      -1.29910873 Ry
     ewald contribution        =       0.22542178 Ry

     convergence has been achieved in   4 iterations

     Writing output data file pwscf.save/
 
     init_run     :      0.12s CPU      0.24s WALL (       1 calls)
     electrons    :      0.01s CPU      0.05s WALL (       1 calls)

     Called by init_run:
     wfcinit      :      0.00s CPU      0.00s WALL (       1 calls)
     potinit      :      0.00s CPU      0.00s WALL (       1 calls)
     hinit0       :      0.00s CPU      0.00s WALL (       1 calls)

     Called by electrons:
     c_bands      :      0.00s CPU      0.02s WALL (       4 calls)
     sum_band     :      0.00s CPU      0.01s WALL (       4 calls)
     v_of_rho     :      0.00s CPU      0.01s WALL (       5 calls)
     mix_rho      :      0.00s CPU      0.01s WALL (       4 calls)

     Called by c_bands:
     regterg      :      0.00s CPU      0.02s WALL (       4 calls)

     Called by sum_band:

     Called by *egterg:
     h_psi        :      0.00s CPU      0.02s WALL (      18 calls)
     g_psi        :      0.00s CPU      0.00s WALL (      13 calls)
     rdiaghg      :      0.00s CPU      0.00s WALL (      17 calls)

     Called by h_psi:
     h_psi:pot    :      0.00s CPU      0.02s WALL (      18 calls)
     vloc_psi     :      0.00s CPU      0.02s WALL (      18 calls)

     General routines
     fft          :      0.00s CPU      0.01s WALL (      14 calls)
     ffts         :      0.00s CPU      0.00s WALL (       4 calls)
     fftw         :      0.00s CPU      0.02s WALL (      66 calls)
 
     Parallel routines
     fft_scatt_xy :      0.00s CPU      0.00s WALL (      84 calls)
     fft_scatt_yz :      0.00s CPU      0.02s WALL (      84 calls)
 
     PWSCF        :      0.14s CPU      0.35s WALL

 
   This run was terminated on:   9:19:41  19Jan2019            

=------------------------------------------------------------------------------=
   JOB DONE.
=------------------------------------------------------------------------------=
