
     Program PWSCF v.6.3 starts on 19Jan2019 at  9:20:25 

     This program is part of the open-source Quantum ESPRESSO suite
     for quantum simulation of materials; please cite
         "P. Giannozzi et al., J. Phys.:Condens. Matter 21 395502 (2009);
         "P. Giannozzi et al., J. Phys.:Condens. Matter 29 465901 (2017);
          URL http://www.quantum-espresso.org", 
     in publications or presentations arising from this work. More details at
     http://www.quantum-espresso.org/quote

     Parallel version (MPI), running on     4 processors

     MPI processes distributed on     1 nodes
     R & G space division:  proc/nbgrp/npool/nimage =       4
     Reading input from lattice-ibrav5-kauto.in

     Current dimensions of program PWSCF are:
     Max number of different atomic species (ntypx) = 10
     Max number of k-points (npk) =  40000
     Max angular momentum in pseudopotentials (lmaxx) =  3
               file H.pz-vbc.UPF: wavefunction(s)  1S renormalized

     Subspace diagonalization in iterative solution of the eigenvalue problem:
     a serial algorithm will be used

 
     Parallelization info
     --------------------
     sticks:   dense  smooth     PW     G-vecs:    dense   smooth      PW
     Min         169     169     49                 2983     2983     457
     Max         172     172     50                 2984     2984     460
     Sum         685     685    199                11935    11935    1837
 


     bravais-lattice index     =            5
     lattice parameter (alat)  =      10.0000  a.u.
     unit-cell volume          =     707.1068 (a.u.)^3
     number of atoms/cell      =            2
     number of atomic types    =            1
     number of electrons       =         2.00
     number of Kohn-Sham states=            4
     kinetic-energy cutoff     =      25.0000  Ry
     charge density cutoff     =     100.0000  Ry
     convergence threshold     =      1.0E-08
     mixing beta               =       0.7000
     number of iterations used =            8  plain     mixing
     Exchange-correlation      = SLA PZ NOGX NOGC ( 1  1  0  0 0 0)

     celldm(1)=  10.000000  celldm(2)=   0.000000  celldm(3)=   0.000000
     celldm(4)=   0.500000  celldm(5)=   0.000000  celldm(6)=   0.000000

     crystal axes: (cart. coord. in units of alat)
               a(1) = (   0.500000  -0.288675   0.816497 )  
               a(2) = (   0.000000   0.577350   0.816497 )  
               a(3) = (  -0.500000  -0.288675   0.816497 )  

     reciprocal axes: (cart. coord. in units 2 pi/alat)
               b(1) = (  1.000000 -0.577350  0.408248 )  
               b(2) = (  0.000000  1.154701  0.408248 )  
               b(3) = ( -1.000000 -0.577350  0.408248 )  


     PseudoPot. # 1 for H  read from file:
     /home/giannozz/q-e/test-suite/..//pseudo/H.pz-vbc.UPF
     MD5 check sum: b4742c37e165d3c4b97552e3cd66ffd5
     Pseudo is Norm-conserving, Zval =  1.0
     Generated by new atomic code, or converted to UPF format
     Using radial grid of  131 points,  0 beta functions with: 

     atomic species   valence    mass     pseudopotential
        H              1.00     1.00080     H ( 1.00)

     12 Sym. Ops., with inversion, found



   Cartesian axes

     site n.     atom                  positions (alat units)
         1           H   tau(   1) = (   0.0000000   0.0000000  -0.0661404  )
         2           H   tau(   2) = (   0.0000000   0.0000000   0.0661404  )

     number of k points=     2
                       cart. coord. in units 2pi/alat
        k(    1) = (   0.0000000   0.0000000   0.3061862), wk =   0.5000000
        k(    2) = (   0.5000000   0.2886751   0.1020621), wk =   1.5000000

     Dense  grid:    11935 G-vectors     FFT dimensions: (  32,  32,  32)

     Estimated max dynamical RAM per process >       2.07 MB

     Estimated total dynamical RAM >       8.26 MB

     Initial potential from superposition of free atoms

     starting charge    1.99995, renormalised to    2.00000

     negative rho (up, down):  5.556E-06 0.000E+00
     Starting wfcs are    2 randomized atomic wfcs +    2 random wfcs

     total cpu time spent up to now is        0.3 secs

     Self-consistent Calculation

     iteration #  1     ecut=    25.00 Ry     beta= 0.70
     Davidson diagonalization with overlap
     ethr =  1.00E-02,  avg # of iterations =  5.5

     negative rho (up, down):  1.412E-06 0.000E+00

     total cpu time spent up to now is        0.3 secs

     total energy              =      -2.22017785 Ry
     Harris-Foulkes estimate   =      -2.29011294 Ry
     estimated scf accuracy    <       0.13297544 Ry

     iteration #  2     ecut=    25.00 Ry     beta= 0.70
     Davidson diagonalization with overlap
     ethr =  6.65E-03,  avg # of iterations =  1.0

     total cpu time spent up to now is        0.3 secs

     total energy              =      -2.23127677 Ry
     Harris-Foulkes estimate   =      -2.23169553 Ry
     estimated scf accuracy    <       0.00092704 Ry

     iteration #  3     ecut=    25.00 Ry     beta= 0.70
     Davidson diagonalization with overlap
     ethr =  4.64E-05,  avg # of iterations =  4.5

     total cpu time spent up to now is        0.4 secs

     total energy              =      -2.23142840 Ry
     Harris-Foulkes estimate   =      -2.23142306 Ry
     estimated scf accuracy    <       0.00000782 Ry

     iteration #  4     ecut=    25.00 Ry     beta= 0.70
     Davidson diagonalization with overlap
     ethr =  3.91E-07,  avg # of iterations =  5.5

     total cpu time spent up to now is        0.4 secs

     total energy              =      -2.23142676 Ry
     Harris-Foulkes estimate   =      -2.23142888 Ry
     estimated scf accuracy    <       0.00000030 Ry

     iteration #  5     ecut=    25.00 Ry     beta= 0.70
     Davidson diagonalization with overlap
     ethr =  1.50E-08,  avg # of iterations =  1.0

     total cpu time spent up to now is        0.4 secs

     End of self-consistent calculation

          k = 0.0000 0.0000 0.3062 (  1477 PWs)   bands (ev):

   -10.0440  -0.2116   2.5032   4.2998

          k = 0.5000 0.2887 0.1021 (  1491 PWs)   bands (ev):

   -10.0237   0.6362   1.1668   3.3531

     highest occupied, lowest unoccupied level (ev):   -10.0237   -0.2116

!    total energy              =      -2.23142679 Ry
     Harris-Foulkes estimate   =      -2.23142679 Ry
     estimated scf accuracy    <          3.7E-10 Ry

     The total energy is the sum of the following terms:

     one-electron contribution =      -2.52727346 Ry
     hartree contribution      =       1.38442767 Ry
     xc contribution           =      -1.31413655 Ry
     ewald contribution        =       0.22555555 Ry

     convergence has been achieved in   5 iterations

     Writing output data file pwscf.save/
 
     init_run     :      0.11s CPU      0.23s WALL (       1 calls)
     electrons    :      0.06s CPU      0.17s WALL (       1 calls)

     Called by init_run:
     wfcinit      :      0.00s CPU      0.01s WALL (       1 calls)
     potinit      :      0.00s CPU      0.01s WALL (       1 calls)
     hinit0       :      0.00s CPU      0.01s WALL (       1 calls)

     Called by electrons:
     c_bands      :      0.03s CPU      0.11s WALL (       5 calls)
     sum_band     :      0.01s CPU      0.02s WALL (       5 calls)
     v_of_rho     :      0.01s CPU      0.02s WALL (       6 calls)
     mix_rho      :      0.00s CPU      0.01s WALL (       5 calls)

     Called by c_bands:
     cegterg      :      0.03s CPU      0.10s WALL (      10 calls)

     Called by sum_band:

     Called by *egterg:
     h_psi        :      0.02s CPU      0.08s WALL (      47 calls)
     g_psi        :      0.00s CPU      0.00s WALL (      35 calls)
     cdiaghg      :      0.00s CPU      0.01s WALL (      45 calls)

     Called by h_psi:
     h_psi:pot    :      0.02s CPU      0.08s WALL (      47 calls)
     vloc_psi     :      0.02s CPU      0.08s WALL (      47 calls)

     General routines
     fft          :      0.01s CPU      0.01s WALL (      17 calls)
     ffts         :      0.00s CPU      0.00s WALL (       5 calls)
     fftw         :      0.02s CPU      0.09s WALL (     312 calls)
 
     Parallel routines
     fft_scatt_xy :      0.01s CPU      0.01s WALL (     334 calls)
     fft_scatt_yz :      0.02s CPU      0.07s WALL (     334 calls)
 
     PWSCF        :      0.19s CPU      0.45s WALL

 
   This run was terminated on:   9:20:26  19Jan2019            

=------------------------------------------------------------------------------=
   JOB DONE.
=------------------------------------------------------------------------------=
