
     Program PWSCF v.6.1 (svn rev. 13369) starts on  2Mar2017 at 23:49: 4 

     This program is part of the open-source Quantum ESPRESSO suite
     for quantum simulation of materials; please cite
         "P. Giannozzi et al., J. Phys.:Condens. Matter 21 395502 (2009);
          URL http://www.quantum-espresso.org", 
     in publications or presentations arising from this work. More details at
     http://www.quantum-espresso.org/quote

     Serial multi-threaded version, running on    4 processor cores
     Reading input from lattice-ibrav2.in

     Current dimensions of program PWSCF are:
     Max number of different atomic species (ntypx) = 10
     Max number of k-points (npk) =  40000
     Max angular momentum in pseudopotentials (lmaxx) =  3
               file H.pz-vbc.UPF: wavefunction(s)  1S renormalized

     gamma-point specific algorithms are used

     G-vector sticks info
     --------------------
     sticks:   dense  smooth     PW     G-vecs:    dense   smooth      PW
     Sum         349     349     85                 4279     4279     531



     bravais-lattice index     =            2
     lattice parameter (alat)  =      10.0000  a.u.
     unit-cell volume          =     250.0000 (a.u.)^3
     number of atoms/cell      =            2
     number of atomic types    =            1
     number of electrons       =         2.00
     number of Kohn-Sham states=            1
     kinetic-energy cutoff     =      25.0000  Ry
     charge density cutoff     =     100.0000  Ry
     convergence threshold     =      1.0E-06
     mixing beta               =       0.7000
     number of iterations used =            8  plain     mixing
     Exchange-correlation      =  SLA  PZ   NOGX NOGC ( 1  1  0  0 0 0)

     celldm(1)=  10.000000  celldm(2)=   0.000000  celldm(3)=   0.000000
     celldm(4)=   0.000000  celldm(5)=   0.000000  celldm(6)=   0.000000

     crystal axes: (cart. coord. in units of alat)
               a(1) = (  -0.500000   0.000000   0.500000 )  
               a(2) = (   0.000000   0.500000   0.500000 )  
               a(3) = (  -0.500000   0.500000   0.000000 )  

     reciprocal axes: (cart. coord. in units 2 pi/alat)
               b(1) = ( -1.000000 -1.000000  1.000000 )  
               b(2) = (  1.000000  1.000000  1.000000 )  
               b(3) = ( -1.000000  1.000000 -1.000000 )  


     PseudoPot. # 1 for H  read from file:
     /home/fs395/scratch/QE/espresso/test-suite/..//pseudo/H.pz-vbc.UPF
     MD5 check sum: 90becb985b714f09656c73597998d266
     Pseudo is Norm-conserving, Zval =  1.0
     Generated by new atomic code, or converted to UPF format
     Using radial grid of  131 points,  0 beta functions with: 

     atomic species   valence    mass     pseudopotential
        H              1.00     1.00080     H ( 1.00)

     16 Sym. Ops., with inversion, found



   Cartesian axes

     site n.     atom                  positions (alat units)
         1           H   tau(   1) = (   0.0000000   0.0000000  -0.0661404  )
         2           H   tau(   2) = (   0.0000000   0.0000000   0.0661404  )

     number of k points=     1
                       cart. coord. in units 2pi/alat
        k(    1) = (   0.0000000   0.0000000   0.0000000), wk =   2.0000000

     Dense  grid:     2140 G-vectors     FFT dimensions: (  24,  24,  24)

     Estimated max dynamical RAM per process >       1.83MB

     Initial potential from superposition of free atoms

     starting charge    1.99995, renormalised to    2.00000
     Starting wfc are    2 randomized atomic wfcs

     total cpu time spent up to now is        0.0 secs

     per-process dynamical memory:     1.7 Mb

     Self-consistent Calculation

     iteration #  1     ecut=    25.00 Ry     beta=0.70
     Davidson diagonalization with overlap
     ethr =  1.00E-02,  avg # of iterations =  2.0

     total cpu time spent up to now is        0.0 secs

     total energy              =      -2.31891495 Ry
     Harris-Foulkes estimate   =      -2.35513160 Ry
     estimated scf accuracy    <       0.07406758 Ry

     iteration #  2     ecut=    25.00 Ry     beta=0.70
     Davidson diagonalization with overlap
     ethr =  3.70E-03,  avg # of iterations =  2.0

     total cpu time spent up to now is        0.0 secs

     total energy              =      -2.32783365 Ry
     Harris-Foulkes estimate   =      -2.32773350 Ry
     estimated scf accuracy    <       0.00022630 Ry

     iteration #  3     ecut=    25.00 Ry     beta=0.70
     Davidson diagonalization with overlap
     ethr =  1.13E-05,  avg # of iterations =  1.0

     total cpu time spent up to now is        0.0 secs

     total energy              =      -2.32784761 Ry
     Harris-Foulkes estimate   =      -2.32783697 Ry
     estimated scf accuracy    <       0.00002370 Ry

     iteration #  4     ecut=    25.00 Ry     beta=0.70
     Davidson diagonalization with overlap
     ethr =  1.19E-06,  avg # of iterations =  1.0

     total cpu time spent up to now is        0.0 secs

     End of self-consistent calculation

          k = 0.0000 0.0000 0.0000 (   266 PWs)   bands (ev):

   -11.0137

     highest occupied level (ev):   -11.0137

!    total energy              =      -2.32784807 Ry
     Harris-Foulkes estimate   =      -2.32784810 Ry
     estimated scf accuracy    <       0.00000007 Ry

     The total energy is the sum of the following terms:

     one-electron contribution =      -1.59974768 Ry
     hartree contribution      =       0.78967829 Ry
     xc contribution           =      -1.22459939 Ry
     ewald contribution        =      -0.29317930 Ry

     convergence has been achieved in   4 iterations

     Writing output data file pwscf.save

     init_run     :      0.01s CPU      0.01s WALL (       1 calls)
     electrons    :      0.04s CPU      0.03s WALL (       1 calls)

     Called by init_run:
     wfcinit      :      0.00s CPU      0.00s WALL (       1 calls)
     potinit      :      0.00s CPU      0.00s WALL (       1 calls)

     Called by electrons:
     c_bands      :      0.01s CPU      0.00s WALL (       4 calls)
     sum_band     :      0.01s CPU      0.00s WALL (       4 calls)
     v_of_rho     :      0.01s CPU      0.00s WALL (       5 calls)
     mix_rho      :      0.01s CPU      0.00s WALL (       4 calls)

     Called by c_bands:
     regterg      :      0.01s CPU      0.00s WALL (       4 calls)

     Called by sum_band:

     Called by *egterg:
     h_psi        :      0.01s CPU      0.00s WALL (      11 calls)
     g_psi        :      0.00s CPU      0.00s WALL (       6 calls)
     rdiaghg      :      0.00s CPU      0.00s WALL (      10 calls)

     Called by h_psi:
     h_psi:pot    :      0.01s CPU      0.00s WALL (      11 calls)
     vloc_psi     :      0.01s CPU      0.00s WALL (      11 calls)

     General routines
     fft          :      0.02s CPU      0.00s WALL (      19 calls)
     fftw         :      0.01s CPU      0.00s WALL (      26 calls)
     davcio       :      0.00s CPU      0.00s WALL (       1 calls)


     PWSCF        :     0.07s CPU         0.07s WALL


   This run was terminated on:  23:49: 5   2Mar2017            

=------------------------------------------------------------------------------=
   JOB DONE.
=------------------------------------------------------------------------------=
