
     Program PWSCF v.6.3rc starts on 15Jun2018 at 13:58:59 

     This program is part of the open-source Quantum ESPRESSO suite
     for quantum simulation of materials; please cite
         "P. Giannozzi et al., J. Phys.:Condens. Matter 21 395502 (2009);
         "P. Giannozzi et al., J. Phys.:Condens. Matter 29 465901 (2017);
          URL http://www.quantum-espresso.org", 
     in publications or presentations arising from this work. More details at
     http://www.quantum-espresso.org/quote

     Serial version
     Reading input from lattice-ibrav14-kauto.in

     Current dimensions of program PWSCF are:
     Max number of different atomic species (ntypx) = 10
     Max number of k-points (npk) =  40000
     Max angular momentum in pseudopotentials (lmaxx) =  3
               file H.pz-vbc.UPF: wavefunction(s)  1S renormalized

     G-vector sticks info
     --------------------
     sticks:   dense  smooth     PW     G-vecs:    dense   smooth      PW
     Sum        1135    1135    315                47345    47345    6849



     bravais-lattice index     =           14
     lattice parameter (alat)  =      10.0000  a.u.
     unit-cell volume          =    2801.4282 (a.u.)^3
     number of atoms/cell      =            2
     number of atomic types    =            1
     number of electrons       =         2.00
     number of Kohn-Sham states=            4
     kinetic-energy cutoff     =      25.0000  Ry
     charge density cutoff     =     100.0000  Ry
     convergence threshold     =      1.0E-06
     mixing beta               =       0.7000
     number of iterations used =            8  plain     mixing
     Exchange-correlation      =  SLA  PZ   NOGX NOGC ( 1  1  0  0 0 0)

     celldm(1)=  10.000000  celldm(2)=   1.500000  celldm(3)=   2.000000
     celldm(4)=   0.100000  celldm(5)=   0.200000  celldm(6)=   0.300000

     crystal axes: (cart. coord. in units of alat)
               a(1) = (   1.000000   0.000000   0.000000 )  
               a(2) = (   0.450000   1.430909   0.000000 )  
               a(3) = (   0.400000   0.083863   1.957796 )  

     reciprocal axes: (cart. coord. in units 2 pi/alat)
               b(1) = (  1.000000 -0.314485 -0.190840 )  
               b(2) = (  0.000000  0.698857 -0.029936 )  
               b(3) = (  0.000000  0.000000  0.510778 )  


     PseudoPot. # 1 for H  read from file:
     /home/giannozz/espresso/q-e/test-suite/..//pseudo/H.pz-vbc.UPF
     MD5 check sum: 90becb985b714f09656c73597998d266
     Pseudo is Norm-conserving, Zval =  1.0
     Generated by new atomic code, or converted to UPF format
     Using radial grid of  131 points,  0 beta functions with: 

     atomic species   valence    mass     pseudopotential
        H              1.00     1.00080     H ( 1.00)

      2 Sym. Ops., with inversion, found



   Cartesian axes

     site n.     atom                  positions (alat units)
         1           H   tau(   1) = (   0.0000000   0.0000000  -0.0661404  )
         2           H   tau(   2) = (   0.0000000   0.0000000   0.0661404  )

     number of k points=     4
                       cart. coord. in units 2pi/alat
        k(    1) = (   0.2500000   0.0960928   0.0725006), wk =   0.5000000
        k(    2) = (   0.2500000   0.0960928  -0.1828886), wk =   0.5000000
        k(    3) = (   0.2500000  -0.2533355   0.0874684), wk =   0.5000000
        k(    4) = (   0.2500000  -0.2533355  -0.1679207), wk =   0.5000000

     Dense  grid:    47345 G-vectors     FFT dimensions: (  32,  48,  64)

     Estimated max dynamical RAM per process >      31.14 MB

     Initial potential from superposition of free atoms
     Check: negative starting charge=   -0.003955

     starting charge    1.99995, renormalised to    2.00000

     negative rho (up, down):  3.955E-03 0.000E+00
     Starting wfcs are    2 randomized atomic wfcs +    2 random wfcs

     total cpu time spent up to now is        0.2 secs

     Self-consistent Calculation

     iteration #  1     ecut=    25.00 Ry     beta= 0.70
     Davidson diagonalization with overlap
     ethr =  1.00E-02,  avg # of iterations =  7.5

     negative rho (up, down):  1.157E-03 0.000E+00

     total cpu time spent up to now is        0.6 secs

     total energy              =      -2.22018014 Ry
     Harris-Foulkes estimate   =      -2.29039168 Ry
     estimated scf accuracy    <       0.13319550 Ry

     iteration #  2     ecut=    25.00 Ry     beta= 0.70
     Davidson diagonalization with overlap
     ethr =  6.66E-03,  avg # of iterations =  1.0

     negative rho (up, down):  2.264E-04 0.000E+00

     total cpu time spent up to now is        0.8 secs

     total energy              =      -2.23122183 Ry
     Harris-Foulkes estimate   =      -2.23166124 Ry
     estimated scf accuracy    <       0.00096060 Ry

     iteration #  3     ecut=    25.00 Ry     beta= 0.70
     Davidson diagonalization with overlap
     ethr =  4.80E-05,  avg # of iterations =  4.8

     negative rho (up, down):  1.043E-05 0.000E+00

     total cpu time spent up to now is        1.1 secs

     total energy              =      -2.23142302 Ry
     Harris-Foulkes estimate   =      -2.23142098 Ry
     estimated scf accuracy    <       0.00000889 Ry

     iteration #  4     ecut=    25.00 Ry     beta= 0.70
     Davidson diagonalization with overlap
     ethr =  4.45E-07,  avg # of iterations = 12.2

     total cpu time spent up to now is        1.5 secs

     End of self-consistent calculation

          k = 0.2500 0.0961 0.0725 (  5923 PWs)   bands (ev):

   -10.2833   0.0824   0.5182   1.4772

          k = 0.2500 0.0961-0.1829 (  5918 PWs)   bands (ev):

   -10.2828   0.1531   0.3755   1.5390

          k = 0.2500-0.2533 0.0875 (  5918 PWs)   bands (ev):

   -10.2829   0.3150   0.6238   0.8856

          k = 0.2500-0.2533-0.1679 (  5922 PWs)   bands (ev):

   -10.2831   0.3540   0.5442   0.9974

     highest occupied, lowest unoccupied level (ev):   -10.2828    0.0824

!    total energy              =      -2.23142357 Ry
     Harris-Foulkes estimate   =      -2.23142371 Ry
     estimated scf accuracy    <       0.00000042 Ry

     The total energy is the sum of the following terms:

     one-electron contribution =      -3.65354119 Ry
     hartree contribution      =       1.92973863 Ry
     xc contribution           =      -1.31449895 Ry
     ewald contribution        =       0.80687794 Ry

     convergence has been achieved in   4 iterations

     Writing output data file pwscf.save/

     init_run     :      0.22s CPU      0.23s WALL (       1 calls)
     electrons    :      1.23s CPU      1.25s WALL (       1 calls)

     Called by init_run:
     wfcinit      :      0.06s CPU      0.06s WALL (       1 calls)
     potinit      :      0.07s CPU      0.08s WALL (       1 calls)
     hinit0       :      0.07s CPU      0.07s WALL (       1 calls)

     Called by electrons:
     c_bands      :      1.00s CPU      1.01s WALL (       4 calls)
     sum_band     :      0.13s CPU      0.13s WALL (       4 calls)
     v_of_rho     :      0.08s CPU      0.08s WALL (       5 calls)
     mix_rho      :      0.02s CPU      0.03s WALL (       4 calls)

     Called by c_bands:
     cegterg      :      1.00s CPU      1.01s WALL (      16 calls)

     Called by sum_band:

     Called by *egterg:
     h_psi        :      0.90s CPU      0.92s WALL (     122 calls)
     g_psi        :      0.02s CPU      0.01s WALL (     102 calls)
     cdiaghg      :      0.02s CPU      0.01s WALL (     118 calls)

     Called by h_psi:
     h_psi:pot    :      0.89s CPU      0.91s WALL (     122 calls)
     vloc_psi     :      0.89s CPU      0.91s WALL (     122 calls)

     General routines
     fft          :      0.02s CPU      0.02s WALL (      15 calls)
     ffts         :      0.01s CPU      0.01s WALL (       4 calls)
     fftw         :      0.87s CPU      0.89s WALL (     682 calls)


     PWSCF        :     1.46s CPU         1.50s WALL


   This run was terminated on:  13:59: 1  15Jun2018            

=------------------------------------------------------------------------------=
   JOB DONE.
=------------------------------------------------------------------------------=
