
     Program PWSCF v.6.3 starts on 19Jan2019 at  9:20:41 

     This program is part of the open-source Quantum ESPRESSO suite
     for quantum simulation of materials; please cite
         "P. Giannozzi et al., J. Phys.:Condens. Matter 21 395502 (2009);
         "P. Giannozzi et al., J. Phys.:Condens. Matter 29 465901 (2017);
          URL http://www.quantum-espresso.org", 
     in publications or presentations arising from this work. More details at
     http://www.quantum-espresso.org/quote

     Parallel version (MPI), running on     4 processors

     MPI processes distributed on     1 nodes
     R & G space division:  proc/nbgrp/npool/nimage =       4
     Reading input from lattice-ibrav9-kauto.in

     Current dimensions of program PWSCF are:
     Max number of different atomic species (ntypx) = 10
     Max number of k-points (npk) =  40000
     Max angular momentum in pseudopotentials (lmaxx) =  3
               file H.pz-vbc.UPF: wavefunction(s)  1S renormalized

     Subspace diagonalization in iterative solution of the eigenvalue problem:
     a serial algorithm will be used

 
     Parallelization info
     --------------------
     sticks:   dense  smooth     PW     G-vecs:    dense   smooth      PW
     Min         149     149     43                 6335     6335     957
     Max         150     150     44                 6340     6340     958
     Sum         597     597    173                25351    25351    3829
 


     bravais-lattice index     =            9
     lattice parameter (alat)  =      10.0000  a.u.
     unit-cell volume          =    1500.0000 (a.u.)^3
     number of atoms/cell      =            2
     number of atomic types    =            1
     number of electrons       =         2.00
     number of Kohn-Sham states=            4
     kinetic-energy cutoff     =      25.0000  Ry
     charge density cutoff     =     100.0000  Ry
     convergence threshold     =      1.0E-08
     mixing beta               =       0.7000
     number of iterations used =            8  plain     mixing
     Exchange-correlation      = SLA PZ NOGX NOGC ( 1  1  0  0 0 0)

     celldm(1)=  10.000000  celldm(2)=   1.500000  celldm(3)=   2.000000
     celldm(4)=   0.000000  celldm(5)=   0.000000  celldm(6)=   0.000000

     crystal axes: (cart. coord. in units of alat)
               a(1) = (   0.500000   0.750000   0.000000 )  
               a(2) = (  -0.500000   0.750000   0.000000 )  
               a(3) = (   0.000000   0.000000   2.000000 )  

     reciprocal axes: (cart. coord. in units 2 pi/alat)
               b(1) = (  1.000000  0.666667  0.000000 )  
               b(2) = ( -1.000000  0.666667  0.000000 )  
               b(3) = (  0.000000  0.000000  0.500000 )  


     PseudoPot. # 1 for H  read from file:
     /home/giannozz/q-e/test-suite/..//pseudo/H.pz-vbc.UPF
     MD5 check sum: b4742c37e165d3c4b97552e3cd66ffd5
     Pseudo is Norm-conserving, Zval =  1.0
     Generated by new atomic code, or converted to UPF format
     Using radial grid of  131 points,  0 beta functions with: 

     atomic species   valence    mass     pseudopotential
        H              1.00     1.00080     H ( 1.00)

      8 Sym. Ops., with inversion, found



   Cartesian axes

     site n.     atom                  positions (alat units)
         1           H   tau(   1) = (   0.0000000   0.0000000  -0.0661404  )
         2           H   tau(   2) = (   0.0000000   0.0000000   0.0661404  )

     number of k points=     2
                       cart. coord. in units 2pi/alat
        k(    1) = (   0.0000000   0.3333333   0.1250000), wk =   1.0000000
        k(    2) = (   0.5000000   0.0000000   0.1250000), wk =   1.0000000

     Dense  grid:    25351 G-vectors     FFT dimensions: (  30,  30,  64)

     Estimated max dynamical RAM per process >       4.17 MB

     Estimated total dynamical RAM >      16.67 MB

     Initial potential from superposition of free atoms

     starting charge    1.99995, renormalised to    2.00000

     negative rho (up, down):  2.141E-03 0.000E+00
     Starting wfcs are    2 randomized atomic wfcs +    2 random wfcs

     total cpu time spent up to now is        0.4 secs

     Self-consistent Calculation

     iteration #  1     ecut=    25.00 Ry     beta= 0.70
     Davidson diagonalization with overlap
     ethr =  1.00E-02,  avg # of iterations =  6.5

     negative rho (up, down):  6.250E-04 0.000E+00

     total cpu time spent up to now is        0.5 secs

     total energy              =      -2.21995414 Ry
     Harris-Foulkes estimate   =      -2.28992202 Ry
     estimated scf accuracy    <       0.13296595 Ry

     iteration #  2     ecut=    25.00 Ry     beta= 0.70
     Davidson diagonalization with overlap
     ethr =  6.65E-03,  avg # of iterations =  1.0

     negative rho (up, down):  1.245E-04 0.000E+00

     total cpu time spent up to now is        0.5 secs

     total energy              =      -2.23102062 Ry
     Harris-Foulkes estimate   =      -2.23144748 Ry
     estimated scf accuracy    <       0.00093846 Ry

     iteration #  3     ecut=    25.00 Ry     beta= 0.70
     Davidson diagonalization with overlap
     ethr =  4.69E-05,  avg # of iterations =  4.5

     negative rho (up, down):  2.014E-06 0.000E+00

     total cpu time spent up to now is        0.6 secs

     total energy              =      -2.23120078 Ry
     Harris-Foulkes estimate   =      -2.23119844 Ry
     estimated scf accuracy    <       0.00000874 Ry

     iteration #  4     ecut=    25.00 Ry     beta= 0.70
     Davidson diagonalization with overlap
     c_bands:  1 eigenvalues not converged
     ethr =  4.37E-07,  avg # of iterations = 11.5

     total cpu time spent up to now is        0.7 secs

     total energy              =      -2.23120123 Ry
     Harris-Foulkes estimate   =      -2.23120140 Ry
     estimated scf accuracy    <       0.00000040 Ry

     iteration #  5     ecut=    25.00 Ry     beta= 0.70
     Davidson diagonalization with overlap
     ethr =  2.02E-08,  avg # of iterations =  1.0

     total cpu time spent up to now is        0.8 secs

     End of self-consistent calculation

          k = 0.0000 0.3333 0.1250 (  3167 PWs)   bands (ev):

   -10.1790   0.2018   0.4280   1.7303

          k = 0.5000 0.0000 0.1250 (  3162 PWs)   bands (ev):

   -10.1659   0.6293   0.9150   2.1034

     highest occupied, lowest unoccupied level (ev):   -10.1659    0.2018

!    total energy              =      -2.23120127 Ry
     Harris-Foulkes estimate   =      -2.23120127 Ry
     estimated scf accuracy    <          8.3E-10 Ry

     The total energy is the sum of the following terms:

     one-electron contribution =      -3.67589516 Ry
     hartree contribution      =       1.94813700 Ry
     xc contribution           =      -1.31405466 Ry
     ewald contribution        =       0.81061156 Ry

     convergence has been achieved in   5 iterations

     Writing output data file pwscf.save/
 
     init_run     :      0.17s CPU      0.38s WALL (       1 calls)
     electrons    :      0.18s CPU      0.35s WALL (       1 calls)

     Called by init_run:
     wfcinit      :      0.00s CPU      0.01s WALL (       1 calls)
     potinit      :      0.00s CPU      0.01s WALL (       1 calls)
     hinit0       :      0.00s CPU      0.01s WALL (       1 calls)

     Called by electrons:
     c_bands      :      0.11s CPU      0.23s WALL (       5 calls)
     sum_band     :      0.02s CPU      0.05s WALL (       5 calls)
     v_of_rho     :      0.01s CPU      0.03s WALL (       6 calls)
     mix_rho      :      0.02s CPU      0.04s WALL (       5 calls)

     Called by c_bands:
     cegterg      :      0.11s CPU      0.22s WALL (      10 calls)

     Called by sum_band:

     Called by *egterg:
     h_psi        :      0.08s CPU      0.18s WALL (      61 calls)
     g_psi        :      0.00s CPU      0.00s WALL (      49 calls)
     cdiaghg      :      0.00s CPU      0.01s WALL (      59 calls)

     Called by h_psi:
     h_psi:pot    :      0.08s CPU      0.18s WALL (      61 calls)
     vloc_psi     :      0.08s CPU      0.18s WALL (      61 calls)

     General routines
     fft          :      0.00s CPU      0.02s WALL (      17 calls)
     ffts         :      0.00s CPU      0.00s WALL (       5 calls)
     fftw         :      0.07s CPU      0.18s WALL (     352 calls)
 
     Parallel routines
     fft_scatt_xy :      0.01s CPU      0.02s WALL (     374 calls)
     fft_scatt_yz :      0.03s CPU      0.15s WALL (     374 calls)
 
     PWSCF        :      0.36s CPU      0.78s WALL

 
   This run was terminated on:   9:20:41  19Jan2019            

=------------------------------------------------------------------------------=
   JOB DONE.
=------------------------------------------------------------------------------=
