
     Program PWSCF v.6.1 (svn rev. 13369) starts on  2Mar2017 at 23:48:59 

     This program is part of the open-source Quantum ESPRESSO suite
     for quantum simulation of materials; please cite
         "P. Giannozzi et al., J. Phys.:Condens. Matter 21 395502 (2009);
          URL http://www.quantum-espresso.org", 
     in publications or presentations arising from this work. More details at
     http://www.quantum-espresso.org/quote

     Serial multi-threaded version, running on    4 processor cores
     Reading input from lattice-ibrav-5-kauto.in

     Current dimensions of program PWSCF are:
     Max number of different atomic species (ntypx) = 10
     Max number of k-points (npk) =  40000
     Max angular momentum in pseudopotentials (lmaxx) =  3
               file H.pz-vbc.UPF: wavefunction(s)  1S renormalized

     G-vector sticks info
     --------------------
     sticks:   dense  smooth     PW     G-vecs:    dense   smooth      PW
     Sum         685     685    199                11935    11935    1837



     bravais-lattice index     =           -5
     lattice parameter (alat)  =      10.0000  a.u.
     unit-cell volume          =     707.1068 (a.u.)^3
     number of atoms/cell      =            2
     number of atomic types    =            1
     number of electrons       =         2.00
     number of Kohn-Sham states=            1
     kinetic-energy cutoff     =      25.0000  Ry
     charge density cutoff     =     100.0000  Ry
     convergence threshold     =      1.0E-06
     mixing beta               =       0.7000
     number of iterations used =            8  plain     mixing
     Exchange-correlation      =  SLA  PZ   NOGX NOGC ( 1  1  0  0 0 0)

     celldm(1)=  10.000000  celldm(2)=   0.000000  celldm(3)=   0.000000
     celldm(4)=   0.500000  celldm(5)=   0.000000  celldm(6)=   0.000000

     crystal axes: (cart. coord. in units of alat)
               a(1) = (   0.000000   0.707107   0.707107 )  
               a(2) = (   0.707107   0.000000   0.707107 )  
               a(3) = (   0.707107   0.707107   0.000000 )  

     reciprocal axes: (cart. coord. in units 2 pi/alat)
               b(1) = ( -0.707107  0.707107  0.707107 )  
               b(2) = (  0.707107 -0.707107  0.707107 )  
               b(3) = (  0.707107  0.707107 -0.707107 )  


     PseudoPot. # 1 for H  read from file:
     /home/fs395/scratch/QE/espresso/test-suite/..//pseudo/H.pz-vbc.UPF
     MD5 check sum: 90becb985b714f09656c73597998d266
     Pseudo is Norm-conserving, Zval =  1.0
     Generated by new atomic code, or converted to UPF format
     Using radial grid of  131 points,  0 beta functions with: 

     atomic species   valence    mass     pseudopotential
        H              1.00     1.00080     H ( 1.00)

     16 Sym. Ops., with inversion, found



   Cartesian axes

     site n.     atom                  positions (alat units)
         1           H   tau(   1) = (   0.0000000   0.0000000  -0.0661404  )
         2           H   tau(   2) = (   0.0000000   0.0000000   0.0661404  )

     number of k points=     3
                       cart. coord. in units 2pi/alat
        k(    1) = (   0.1767767   0.1767767   0.1767767), wk =   0.5000000
        k(    2) = (  -0.1767767  -0.1767767   0.5303301), wk =   0.5000000
        k(    3) = (  -0.1767767   0.5303301  -0.1767767), wk =   1.0000000

     Dense  grid:    11935 G-vectors     FFT dimensions: (  32,  32,  32)

     Estimated max dynamical RAM per process >       7.21MB

     Initial potential from superposition of free atoms

     starting charge    1.99995, renormalised to    2.00000

     negative rho (up, down):  3.614E-06 0.000E+00
     Starting wfc are    2 randomized atomic wfcs

     total cpu time spent up to now is        0.0 secs

     per-process dynamical memory:     5.5 Mb

     Self-consistent Calculation

     iteration #  1     ecut=    25.00 Ry     beta=0.70
     Davidson diagonalization with overlap
     ethr =  1.00E-02,  avg # of iterations =  2.0

     negative rho (up, down):  4.538E-07 0.000E+00

     total cpu time spent up to now is        0.0 secs

     total energy              =      -2.21992371 Ry
     Harris-Foulkes estimate   =      -2.28985690 Ry
     estimated scf accuracy    <       0.13300077 Ry

     iteration #  2     ecut=    25.00 Ry     beta=0.70
     Davidson diagonalization with overlap
     ethr =  6.65E-03,  avg # of iterations =  1.0

     total cpu time spent up to now is        0.1 secs

     total energy              =      -2.23093310 Ry
     Harris-Foulkes estimate   =      -2.23137073 Ry
     estimated scf accuracy    <       0.00100480 Ry

     iteration #  3     ecut=    25.00 Ry     beta=0.70
     Davidson diagonalization with overlap
     ethr =  5.02E-05,  avg # of iterations =  2.0

     total cpu time spent up to now is        0.1 secs

     total energy              =      -2.23123841 Ry
     Harris-Foulkes estimate   =      -2.23124051 Ry
     estimated scf accuracy    <       0.00001252 Ry

     iteration #  4     ecut=    25.00 Ry     beta=0.70
     Davidson diagonalization with overlap
     ethr =  6.26E-07,  avg # of iterations =  1.7

     total cpu time spent up to now is        0.1 secs

     End of self-consistent calculation

          k = 0.1768 0.1768 0.1768 (  1477 PWs)   bands (ev):

   -10.0521

          k =-0.1768-0.1768 0.5303 (  1491 PWs)   bands (ev):

   -10.0232

          k =-0.1768 0.5303-0.1768 (  1491 PWs)   bands (ev):

   -10.0281

     highest occupied level (ev):   -10.0232

!    total energy              =      -2.23123967 Ry
     Harris-Foulkes estimate   =      -2.23123971 Ry
     estimated scf accuracy    <       0.00000046 Ry

     The total energy is the sum of the following terms:

     one-electron contribution =      -2.52698877 Ry
     hartree contribution      =       1.38450768 Ry
     xc contribution           =      -1.31418037 Ry
     ewald contribution        =       0.22542178 Ry

     convergence has been achieved in   4 iterations

     Writing output data file pwscf.save

     init_run     :      0.04s CPU      0.02s WALL (       1 calls)
     electrons    :      0.18s CPU      0.06s WALL (       1 calls)

     Called by init_run:
     wfcinit      :      0.02s CPU      0.01s WALL (       1 calls)
     potinit      :      0.01s CPU      0.00s WALL (       1 calls)

     Called by electrons:
     c_bands      :      0.10s CPU      0.02s WALL (       4 calls)
     sum_band     :      0.04s CPU      0.01s WALL (       4 calls)
     v_of_rho     :      0.04s CPU      0.01s WALL (       5 calls)
     mix_rho      :      0.00s CPU      0.01s WALL (       4 calls)

     Called by c_bands:
     cegterg      :      0.09s CPU      0.02s WALL (      12 calls)

     Called by sum_band:

     Called by *egterg:
     h_psi        :      0.10s CPU      0.03s WALL (      35 calls)
     g_psi        :      0.00s CPU      0.00s WALL (      20 calls)
     cdiaghg      :      0.00s CPU      0.00s WALL (      32 calls)

     Called by h_psi:
     h_psi:pot    :      0.10s CPU      0.03s WALL (      35 calls)
     vloc_psi     :      0.10s CPU      0.03s WALL (      35 calls)

     General routines
     fft          :      0.02s CPU      0.01s WALL (      19 calls)
     fftw         :      0.11s CPU      0.03s WALL (      88 calls)
     davcio       :      0.00s CPU      0.00s WALL (       3 calls)


     PWSCF        :     0.24s CPU         0.12s WALL


   This run was terminated on:  23:48:59   2Mar2017            

=------------------------------------------------------------------------------=
   JOB DONE.
=------------------------------------------------------------------------------=
