
     Program PWSCF v.6.3 starts on 19Jan2019 at  9:19:59 

     This program is part of the open-source Quantum ESPRESSO suite
     for quantum simulation of materials; please cite
         "P. Giannozzi et al., J. Phys.:Condens. Matter 21 395502 (2009);
         "P. Giannozzi et al., J. Phys.:Condens. Matter 29 465901 (2017);
          URL http://www.quantum-espresso.org", 
     in publications or presentations arising from this work. More details at
     http://www.quantum-espresso.org/quote

     Parallel version (MPI), running on     4 processors

     MPI processes distributed on     1 nodes
     R & G space division:  proc/nbgrp/npool/nimage =       4
     Reading input from lattice-ibrav11.in

     Current dimensions of program PWSCF are:
     Max number of different atomic species (ntypx) = 10
     Max number of k-points (npk) =  40000
     Max angular momentum in pseudopotentials (lmaxx) =  3
               file H.pz-vbc.UPF: wavefunction(s)  1S renormalized

     gamma-point specific algorithms are used

     Subspace diagonalization in iterative solution of the eigenvalue problem:
     a serial algorithm will be used

 
     Parallelization info
     --------------------
     sticks:   dense  smooth     PW     G-vecs:    dense   smooth      PW
     Min         247     247     60                 6328     6328     784
     Max         250     250     62                 6332     6332     790
     Sum         993     993    245                25319    25319    3151
 


     bravais-lattice index     =           11
     lattice parameter (alat)  =      10.0000  a.u.
     unit-cell volume          =    1500.0000 (a.u.)^3
     number of atoms/cell      =            2
     number of atomic types    =            1
     number of electrons       =         2.00
     number of Kohn-Sham states=            4
     kinetic-energy cutoff     =      25.0000  Ry
     charge density cutoff     =     100.0000  Ry
     convergence threshold     =      1.0E-08
     mixing beta               =       0.7000
     number of iterations used =            8  plain     mixing
     Exchange-correlation      = SLA PZ NOGX NOGC ( 1  1  0  0 0 0)

     celldm(1)=  10.000000  celldm(2)=   1.500000  celldm(3)=   2.000000
     celldm(4)=   0.000000  celldm(5)=   0.000000  celldm(6)=   0.000000

     crystal axes: (cart. coord. in units of alat)
               a(1) = (   0.500000   0.750000   1.000000 )  
               a(2) = (  -0.500000   0.750000   1.000000 )  
               a(3) = (  -0.500000  -0.750000   1.000000 )  

     reciprocal axes: (cart. coord. in units 2 pi/alat)
               b(1) = (  1.000000  0.000000  0.500000 )  
               b(2) = ( -1.000000  0.666667  0.000000 )  
               b(3) = (  0.000000 -0.666667  0.500000 )  


     PseudoPot. # 1 for H  read from file:
     /home/giannozz/q-e/test-suite/..//pseudo/H.pz-vbc.UPF
     MD5 check sum: b4742c37e165d3c4b97552e3cd66ffd5
     Pseudo is Norm-conserving, Zval =  1.0
     Generated by new atomic code, or converted to UPF format
     Using radial grid of  131 points,  0 beta functions with: 

     atomic species   valence    mass     pseudopotential
        H              1.00     1.00080     H ( 1.00)

      8 Sym. Ops., with inversion, found



   Cartesian axes

     site n.     atom                  positions (alat units)
         1           H   tau(   1) = (   0.0000000   0.0000000  -0.0661404  )
         2           H   tau(   2) = (   0.0000000   0.0000000   0.0661404  )

     number of k points=     1
                       cart. coord. in units 2pi/alat
        k(    1) = (   0.0000000   0.0000000   0.0000000), wk =   2.0000000

     Dense  grid:    12660 G-vectors     FFT dimensions: (  45,  45,  45)

     Estimated max dynamical RAM per process >       3.21 MB

     Estimated total dynamical RAM >      12.83 MB

     Initial potential from superposition of free atoms

     starting charge    1.99995, renormalised to    2.00000

     negative rho (up, down):  1.236E-03 0.000E+00
     Starting wfcs are    2 randomized atomic wfcs +    2 random wfcs

     total cpu time spent up to now is        0.3 secs

     Self-consistent Calculation

     iteration #  1     ecut=    25.00 Ry     beta= 0.70
     Davidson diagonalization with overlap
     ethr =  1.00E-02,  avg # of iterations = 10.0

     negative rho (up, down):  3.269E-04 0.000E+00

     total cpu time spent up to now is        0.4 secs

     total energy              =      -2.22046144 Ry
     Harris-Foulkes estimate   =      -2.29001230 Ry
     estimated scf accuracy    <       0.13209456 Ry

     iteration #  2     ecut=    25.00 Ry     beta= 0.70
     Davidson diagonalization with overlap
     ethr =  6.60E-03,  avg # of iterations =  1.0

     negative rho (up, down):  2.565E-05 0.000E+00

     total cpu time spent up to now is        0.4 secs

     total energy              =      -2.23175165 Ry
     Harris-Foulkes estimate   =      -2.23212608 Ry
     estimated scf accuracy    <       0.00082724 Ry

     iteration #  3     ecut=    25.00 Ry     beta= 0.70
     Davidson diagonalization with overlap
     ethr =  4.14E-05,  avg # of iterations =  3.0

     total cpu time spent up to now is        0.5 secs

     total energy              =      -2.23189282 Ry
     Harris-Foulkes estimate   =      -2.23188665 Ry
     estimated scf accuracy    <       0.00000834 Ry

     iteration #  4     ecut=    25.00 Ry     beta= 0.70
     Davidson diagonalization with overlap
     ethr =  4.17E-07,  avg # of iterations =  2.0

     total cpu time spent up to now is        0.5 secs

     total energy              =      -2.23189313 Ry
     Harris-Foulkes estimate   =      -2.23189332 Ry
     estimated scf accuracy    <       0.00000036 Ry

     iteration #  5     ecut=    25.00 Ry     beta= 0.70
     Davidson diagonalization with overlap
     ethr =  1.81E-08,  avg # of iterations =  1.0

     total cpu time spent up to now is        0.5 secs

     End of self-consistent calculation

          k = 0.0000 0.0000 0.0000 (  1576 PWs)   bands (ev):

   -10.2507  -0.3397   1.1865   1.9671

     highest occupied, lowest unoccupied level (ev):   -10.2507   -0.3397

!    total energy              =      -2.23189316 Ry
     Harris-Foulkes estimate   =      -2.23189316 Ry
     estimated scf accuracy    <          1.4E-09 Ry

     The total energy is the sum of the following terms:

     one-electron contribution =      -3.10905601 Ry
     hartree contribution      =       1.65706170 Ry
     xc contribution           =      -1.31114880 Ry
     ewald contribution        =       0.53124995 Ry

     convergence has been achieved in   5 iterations

     Writing output data file pwscf.save/
 
     init_run     :      0.14s CPU      0.31s WALL (       1 calls)
     electrons    :      0.09s CPU      0.21s WALL (       1 calls)

     Called by init_run:
     wfcinit      :      0.00s CPU      0.01s WALL (       1 calls)
     potinit      :      0.01s CPU      0.02s WALL (       1 calls)
     hinit0       :      0.00s CPU      0.01s WALL (       1 calls)

     Called by electrons:
     c_bands      :      0.04s CPU      0.09s WALL (       5 calls)
     sum_band     :      0.02s CPU      0.03s WALL (       5 calls)
     v_of_rho     :      0.03s CPU      0.04s WALL (       6 calls)
     mix_rho      :      0.01s CPU      0.03s WALL (       5 calls)

     Called by c_bands:
     regterg      :      0.04s CPU      0.09s WALL (       5 calls)

     Called by sum_band:

     Called by *egterg:
     h_psi        :      0.03s CPU      0.08s WALL (      23 calls)
     g_psi        :      0.00s CPU      0.00s WALL (      17 calls)
     rdiaghg      :      0.00s CPU      0.00s WALL (      22 calls)

     Called by h_psi:
     h_psi:pot    :      0.03s CPU      0.08s WALL (      23 calls)
     vloc_psi     :      0.03s CPU      0.08s WALL (      23 calls)

     General routines
     fft          :      0.02s CPU      0.04s WALL (      17 calls)
     ffts         :      0.00s CPU      0.01s WALL (       5 calls)
     fftw         :      0.04s CPU      0.08s WALL (      86 calls)
 
     Parallel routines
     fft_scatt_xy :      0.00s CPU      0.01s WALL (     108 calls)
     fft_scatt_yz :      0.04s CPU      0.10s WALL (     108 calls)
 
     PWSCF        :      0.25s CPU      0.57s WALL

 
   This run was terminated on:   9:20: 0  19Jan2019            

=------------------------------------------------------------------------------=
   JOB DONE.
=------------------------------------------------------------------------------=
