
     Program PWSCF v.6.3rc starts on 15Jun2018 at 13:59: 6 

     This program is part of the open-source Quantum ESPRESSO suite
     for quantum simulation of materials; please cite
         "P. Giannozzi et al., J. Phys.:Condens. Matter 21 395502 (2009);
         "P. Giannozzi et al., J. Phys.:Condens. Matter 29 465901 (2017);
          URL http://www.quantum-espresso.org", 
     in publications or presentations arising from this work. More details at
     http://www.quantum-espresso.org/quote

     Serial version
     Reading input from lattice-ibrav9.in

     Current dimensions of program PWSCF are:
     Max number of different atomic species (ntypx) = 10
     Max number of k-points (npk) =  40000
     Max angular momentum in pseudopotentials (lmaxx) =  3
               file H.pz-vbc.UPF: wavefunction(s)  1S renormalized

     gamma-point specific algorithms are used

     G-vector sticks info
     --------------------
     sticks:   dense  smooth     PW     G-vecs:    dense   smooth      PW
     Sum         597     597    149                25351    25351    3159



     bravais-lattice index     =            9
     lattice parameter (alat)  =      10.0000  a.u.
     unit-cell volume          =    1500.0000 (a.u.)^3
     number of atoms/cell      =            2
     number of atomic types    =            1
     number of electrons       =         2.00
     number of Kohn-Sham states=            4
     kinetic-energy cutoff     =      25.0000  Ry
     charge density cutoff     =     100.0000  Ry
     convergence threshold     =      1.0E-06
     mixing beta               =       0.7000
     number of iterations used =            8  plain     mixing
     Exchange-correlation      =  SLA  PZ   NOGX NOGC ( 1  1  0  0 0 0)

     celldm(1)=  10.000000  celldm(2)=   1.500000  celldm(3)=   2.000000
     celldm(4)=   0.000000  celldm(5)=   0.000000  celldm(6)=   0.000000

     crystal axes: (cart. coord. in units of alat)
               a(1) = (   0.500000   0.750000   0.000000 )  
               a(2) = (  -0.500000   0.750000   0.000000 )  
               a(3) = (   0.000000   0.000000   2.000000 )  

     reciprocal axes: (cart. coord. in units 2 pi/alat)
               b(1) = (  1.000000  0.666667 -0.000000 )  
               b(2) = ( -1.000000  0.666667  0.000000 )  
               b(3) = (  0.000000 -0.000000  0.500000 )  


     PseudoPot. # 1 for H  read from file:
     /home/giannozz/espresso/q-e/test-suite/..//pseudo/H.pz-vbc.UPF
     MD5 check sum: 90becb985b714f09656c73597998d266
     Pseudo is Norm-conserving, Zval =  1.0
     Generated by new atomic code, or converted to UPF format
     Using radial grid of  131 points,  0 beta functions with: 

     atomic species   valence    mass     pseudopotential
        H              1.00     1.00080     H ( 1.00)

      8 Sym. Ops., with inversion, found



   Cartesian axes

     site n.     atom                  positions (alat units)
         1           H   tau(   1) = (   0.0000000   0.0000000  -0.0661404  )
         2           H   tau(   2) = (   0.0000000   0.0000000   0.0661404  )

     number of k points=     1
                       cart. coord. in units 2pi/alat
        k(    1) = (   0.0000000   0.0000000   0.0000000), wk =   2.0000000

     Dense  grid:    12676 G-vectors     FFT dimensions: (  30,  30,  64)

     Estimated max dynamical RAM per process >      10.10 MB

     Initial potential from superposition of free atoms
     Check: negative starting charge=   -0.002141

     starting charge    1.99995, renormalised to    2.00000

     negative rho (up, down):  2.141E-03 0.000E+00
     Starting wfcs are    2 randomized atomic wfcs +    2 random wfcs

     total cpu time spent up to now is        0.0 secs

     Self-consistent Calculation

     iteration #  1     ecut=    25.00 Ry     beta= 0.70
     Davidson diagonalization with overlap
     ethr =  1.00E-02,  avg # of iterations =  7.0

     negative rho (up, down):  6.193E-04 0.000E+00

     total cpu time spent up to now is        0.1 secs

     total energy              =      -2.22526285 Ry
     Harris-Foulkes estimate   =      -2.29282220 Ry
     estimated scf accuracy    <       0.12878524 Ry

     iteration #  2     ecut=    25.00 Ry     beta= 0.70
     Davidson diagonalization with overlap
     ethr =  6.44E-03,  avg # of iterations =  1.0

     negative rho (up, down):  1.277E-04 0.000E+00

     total cpu time spent up to now is        0.1 secs

     total energy              =      -2.23698580 Ry
     Harris-Foulkes estimate   =      -2.23722912 Ry
     estimated scf accuracy    <       0.00059495 Ry

     iteration #  3     ecut=    25.00 Ry     beta= 0.70
     Davidson diagonalization with overlap
     ethr =  2.97E-05,  avg # of iterations =  3.0

     negative rho (up, down):  1.145E-06 0.000E+00

     total cpu time spent up to now is        0.1 secs

     total energy              =      -2.23708265 Ry
     Harris-Foulkes estimate   =      -2.23707752 Ry
     estimated scf accuracy    <       0.00000613 Ry

     iteration #  4     ecut=    25.00 Ry     beta= 0.70
     Davidson diagonalization with overlap
     ethr =  3.07E-07,  avg # of iterations =  3.0

     total cpu time spent up to now is        0.2 secs

     End of self-consistent calculation

          k = 0.0000 0.0000 0.0000 (  1580 PWs)   bands (ev):

   -10.3522  -0.2727  -0.1219   1.2384

     highest occupied, lowest unoccupied level (ev):   -10.3522   -0.2727

!    total energy              =      -2.23708327 Ry
     Harris-Foulkes estimate   =      -2.23708324 Ry
     estimated scf accuracy    <       0.00000002 Ry

     The total energy is the sum of the following terms:

     one-electron contribution =      -3.66938623 Ry
     hartree contribution      =       1.92415879 Ry
     xc contribution           =      -1.30246739 Ry
     ewald contribution        =       0.81061156 Ry

     convergence has been achieved in   4 iterations

     Writing output data file pwscf.save/

     init_run     :      0.04s CPU      0.04s WALL (       1 calls)
     electrons    :      0.11s CPU      0.11s WALL (       1 calls)

     Called by init_run:
     wfcinit      :      0.00s CPU      0.00s WALL (       1 calls)
     potinit      :      0.02s CPU      0.02s WALL (       1 calls)
     hinit0       :      0.01s CPU      0.01s WALL (       1 calls)

     Called by electrons:
     c_bands      :      0.06s CPU      0.05s WALL (       4 calls)
     sum_band     :      0.01s CPU      0.01s WALL (       4 calls)
     v_of_rho     :      0.05s CPU      0.05s WALL (       5 calls)
     mix_rho      :      0.01s CPU      0.01s WALL (       4 calls)

     Called by c_bands:
     regterg      :      0.06s CPU      0.05s WALL (       4 calls)

     Called by sum_band:

     Called by *egterg:
     h_psi        :      0.04s CPU      0.05s WALL (      19 calls)
     g_psi        :      0.00s CPU      0.00s WALL (      14 calls)
     rdiaghg      :      0.00s CPU      0.00s WALL (      18 calls)

     Called by h_psi:
     h_psi:pot    :      0.04s CPU      0.05s WALL (      19 calls)
     vloc_psi     :      0.04s CPU      0.05s WALL (      19 calls)

     General routines
     fft          :      0.01s CPU      0.01s WALL (      15 calls)
     ffts         :      0.00s CPU      0.00s WALL (       4 calls)
     fftw         :      0.04s CPU      0.05s WALL (      72 calls)


     PWSCF        :     0.16s CPU         0.16s WALL


   This run was terminated on:  13:59: 6  15Jun2018            

=------------------------------------------------------------------------------=
   JOB DONE.
=------------------------------------------------------------------------------=
