
     Program PWSCF v.6.3rc starts on 15Jun2018 at 13:59: 1 

     This program is part of the open-source Quantum ESPRESSO suite
     for quantum simulation of materials; please cite
         "P. Giannozzi et al., J. Phys.:Condens. Matter 21 395502 (2009);
         "P. Giannozzi et al., J. Phys.:Condens. Matter 29 465901 (2017);
          URL http://www.quantum-espresso.org", 
     in publications or presentations arising from this work. More details at
     http://www.quantum-espresso.org/quote

     Serial version
     Reading input from lattice-ibrav2-kauto.in

     Current dimensions of program PWSCF are:
     Max number of different atomic species (ntypx) = 10
     Max number of k-points (npk) =  40000
     Max angular momentum in pseudopotentials (lmaxx) =  3
               file H.pz-vbc.UPF: wavefunction(s)  1S renormalized

     G-vector sticks info
     --------------------
     sticks:   dense  smooth     PW     G-vecs:    dense   smooth      PW
     Sum         349     349    109                 4279     4279     725



     bravais-lattice index     =            2
     lattice parameter (alat)  =      10.0000  a.u.
     unit-cell volume          =     250.0000 (a.u.)^3
     number of atoms/cell      =            2
     number of atomic types    =            1
     number of electrons       =         2.00
     number of Kohn-Sham states=            4
     kinetic-energy cutoff     =      25.0000  Ry
     charge density cutoff     =     100.0000  Ry
     convergence threshold     =      1.0E-06
     mixing beta               =       0.7000
     number of iterations used =            8  plain     mixing
     Exchange-correlation      =  SLA  PZ   NOGX NOGC ( 1  1  0  0 0 0)

     celldm(1)=  10.000000  celldm(2)=   0.000000  celldm(3)=   0.000000
     celldm(4)=   0.000000  celldm(5)=   0.000000  celldm(6)=   0.000000

     crystal axes: (cart. coord. in units of alat)
               a(1) = (  -0.500000   0.000000   0.500000 )  
               a(2) = (   0.000000   0.500000   0.500000 )  
               a(3) = (  -0.500000   0.500000   0.000000 )  

     reciprocal axes: (cart. coord. in units 2 pi/alat)
               b(1) = ( -1.000000 -1.000000  1.000000 )  
               b(2) = (  1.000000  1.000000  1.000000 )  
               b(3) = ( -1.000000  1.000000 -1.000000 )  


     PseudoPot. # 1 for H  read from file:
     /home/giannozz/espresso/q-e/test-suite/..//pseudo/H.pz-vbc.UPF
     MD5 check sum: 90becb985b714f09656c73597998d266
     Pseudo is Norm-conserving, Zval =  1.0
     Generated by new atomic code, or converted to UPF format
     Using radial grid of  131 points,  0 beta functions with: 

     atomic species   valence    mass     pseudopotential
        H              1.00     1.00080     H ( 1.00)

     16 Sym. Ops., with inversion, found



   Cartesian axes

     site n.     atom                  positions (alat units)
         1           H   tau(   1) = (   0.0000000   0.0000000  -0.0661404  )
         2           H   tau(   2) = (   0.0000000   0.0000000   0.0661404  )

     number of k points=     3
                       cart. coord. in units 2pi/alat
        k(    1) = (  -0.2500000   0.2500000   0.2500000), wk =   0.5000000
        k(    2) = (   0.2500000  -0.2500000   0.7500000), wk =   0.5000000
        k(    3) = (  -0.2500000   0.7500000   0.2500000), wk =   1.0000000

     Dense  grid:     4279 G-vectors     FFT dimensions: (  24,  24,  24)

     Estimated max dynamical RAM per process >       3.13 MB

     Initial potential from superposition of free atoms

     starting charge    1.99995, renormalised to    2.00000
     Starting wfcs are    2 randomized atomic wfcs +    2 random wfcs

     total cpu time spent up to now is        0.0 secs

     Self-consistent Calculation

     iteration #  1     ecut=    25.00 Ry     beta= 0.70
     Davidson diagonalization with overlap
     ethr =  1.00E-02,  avg # of iterations =  5.0

     total cpu time spent up to now is        0.1 secs

     total energy              =      -2.22345186 Ry
     Harris-Foulkes estimate   =      -2.28856899 Ry
     estimated scf accuracy    <       0.12787430 Ry

     iteration #  2     ecut=    25.00 Ry     beta= 0.70
     Davidson diagonalization with overlap
     ethr =  6.39E-03,  avg # of iterations =  1.0

     total cpu time spent up to now is        0.1 secs

     total energy              =      -2.23388723 Ry
     Harris-Foulkes estimate   =      -2.23427460 Ry
     estimated scf accuracy    <       0.00089955 Ry

     iteration #  3     ecut=    25.00 Ry     beta= 0.70
     Davidson diagonalization with overlap
     ethr =  4.50E-05,  avg # of iterations =  4.3

     total cpu time spent up to now is        0.1 secs

     total energy              =      -2.23402629 Ry
     Harris-Foulkes estimate   =      -2.23402343 Ry
     estimated scf accuracy    <       0.00000689 Ry

     iteration #  4     ecut=    25.00 Ry     beta= 0.70
     Davidson diagonalization with overlap
     ethr =  3.45E-07,  avg # of iterations =  1.7

     total cpu time spent up to now is        0.1 secs

     End of self-consistent calculation

          k =-0.2500 0.2500 0.2500 (   531 PWs)   bands (ev):

    -9.7894   1.2243   6.2147   7.8349

          k = 0.2500-0.2500 0.7500 (   529 PWs)   bands (ev):

    -9.3032   0.6840   3.8796   7.0958

          k =-0.2500 0.7500 0.2500 (   529 PWs)   bands (ev):

    -9.3350   1.2573   3.6198   6.2329

     highest occupied, lowest unoccupied level (ev):    -9.3032    0.6840

!    total energy              =      -2.23402661 Ry
     Harris-Foulkes estimate   =      -2.23402674 Ry
     estimated scf accuracy    <       0.00000023 Ry

     The total energy is the sum of the following terms:

     one-electron contribution =      -1.58227280 Ry
     hartree contribution      =       0.95537381 Ry
     xc contribution           =      -1.31394832 Ry
     ewald contribution        =      -0.29317930 Ry

     convergence has been achieved in   4 iterations

     Writing output data file pwscf.save/

     init_run     :      0.02s CPU      0.02s WALL (       1 calls)
     electrons    :      0.07s CPU      0.08s WALL (       1 calls)

     Called by init_run:
     wfcinit      :      0.01s CPU      0.01s WALL (       1 calls)
     potinit      :      0.00s CPU      0.00s WALL (       1 calls)
     hinit0       :      0.00s CPU      0.00s WALL (       1 calls)

     Called by electrons:
     c_bands      :      0.04s CPU      0.06s WALL (       4 calls)
     sum_band     :      0.02s CPU      0.01s WALL (       4 calls)
     v_of_rho     :      0.01s CPU      0.01s WALL (       5 calls)
     mix_rho      :      0.00s CPU      0.00s WALL (       4 calls)

     Called by c_bands:
     cegterg      :      0.04s CPU      0.06s WALL (      12 calls)

     Called by sum_band:

     Called by *egterg:
     h_psi        :      0.04s CPU      0.05s WALL (      51 calls)
     g_psi        :      0.00s CPU      0.00s WALL (      36 calls)
     cdiaghg      :      0.00s CPU      0.00s WALL (      48 calls)

     Called by h_psi:
     h_psi:pot    :      0.04s CPU      0.05s WALL (      51 calls)
     vloc_psi     :      0.04s CPU      0.05s WALL (      51 calls)

     General routines
     fft          :      0.01s CPU      0.00s WALL (      15 calls)
     ffts         :      0.00s CPU      0.00s WALL (       4 calls)
     fftw         :      0.04s CPU      0.05s WALL (     360 calls)


     PWSCF        :     0.10s CPU         0.11s WALL


   This run was terminated on:  13:59: 1  15Jun2018            

=------------------------------------------------------------------------------=
   JOB DONE.
=------------------------------------------------------------------------------=
