
     Program PWSCF v.6.3 starts on 19Jan2019 at  9:19:34 

     This program is part of the open-source Quantum ESPRESSO suite
     for quantum simulation of materials; please cite
         "P. Giannozzi et al., J. Phys.:Condens. Matter 21 395502 (2009);
         "P. Giannozzi et al., J. Phys.:Condens. Matter 29 465901 (2017);
          URL http://www.quantum-espresso.org", 
     in publications or presentations arising from this work. More details at
     http://www.quantum-espresso.org/quote

     Parallel version (MPI), running on     4 processors

     MPI processes distributed on     1 nodes
     R & G space division:  proc/nbgrp/npool/nimage =       4
     Reading input from lattice-ibrav-12.in

     Current dimensions of program PWSCF are:
     Max number of different atomic species (ntypx) = 10
     Max number of k-points (npk) =  40000
     Max angular momentum in pseudopotentials (lmaxx) =  3
               file H.pz-vbc.UPF: wavefunction(s)  1S renormalized

     gamma-point specific algorithms are used

     Subspace diagonalization in iterative solution of the eigenvalue problem:
     a serial algorithm will be used

 
     Parallelization info
     --------------------
     sticks:   dense  smooth     PW     G-vecs:    dense   smooth      PW
     Min         295     295     72                12590    12590    1564
     Max         298     298     74                12602    12602    1575
     Sum        1185    1185    293                50377    50377    6275
 


     bravais-lattice index     =          -12
     lattice parameter (alat)  =      10.0000  a.u.
     unit-cell volume          =    2984.9623 (a.u.)^3
     number of atoms/cell      =            2
     number of atomic types    =            1
     number of electrons       =         2.00
     number of Kohn-Sham states=            4
     kinetic-energy cutoff     =      25.0000  Ry
     charge density cutoff     =     100.0000  Ry
     convergence threshold     =      1.0E-08
     mixing beta               =       0.7000
     number of iterations used =            8  plain     mixing
     Exchange-correlation      = SLA PZ NOGX NOGC ( 1  1  0  0 0 0)

     celldm(1)=  10.000000  celldm(2)=   1.500000  celldm(3)=   2.000000
     celldm(4)=   0.000000  celldm(5)=   0.100000  celldm(6)=   0.000000

     crystal axes: (cart. coord. in units of alat)
               a(1) = (   1.000000   0.000000   0.000000 )  
               a(2) = (   0.000000   1.500000   0.000000 )  
               a(3) = (   0.200000   0.000000   1.989975 )  

     reciprocal axes: (cart. coord. in units 2 pi/alat)
               b(1) = (  1.000000  0.000000 -0.100504 )  
               b(2) = (  0.000000  0.666667  0.000000 )  
               b(3) = (  0.000000  0.000000  0.502519 )  


     PseudoPot. # 1 for H  read from file:
     /home/giannozz/q-e/test-suite/..//pseudo/H.pz-vbc.UPF
     MD5 check sum: b4742c37e165d3c4b97552e3cd66ffd5
     Pseudo is Norm-conserving, Zval =  1.0
     Generated by new atomic code, or converted to UPF format
     Using radial grid of  131 points,  0 beta functions with: 

     atomic species   valence    mass     pseudopotential
        H              1.00     1.00080     H ( 1.00)

      4 Sym. Ops., with inversion, found



   Cartesian axes

     site n.     atom                  positions (alat units)
         1           H   tau(   1) = (   0.0000000   0.0000000  -0.0661404  )
         2           H   tau(   2) = (   0.0000000   0.0000000   0.0661404  )

     number of k points=     1
                       cart. coord. in units 2pi/alat
        k(    1) = (   0.0000000   0.0000000   0.0000000), wk =   2.0000000

     Dense  grid:    25189 G-vectors     FFT dimensions: (  32,  48,  64)

     Estimated max dynamical RAM per process >       4.74 MB

     Estimated total dynamical RAM >      18.98 MB

     Initial potential from superposition of free atoms

     starting charge    1.99995, renormalised to    2.00000

     negative rho (up, down):  4.315E-03 0.000E+00
     Starting wfcs are    2 randomized atomic wfcs +    2 random wfcs

     total cpu time spent up to now is        0.3 secs

     Self-consistent Calculation

     iteration #  1     ecut=    25.00 Ry     beta= 0.70
     Davidson diagonalization with overlap
     ethr =  1.00E-02,  avg # of iterations =  8.0

     negative rho (up, down):  1.261E-03 0.000E+00

     total cpu time spent up to now is        0.4 secs

     total energy              =      -2.22050188 Ry
     Harris-Foulkes estimate   =      -2.29017680 Ry
     estimated scf accuracy    <       0.13229051 Ry

     iteration #  2     ecut=    25.00 Ry     beta= 0.70
     Davidson diagonalization with overlap
     ethr =  6.61E-03,  avg # of iterations =  1.0

     negative rho (up, down):  2.382E-04 0.000E+00

     total cpu time spent up to now is        0.4 secs

     total energy              =      -2.23168353 Ry
     Harris-Foulkes estimate   =      -2.23207976 Ry
     estimated scf accuracy    <       0.00087804 Ry

     iteration #  3     ecut=    25.00 Ry     beta= 0.70
     Davidson diagonalization with overlap
     ethr =  4.39E-05,  avg # of iterations =  8.0

     negative rho (up, down):  2.130E-05 0.000E+00

     total cpu time spent up to now is        0.5 secs

     total energy              =      -2.23186289 Ry
     Harris-Foulkes estimate   =      -2.23186042 Ry
     estimated scf accuracy    <       0.00000907 Ry

     iteration #  4     ecut=    25.00 Ry     beta= 0.70
     Davidson diagonalization with overlap
     ethr =  4.54E-07,  avg # of iterations = 17.0

     total cpu time spent up to now is        0.6 secs

     total energy              =      -2.23186355 Ry
     Harris-Foulkes estimate   =      -2.23186350 Ry
     estimated scf accuracy    <       0.00000032 Ry

     iteration #  5     ecut=    25.00 Ry     beta= 0.70
     Davidson diagonalization with overlap
     ethr =  1.59E-08,  avg # of iterations =  1.0

     total cpu time spent up to now is        0.6 secs

     End of self-consistent calculation

          k = 0.0000 0.0000 0.0000 (  3138 PWs)   bands (ev):

   -10.3164  -0.2262   0.2555   1.2023

     highest occupied, lowest unoccupied level (ev):   -10.3164   -0.2262

!    total energy              =      -2.23186357 Ry
     Harris-Foulkes estimate   =      -2.23186357 Ry
     estimated scf accuracy    <          4.7E-09 Ry

     The total energy is the sum of the following terms:

     one-electron contribution =      -3.69156936 Ry
     hartree contribution      =       1.94398448 Ry
     xc contribution           =      -1.31186522 Ry
     ewald contribution        =       0.82758653 Ry

     convergence has been achieved in   5 iterations

     Writing output data file pwscf.save/
 
     init_run     :      0.13s CPU      0.29s WALL (       1 calls)
     electrons    :      0.15s CPU      0.33s WALL (       1 calls)

     Called by init_run:
     wfcinit      :      0.00s CPU      0.01s WALL (       1 calls)
     potinit      :      0.02s CPU      0.03s WALL (       1 calls)
     hinit0       :      0.00s CPU      0.01s WALL (       1 calls)

     Called by electrons:
     c_bands      :      0.09s CPU      0.17s WALL (       5 calls)
     sum_band     :      0.02s CPU      0.04s WALL (       5 calls)
     v_of_rho     :      0.02s CPU      0.05s WALL (       6 calls)
     mix_rho      :      0.02s CPU      0.05s WALL (       5 calls)

     Called by c_bands:
     regterg      :      0.08s CPU      0.17s WALL (       5 calls)

     Called by sum_band:

     Called by *egterg:
     h_psi        :      0.07s CPU      0.14s WALL (      41 calls)
     g_psi        :      0.00s CPU      0.00s WALL (      35 calls)
     rdiaghg      :      0.01s CPU      0.01s WALL (      40 calls)

     Called by h_psi:
     h_psi:pot    :      0.06s CPU      0.13s WALL (      41 calls)
     vloc_psi     :      0.06s CPU      0.13s WALL (      41 calls)

     General routines
     fft          :      0.01s CPU      0.05s WALL (      17 calls)
     ffts         :      0.00s CPU      0.01s WALL (       5 calls)
     fftw         :      0.04s CPU      0.13s WALL (     128 calls)
 
     Parallel routines
     fft_scatt_xy :      0.02s CPU      0.01s WALL (     150 calls)
     fft_scatt_yz :      0.02s CPU      0.15s WALL (     150 calls)
 
     PWSCF        :      0.29s CPU      0.66s WALL

 
   This run was terminated on:   9:19:34  19Jan2019            

=------------------------------------------------------------------------------=
   JOB DONE.
=------------------------------------------------------------------------------=
