                                                                                      
                                       ``:oss/                                        
                           `.+s+.     .+ys--yh+     `./ss+.                           
                          -sh//yy+`   +yy   +yy    -+h+-oyy                           
                          -yh- .oyy/.-sh.   .syo-.:sy-  /yh                           
                 `.-.`    `yh+   -oyyyo.     `/syys:    oys      `.`                  
               `/+ssys+-` `sh+      `                   oys`   .:osyo`                
               -yh- ./syyooyo`                          .sys+/oyo--yh/                
               `yy+    .-:-.                             `-/+/:`  -sh-                
                /yh.                                              oys                 
          ``..---hho---------`   .---------..`      `.-----.`    -hd+---.             
       `./osmNMMMMMMMMMMMMMMMs. +NNMMMMMMMMNNmh+.   yNMMMMMNm-  oNMMMMMNmo++:`        
       +sy--/sdMMMhyyyyyyyNMMh- .oyNMMmyyyyyhNMMm+` -yMMMdyyo:` .oyyNMMNhs+syy`       
       -yy/   /MMM+.`-+/``mMMy-   `mMMh:`````.dMMN:` `MMMy-`-dhhy```mMMy:``+hs        
        -yy+` /MMMo:-mMM+`-oo/.    mMMh:     `dMMN/`  dMMm:`dMMMMy..MMMo-.+yo`        
         .sys`/MMMMNNMMMs-         mMMmyooooymMMNo:   oMMM/sMMMMMM++MMN//oh:          
          `sh+/MMMhyyMMMs- `-`     mMMMMMMMMMNmy+-`   -MMMhMMMsmMMmdMMd/yy+           
    `-/+++oyy-/MMM+.`/hh/.`mNm:`   mMMd+/////:-.`      NMMMMMd/:NMMMMMy:/yyo/:.`      
   +os+//:-..-oMMMo:--:::-/MMMo. .-mMMd+---`           hMMMMN+. oMMMMMo. `-+osyso:`   
   syo     `mNMMMMMNNNNNNNNMMMo.oNNMMMMMNNNN:`         +MMMMs:`  dMMMN/`     ``:syo   
   /yh`     :syyyyyyyyyyyyyyyy+.`+syyyyyyyyo:`         .oyys:`   .oyys:`        +yh   
   -yh-        ````````````````    `````````              ``        ``          oys   
   -+h/------------------------::::::::://////++++++++++++++++++++++///////::::/yd:   
   shdddddddddddddddddddddddddddddhhhhhhhhyyyyyssssssssssssssssyyyyyyyhhhhhhhddddh`   
                                                                                      
  S. Ponce, E. R. Margine, C. Verdi, and F. Giustino,                                 
                                                Comput. Phys. Commun. 209, 116 (2016) 
                                                                                      

     Program EPW v.5.5 starts on 19Nov2022 at 13:35:28 

     This program is part of the open-source Quantum ESPRESSO suite
     for quantum simulation of materials; please cite
         "P. Giannozzi et al., J. Phys.:Condens. Matter 21 395502 (2009);
         "P. Giannozzi et al., J. Phys.:Condens. Matter 29 465901 (2017);
         "P. Giannozzi et al., J. Chem. Phys. 152 154105 (2020);
          URL http://www.quantum-espresso.org", 
     in publications or presentations arising from this work. More details at
     http://www.quantum-espresso.org/quote

     Parallel version (MPI), running on     1 processors

     MPI processes distributed on     1 nodes
     51941 MiB available memory on the printing compute node when the environment starts

     Reading input from epw1.in

     Reading supplied temperature list.

     Reading xml data from directory:

     ./sic.save/
     file C.UPF: wavefunction(s)  3d renormalized

     IMPORTANT: XC functional enforced from input :
     Exchange-correlation= PZ
                           (   1   1   0   0   0   0   0)
     Any further DFT definition will be discarded
     Please, verify this is what you really want


     G-vector sticks info
     --------------------
     sticks:   dense  smooth     PW     G-vecs:    dense   smooth      PW
     Sum         559     559    187                 8801     8801    1591

     Using Slab Decomposition

     Reading collected, re-writing distributed wavefunctions

Possibly too few bands at point    1   0.00000   0.00000   0.00000

Possibly too few bands at point    2  -0.33333   0.33333  -0.33333

Possibly too few bands at point    3  -0.66667   0.66667  -0.66667

Possibly too few bands at point    4   0.33333   0.33333   0.33333

Possibly too few bands at point    5   0.00000   0.66667   0.00000

Possibly too few bands at point    6  -0.33333   1.00000  -0.33333

Possibly too few bands at point    7   0.66667   0.66667   0.66667

Possibly too few bands at point    8   0.33333   1.00000   0.33333

Possibly too few bands at point    9   0.00000   1.33333   0.00000

Possibly too few bands at point   10  -0.33333  -0.33333   0.33333

Possibly too few bands at point   11  -0.66667   0.00000   0.00000

Possibly too few bands at point   12  -1.00000   0.33333  -0.33333

Possibly too few bands at point   13   0.00000   0.00000   0.66667

Possibly too few bands at point   14  -0.33333   0.33333   0.33333

Possibly too few bands at point   15  -0.66667   0.66667  -0.00000

Possibly too few bands at point   16   0.33333   0.33333   1.00000

Possibly too few bands at point   17   0.00000   0.66667   0.66667

Possibly too few bands at point   18  -0.33333   1.00000   0.33333

Possibly too few bands at point   19  -0.66667  -0.66667   0.66667

Possibly too few bands at point   20  -1.00000  -0.33333   0.33333

Possibly too few bands at point   21  -1.33333   0.00000   0.00000

Possibly too few bands at point   22  -0.33333  -0.33333   1.00000

Possibly too few bands at point   23  -0.66667  -0.00000   0.66667

Possibly too few bands at point   24  -1.00000   0.33333   0.33333

Possibly too few bands at point   25   0.00000   0.00000   1.33333

Possibly too few bands at point   26  -0.33333   0.33333   1.00000

Possibly too few bands at point   27  -0.66667   0.66667   0.66667

     --                                                                         

     bravais-lattice index     =            2
     lattice parameter (a_0)   =       8.2370  a.u.
     unit-cell volume          =     139.7163 (a.u.)^3
     number of atoms/cell      =            2
     number of atomic types    =            2
     kinetic-energy cut-off    =      60.0000  Ry
     charge density cut-off    =     240.0000  Ry
     Exchange-correlation= PZ
                           (   1   1   0   0   0   0   0)


     celldm(1)=    8.23700  celldm(2)=    0.00000  celldm(3)=    0.00000
     celldm(4)=    0.00000  celldm(5)=    0.00000  celldm(6)=    0.00000

     crystal axes: (cart. coord. in units of a_0)
               a(1) = ( -0.5000  0.0000  0.5000 )  
               a(2) = (  0.0000  0.5000  0.5000 )  
               a(3) = ( -0.5000  0.5000  0.0000 )  

     reciprocal axes: (cart. coord. in units 2 pi/a_0)
               b(1) = ( -1.0000 -1.0000  1.0000 )  
               b(2) = (  1.0000  1.0000  1.0000 )  
               b(3) = ( -1.0000  1.0000 -1.0000 )  


     Atoms inside the unit cell: 

   Cartesian axes

     site n.  atom      mass           positions (a_0 units)
        1        Si  28.0855   tau( 1) = (    0.00000    0.00000    0.00000  )
        2        C   12.0108   tau( 2) = (    0.25000    0.25000    0.25000  )

     25 Sym.Ops. (with q -> -q+G )


     G cutoff =  412.4674  (   8801 G-vectors)     FFT grid: ( 30, 30, 30)
     number of k points=   27  gaussian broad. (Ry)=  0.0200     ngauss =   1
                       cart. coord. in units 2pi/a_0
        k(    1) = (   0.0000000   0.0000000   0.0000000), wk =   0.0740741
        k(    2) = (  -0.3333333   0.3333333  -0.3333333), wk =   0.0740741
        k(    3) = (  -0.6666667   0.6666667  -0.6666667), wk =   0.0740741
        k(    4) = (   0.3333333   0.3333333   0.3333333), wk =   0.0740741
        k(    5) = (   0.0000000   0.6666667   0.0000000), wk =   0.0740741
        k(    6) = (  -0.3333333   1.0000000  -0.3333333), wk =   0.0740741
        k(    7) = (   0.6666667   0.6666667   0.6666667), wk =   0.0740741
        k(    8) = (   0.3333333   1.0000000   0.3333333), wk =   0.0740741
        k(    9) = (   0.0000000   1.3333333   0.0000000), wk =   0.0740741
        k(   10) = (  -0.3333333  -0.3333333   0.3333333), wk =   0.0740741
        k(   11) = (  -0.6666667   0.0000000   0.0000000), wk =   0.0740741
        k(   12) = (  -1.0000000   0.3333333  -0.3333333), wk =   0.0740741
        k(   13) = (   0.0000000   0.0000000   0.6666667), wk =   0.0740741
        k(   14) = (  -0.3333333   0.3333333   0.3333333), wk =   0.0740741
        k(   15) = (  -0.6666667   0.6666667  -0.0000000), wk =   0.0740741
        k(   16) = (   0.3333333   0.3333333   1.0000000), wk =   0.0740741
        k(   17) = (   0.0000000   0.6666667   0.6666667), wk =   0.0740741
        k(   18) = (  -0.3333333   1.0000000   0.3333333), wk =   0.0740741
        k(   19) = (  -0.6666667  -0.6666667   0.6666667), wk =   0.0740741
        k(   20) = (  -1.0000000  -0.3333333   0.3333333), wk =   0.0740741
        k(   21) = (  -1.3333333   0.0000000   0.0000000), wk =   0.0740741
        k(   22) = (  -0.3333333  -0.3333333   1.0000000), wk =   0.0740741
        k(   23) = (  -0.6666667  -0.0000000   0.6666667), wk =   0.0740741
        k(   24) = (  -1.0000000   0.3333333   0.3333333), wk =   0.0740741
        k(   25) = (   0.0000000   0.0000000   1.3333333), wk =   0.0740741
        k(   26) = (  -0.3333333   0.3333333   1.0000000), wk =   0.0740741
        k(   27) = (  -0.6666667   0.6666667   0.6666667), wk =   0.0740741

     PseudoPot. # 1 for Si read from file:
     ../../pseudo/Si.pz-vbc.UPF
     MD5 check sum: 9f25e6ff280f3123e9b3a84715b2e9c9
     Pseudo is Norm-conserving, Zval =  4.0
     Generated by new atomic code, or converted to UPF format
     Using radial grid of  431 points,  2 beta functions with: 
                l(1) =   0
                l(2) =   1

     PseudoPot. # 2 for C  read from file:
     ../../pseudo/C.UPF
     MD5 check sum: 4781e8ce5ee01a432381f51d0ea25c53
     Pseudo is Norm-conserving, Zval =  4.0
     Generated by new atomic code, or converted to UPF format
     Using radial grid of  461 points,  2 beta functions with: 
                l(1) =   0
                l(2) =   1
     EPW          :      0.06s CPU      0.07s WALL

     EPW          :      0.11s CPU      0.12s WALL

     -------------------------------------------------------------------
     Wannierization on  3 x  3 x  3 electronic grid
     -------------------------------------------------------------------

     Spin CASE ( default = unpolarized )

     Initializing Wannier90


     Initial Wannier projections

     (   0.00000   0.00000   0.00000) :  l =  -3 mr =   1
     (   0.00000   0.00000   0.00000) :  l =  -3 mr =   2
     (   0.00000   0.00000   0.00000) :  l =  -3 mr =   3
     (   0.00000   0.00000   0.00000) :  l =  -3 mr =   4

      - Number of bands is (  4)
      - Number of total bands is (  4)
      - Number of excluded bands is (  0)
      - Number of wannier functions is (  4)
      - All guiding functions are given 

  Reading data about k-point neighbours 

      - All neighbours are found 

     AMN
      k points =    27 in    1 pools
            1 of   27 on ionode
            2 of   27 on ionode
            3 of   27 on ionode
            4 of   27 on ionode
            5 of   27 on ionode
            6 of   27 on ionode
            7 of   27 on ionode
            8 of   27 on ionode
            9 of   27 on ionode
           10 of   27 on ionode
           11 of   27 on ionode
           12 of   27 on ionode
           13 of   27 on ionode
           14 of   27 on ionode
           15 of   27 on ionode
           16 of   27 on ionode
           17 of   27 on ionode
           18 of   27 on ionode
           19 of   27 on ionode
           20 of   27 on ionode
           21 of   27 on ionode
           22 of   27 on ionode
           23 of   27 on ionode
           24 of   27 on ionode
           25 of   27 on ionode
           26 of   27 on ionode
           27 of   27 on ionode

     AMN calculated

     MMN
      k points =    27 in    1 pools
            1 of   27 on ionode
            2 of   27 on ionode
            3 of   27 on ionode
            4 of   27 on ionode
            5 of   27 on ionode
            6 of   27 on ionode
            7 of   27 on ionode
            8 of   27 on ionode
            9 of   27 on ionode
           10 of   27 on ionode
           11 of   27 on ionode
           12 of   27 on ionode
           13 of   27 on ionode
           14 of   27 on ionode
           15 of   27 on ionode
           16 of   27 on ionode
           17 of   27 on ionode
           18 of   27 on ionode
           19 of   27 on ionode
           20 of   27 on ionode
           21 of   27 on ionode
           22 of   27 on ionode
           23 of   27 on ionode
           24 of   27 on ionode
           25 of   27 on ionode
           26 of   27 on ionode
           27 of   27 on ionode
     MMN calculated

     Running Wannier90

     Wannier Function centers (cartesian, alat) and spreads (ang):

     (   0.16147   0.16147   0.16147) :   0.87894
     (   0.16147  -0.16147  -0.16147) :   0.87894
     (  -0.16147   0.16147  -0.16147) :   0.87894
     (  -0.16147  -0.16147   0.16147) :   0.87894

     -------------------------------------------------------------------
     WANNIER      :      3.04s CPU      3.04s WALL (       1 calls)
     -------------------------------------------------------------------

     Dipole matrix elements calculated


     Calculating kgmap

     Progress kgmap: ########################################
     kmaps        :      0.01s CPU      0.01s WALL (       1 calls)
     Symmetries of Bravais lattice:  48
     Symmetries of crystal:          24


     ===================================================================
     irreducible q point #    1
     ===================================================================

     Symmetries of small group of q: 24
          in addition sym. q -> -q+G:

     Number of q in the star =    1
     List of q in the star:
          1   0.000000000   0.000000000   0.000000000
     Imposing acoustic sum rule on the dynamical matrix

        q(    1 ) = (   0.0000000   0.0000000   0.0000000 )


     ===================================================================
     irreducible q point #    2
     ===================================================================

     Symmetries of small group of q:  6

     Number of q in the star =    4
     List of q in the star:
          1  -0.333333333   0.333333333  -0.333333333
          2   0.333333333   0.333333333   0.333333333
          3   0.333333333  -0.333333333  -0.333333333
          4  -0.333333333  -0.333333333   0.333333333
     In addition there is the -q list: 
          1   0.333333333  -0.333333333   0.333333333
          2  -0.333333333  -0.333333333  -0.333333333
          3  -0.333333333   0.333333333   0.333333333
          4   0.333333333   0.333333333  -0.333333333

        q(    2 ) = (  -0.3333333   0.3333333  -0.3333333 )

        q(    3 ) = (   0.3333333  -0.3333333   0.3333333 )
        q(    4 ) = (   0.3333333   0.3333333   0.3333333 )
        q(    5 ) = (  -0.3333333  -0.3333333  -0.3333333 )
        q(    6 ) = (   0.3333333  -0.3333333  -0.3333333 )
        q(    7 ) = (  -0.3333333   0.3333333   0.3333333 )
        q(    8 ) = (  -0.3333333  -0.3333333   0.3333333 )
        q(    9 ) = (   0.3333333   0.3333333  -0.3333333 )


     ===================================================================
     irreducible q point #    3
     ===================================================================

     Symmetries of small group of q:  4

     Number of q in the star =    6
     List of q in the star:
          1   0.000000000   0.666666667   0.000000000
          2   0.000000000   0.000000000  -0.666666667
          3  -0.666666667   0.000000000   0.000000000
          4   0.666666667   0.000000000   0.000000000
          5   0.000000000  -0.666666667   0.000000000
          6   0.000000000   0.000000000   0.666666667

        q(   10 ) = (   0.0000000   0.6666667   0.0000000 )
        q(   11 ) = (   0.0000000   0.0000000  -0.6666667 )
        q(   12 ) = (  -0.6666667   0.0000000   0.0000000 )
        q(   13 ) = (   0.6666667   0.0000000   0.0000000 )
        q(   14 ) = (   0.0000000  -0.6666667   0.0000000 )
        q(   15 ) = (   0.0000000   0.0000000   0.6666667 )


     ===================================================================
     irreducible q point #    4
     ===================================================================

     Symmetries of small group of q:  2

     Number of q in the star =   12
     List of q in the star:
          1   0.666666667   0.000000000   0.666666667
          2  -0.666666667   0.000000000  -0.666666667
          3   0.666666667  -0.666666667   0.000000000
          4   0.000000000  -0.666666667   0.666666667
          5   0.000000000  -0.666666667  -0.666666667
          6  -0.666666667   0.000000000   0.666666667
          7   0.666666667   0.666666667   0.000000000
          8  -0.666666667  -0.666666667   0.000000000
          9  -0.666666667   0.666666667   0.000000000
         10   0.666666667   0.000000000  -0.666666667
         11   0.000000000   0.666666667   0.666666667
         12   0.000000000   0.666666667  -0.666666667

        q(   16 ) = (   0.6666667   0.0000000   0.6666667 )
        q(   17 ) = (  -0.6666667   0.0000000  -0.6666667 )
        q(   18 ) = (   0.6666667  -0.6666667   0.0000000 )
        q(   19 ) = (   0.0000000  -0.6666667   0.6666667 )
        q(   20 ) = (  -0.0000000  -0.6666667  -0.6666667 )
        q(   21 ) = (  -0.6666667  -0.0000000   0.6666667 )
        q(   22 ) = (   0.6666667   0.6666667   0.0000000 )
        q(   23 ) = (  -0.6666667  -0.6666667   0.0000000 )
        q(   24 ) = (  -0.6666667   0.6666667   0.0000000 )
        q(   25 ) = (   0.6666667   0.0000000  -0.6666667 )
        q(   26 ) = (   0.0000000   0.6666667   0.6666667 )
        q(   27 ) = (   0.0000000   0.6666667  -0.6666667 )

     Writing epmatq on .epb files


     The .epb files have been correctly written

     Use zone-centred Wigner-Seitz cells 
     Number of WS vectors for electrons       43
     Number of WS vectors for phonons       43
     Number of WS vectors for electron-phonon       43
     Maximum number of cores for efficient parallelization      258
     Results may improve by using use_ws == .TRUE. 
 
     Bloch2wane:          1 /         27
     Bloch2wane:          2 /         27
     Bloch2wane:          3 /         27
     Bloch2wane:          4 /         27
     Bloch2wane:          5 /         27
     Bloch2wane:          6 /         27
     Bloch2wane:          7 /         27
     Bloch2wane:          8 /         27
     Bloch2wane:          9 /         27
     Bloch2wane:         10 /         27
     Bloch2wane:         11 /         27
     Bloch2wane:         12 /         27
     Bloch2wane:         13 /         27
     Bloch2wane:         14 /         27
     Bloch2wane:         15 /         27
     Bloch2wane:         16 /         27
     Bloch2wane:         17 /         27
     Bloch2wane:         18 /         27
     Bloch2wane:         19 /         27
     Bloch2wane:         20 /         27
     Bloch2wane:         21 /         27
     Bloch2wane:         22 /         27
     Bloch2wane:         23 /         27
     Bloch2wane:         24 /         27
     Bloch2wane:         25 /         27
     Bloch2wane:         26 /         27
     Bloch2wane:         27 /         27
 
     Bloch2wanp:          1 /         43
     Bloch2wanp:          2 /         43
     Bloch2wanp:          3 /         43
     Bloch2wanp:          4 /         43
     Bloch2wanp:          5 /         43
     Bloch2wanp:          6 /         43
     Bloch2wanp:          7 /         43
     Bloch2wanp:          8 /         43
     Bloch2wanp:          9 /         43
     Bloch2wanp:         10 /         43
     Bloch2wanp:         11 /         43
     Bloch2wanp:         12 /         43
     Bloch2wanp:         13 /         43
     Bloch2wanp:         14 /         43
     Bloch2wanp:         15 /         43
     Bloch2wanp:         16 /         43
     Bloch2wanp:         17 /         43
     Bloch2wanp:         18 /         43
     Bloch2wanp:         19 /         43
     Bloch2wanp:         20 /         43
     Bloch2wanp:         21 /         43
     Bloch2wanp:         22 /         43
     Bloch2wanp:         23 /         43
     Bloch2wanp:         24 /         43
     Bloch2wanp:         25 /         43
     Bloch2wanp:         26 /         43
     Bloch2wanp:         27 /         43
     Bloch2wanp:         28 /         43
     Bloch2wanp:         29 /         43
     Bloch2wanp:         30 /         43
     Bloch2wanp:         31 /         43
     Bloch2wanp:         32 /         43
     Bloch2wanp:         33 /         43
     Bloch2wanp:         34 /         43
     Bloch2wanp:         35 /         43
     Bloch2wanp:         36 /         43
     Bloch2wanp:         37 /         43
     Bloch2wanp:         38 /         43
     Bloch2wanp:         39 /         43
     Bloch2wanp:         40 /         43
     Bloch2wanp:         41 /         43
     Bloch2wanp:         42 /         43
     Bloch2wanp:         43 /         43

     Writing Hamiltonian, Dynamical matrix and EP vertex in Wann rep to file

     ===================================================================
     Memory usage:  VmHWM =        36Mb
                   VmPeak =       368Mb
     ===================================================================
     
     Using uniform q-mesh:    6   6   6
     Size of q point mesh for interpolation:        216
     Using uniform k-mesh:    6   6   6
     Size of k point mesh for interpolation:        432
     Max number of k points per pool:              432

     Fermi energy coarse grid =  10.826137 eV

     Fermi energy is calculated from the fine k-mesh: Ef =  14.983983 eV

     Warning: check if difference with Fermi level fine grid makes sense

     ===================================================================

              ibndmin =     2  ebndmin =     0.590 eV
              ibndmax =     4  ebndmax =     9.406 eV


     Number of ep-matrix elements per pool :        11664 ~=   91.12 Kb (@ 8 bytes/ DP)
     Number selected, total            100            100
     Number selected, total            200            200
     We only need to compute      216 q-points
      

     ===================================================================
     Phonon (Imaginary) Self-Energy in the Migdal Approximation
     ===================================================================


     Fermi Surface thickness =  15.000000 eV

     Golden Rule strictly enforced with T =   0.172347 eV
     Gaussian Broadening:   1.000000 eV, ngauss=   1
     DOS = -0.000000 states/spin/eV/Unit Cell at Ef= 14.983983 eV

     ismear =     1 iq =       1 coord.:   0.00000  0.00000  0.00000 wt:   0.00463 Temp: 2000.000K
     -------------------------------------------------------------------
     lambda___(   1 )=       0.000000   gamma___=       0.000000 meV   omega=      0.0000 meV
     lambda_tr(   1 )=       0.000000   gamma_tr=       0.000000 meV   omega=      0.0000 meV
     lambda___(   2 )=       0.000000   gamma___=       0.000000 meV   omega=      0.0000 meV
     lambda_tr(   2 )=       0.000000   gamma_tr=       0.000000 meV   omega=      0.0000 meV
     lambda___(   3 )=       0.000000   gamma___=       0.000000 meV   omega=      0.0000 meV
     lambda_tr(   3 )=       0.000000   gamma_tr=       0.000000 meV   omega=      0.0000 meV
     lambda___(   4 )=      -0.001688   gamma___=       0.000000 meV   omega=     95.6456 meV
     lambda_tr(   4 )=      -0.007000   gamma_tr=       0.000000 meV   omega=     95.6456 meV
     lambda___(   5 )=      -0.001688   gamma___=       0.000000 meV   omega=     95.6456 meV
     lambda_tr(   5 )=      -0.007000   gamma_tr=       0.000000 meV   omega=     95.6456 meV
     lambda___(   6 )=      -0.001688   gamma___=       0.000000 meV   omega=     95.6456 meV
     lambda_tr(   6 )=      -0.007000   gamma_tr=       0.000000 meV   omega=     95.6456 meV
     lambda___( tot )=      -0.005065
     lambda_tr( tot )=      -0.021001
     -------------------------------------------------------------------


     Number of (k,k+q) pairs on the Fermi surface:      216 out of      216


     ===================================================================
     Electron (Imaginary) Self-Energy in the Migdal Approximation
     ===================================================================


     Fermi Surface thickness =  15.000000 eV

     Golden Rule strictly enforced with T =   0.172347 eV
     Gaussian Broadening:   1.000000 eV, ngauss=   1
 

     ismear =     1 iq =       2 coord.:   0.00000  0.00000  0.16667 wt:   0.00463 Temp: 2000.000K
     -------------------------------------------------------------------
     lambda___(   1 )=       0.015194   gamma___=      -0.000000 meV   omega=     16.1597 meV
     lambda_tr(   1 )=      -0.039199   gamma_tr=       0.000000 meV   omega=     16.1597 meV
     lambda___(   2 )=       0.010370   gamma___=      -0.000000 meV   omega=     17.5333 meV
     lambda_tr(   2 )=      -0.031256   gamma_tr=       0.000000 meV   omega=     17.5333 meV
     lambda___(   3 )=      -0.011012   gamma___=       0.000000 meV   omega=     33.2111 meV
     lambda_tr(   3 )=      -0.077294   gamma_tr=       0.000000 meV   omega=     33.2111 meV
     lambda___(   4 )=      -0.011052   gamma___=       0.000000 meV   omega=     94.9937 meV
     lambda_tr(   4 )=      -0.016161   gamma_tr=       0.000000 meV   omega=     94.9937 meV
     lambda___(   5 )=      -0.011598   gamma___=       0.000000 meV   omega=     95.2106 meV
     lambda_tr(   5 )=      -0.024521   gamma_tr=       0.000000 meV   omega=     95.2106 meV
     lambda___(   6 )=      -0.016796   gamma___=       0.000000 meV   omega=    101.5165 meV
     lambda_tr(   6 )=      -0.029769   gamma_tr=       0.000000 meV   omega=    101.5165 meV
     lambda___( tot )=      -0.024894
     lambda_tr( tot )=      -0.218201
     -------------------------------------------------------------------


     Number of (k,k+q) pairs on the Fermi surface:      216 out of      216


     ismear =     1 iq =       3 coord.:   0.00000  0.00000  0.33333 wt:   0.00463 Temp: 2000.000K
     -------------------------------------------------------------------
     lambda___(   1 )=      -0.002612   gamma___=       0.000000 meV   omega=     28.8553 meV
     lambda_tr(   1 )=      -0.007308   gamma_tr=       0.000000 meV   omega=     28.8553 meV
     lambda___(   2 )=      -0.002612   gamma___=       0.000000 meV   omega=     28.8553 meV
     lambda_tr(   2 )=      -0.007308   gamma_tr=       0.000000 meV   omega=     28.8553 meV
     lambda___(   3 )=      -0.021271   gamma___=       0.000000 meV   omega=     61.8600 meV
     lambda_tr(   3 )=      -0.027476   gamma_tr=       0.000000 meV   omega=     61.8600 meV
     lambda___(   4 )=      -0.012449   gamma___=       0.000000 meV   omega=     92.8735 meV
     lambda_tr(   4 )=      -0.014444   gamma_tr=       0.000000 meV   omega=     92.8735 meV
     lambda___(   5 )=      -0.012449   gamma___=       0.000000 meV   omega=     92.8735 meV
     lambda_tr(   5 )=      -0.014444   gamma_tr=       0.000000 meV   omega=     92.8735 meV
     lambda___(   6 )=      -0.016750   gamma___=       0.000000 meV   omega=    107.5412 meV
     lambda_tr(   6 )=      -0.017775   gamma_tr=       0.000000 meV   omega=    107.5412 meV
     lambda___( tot )=      -0.068143
     lambda_tr( tot )=      -0.088757
     -------------------------------------------------------------------


     Number of (k,k+q) pairs on the Fermi surface:      216 out of      216


     ismear =     1 iq =       4 coord.:   0.00000  0.00000  0.50000 wt:   0.00463 Temp: 2000.000K
     -------------------------------------------------------------------
     lambda___(   1 )=      -0.001912   gamma___=       0.000000 meV   omega=     32.5366 meV
     lambda_tr(   1 )=      -0.005657   gamma_tr=       0.000000 meV   omega=     32.5366 meV
     lambda___(   2 )=      -0.001840   gamma___=       0.000000 meV   omega=     33.4173 meV
     lambda_tr(   2 )=      -0.005829   gamma_tr=       0.000000 meV   omega=     33.4173 meV
     lambda___(   3 )=      -0.018288   gamma___=       0.000000 meV   omega=     75.6052 meV
     lambda_tr(   3 )=      -0.049475   gamma_tr=       0.000000 meV   omega=     75.6052 meV
     lambda___(   4 )=      -0.009645   gamma___=       0.000000 meV   omega=     91.0241 meV
     lambda_tr(   4 )=      -0.018546   gamma_tr=       0.000000 meV   omega=     91.0241 meV
     lambda___(   5 )=      -0.009619   gamma___=       0.000000 meV   omega=     91.3413 meV
     lambda_tr(   5 )=      -0.017787   gamma_tr=       0.000000 meV   omega=     91.3413 meV
     lambda___(   6 )=      -0.005905   gamma___=       0.000000 meV   omega=    106.8091 meV
     lambda_tr(   6 )=      -0.011069   gamma_tr=       0.000000 meV   omega=    106.8091 meV
     lambda___( tot )=      -0.047210
     lambda_tr( tot )=      -0.108363
     -------------------------------------------------------------------


     Number of (k,k+q) pairs on the Fermi surface:      216 out of      216


     ismear =     1 iq =       5 coord.:   0.00000  0.00000  0.66667 wt:   0.00463 Temp: 2000.000K
     -------------------------------------------------------------------
     lambda___(   1 )=      -0.002612   gamma___=       0.000000 meV   omega=     28.8553 meV
     lambda_tr(   1 )=      -0.005573   gamma_tr=       0.000000 meV   omega=     28.8553 meV
     lambda___(   2 )=      -0.002612   gamma___=       0.000000 meV   omega=     28.8553 meV
     lambda_tr(   2 )=      -0.005573   gamma_tr=       0.000000 meV   omega=     28.8553 meV
     lambda___(   3 )=      -0.021271   gamma___=       0.000000 meV   omega=     61.8600 meV
     lambda_tr(   3 )=      -0.034647   gamma_tr=       0.000000 meV   omega=     61.8600 meV
     lambda___(   4 )=      -0.012449   gamma___=       0.000000 meV   omega=     92.8735 meV
     lambda_tr(   4 )=      -0.015265   gamma_tr=       0.000000 meV   omega=     92.8735 meV
     lambda___(   5 )=      -0.012449   gamma___=       0.000000 meV   omega=     92.8735 meV
     lambda_tr(   5 )=      -0.015265   gamma_tr=       0.000000 meV   omega=     92.8735 meV
     lambda___(   6 )=      -0.016750   gamma___=       0.000000 meV   omega=    107.5412 meV
     lambda_tr(   6 )=      -0.021277   gamma_tr=       0.000000 meV   omega=    107.5412 meV
     lambda___( tot )=      -0.068143
     lambda_tr( tot )=      -0.097600
     -------------------------------------------------------------------


     Number of (k,k+q) pairs on the Fermi surface:      216 out of      216


     ismear =     1 iq =       6 coord.:   0.00000  0.00000  0.83333 wt:   0.00463 Temp: 2000.000K
     -------------------------------------------------------------------
     lambda___(   1 )=       0.015195   gamma___=      -0.000000 meV   omega=     16.1597 meV
     lambda_tr(   1 )=      -0.061891   gamma_tr=       0.000000 meV   omega=     16.1597 meV
     lambda___(   2 )=       0.010370   gamma___=      -0.000000 meV   omega=     17.5333 meV
     lambda_tr(   2 )=      -0.029977   gamma_tr=       0.000000 meV   omega=     17.5333 meV
     lambda___(   3 )=      -0.011013   gamma___=       0.000000 meV   omega=     33.2111 meV
     lambda_tr(   3 )=      -0.085171   gamma_tr=       0.000000 meV   omega=     33.2111 meV
     lambda___(   4 )=      -0.011052   gamma___=       0.000000 meV   omega=     94.9937 meV
     lambda_tr(   4 )=      -0.029064   gamma_tr=       0.000000 meV   omega=     94.9937 meV
     lambda___(   5 )=      -0.011598   gamma___=       0.000000 meV   omega=     95.2106 meV
     lambda_tr(   5 )=      -0.025688   gamma_tr=       0.000000 meV   omega=     95.2106 meV
     lambda___(   6 )=      -0.016796   gamma___=       0.000000 meV   omega=    101.5165 meV
     lambda_tr(   6 )=      -0.027455   gamma_tr=       0.000000 meV   omega=    101.5165 meV
     lambda___( tot )=      -0.024894
     lambda_tr( tot )=      -0.259247
     -------------------------------------------------------------------


     Number of (k,k+q) pairs on the Fermi surface:      216 out of      216


     ismear =     1 iq =       7 coord.:   0.00000  0.16667  0.00000 wt:   0.00463 Temp: 2000.000K
     -------------------------------------------------------------------
     lambda___(   1 )=       0.007045   gamma___=      -0.000000 meV   omega=     14.0393 meV
     lambda_tr(   1 )=      -0.119435   gamma_tr=       0.000000 meV   omega=     14.0393 meV
     lambda___(   2 )=       0.007045   gamma___=      -0.000000 meV   omega=     14.0393 meV
     lambda_tr(   2 )=      -0.119435   gamma_tr=       0.000000 meV   omega=     14.0393 meV
     lambda___(   3 )=       0.038420   gamma___=      -0.000000 meV   omega=     32.8270 meV
     lambda_tr(   3 )=      -0.204365   gamma_tr=       0.000000 meV   omega=     32.8270 meV
     lambda___(   4 )=      -0.014903   gamma___=       0.000000 meV   omega=     95.5726 meV
     lambda_tr(   4 )=      -0.033180   gamma_tr=       0.000000 meV   omega=     95.5726 meV
     lambda___(   5 )=      -0.014903   gamma___=       0.000000 meV   omega=     95.5726 meV
     lambda_tr(   5 )=      -0.033180   gamma_tr=       0.000000 meV   omega=     95.5726 meV
     lambda___(   6 )=      -0.020747   gamma___=       0.000000 meV   omega=    101.6166 meV
     lambda_tr(   6 )=      -0.030676   gamma_tr=       0.000000 meV   omega=    101.6166 meV
     lambda___( tot )=       0.001957
     lambda_tr( tot )=      -0.540271
     -------------------------------------------------------------------


     Number of (k,k+q) pairs on the Fermi surface:      216 out of      216


     ismear =     1 iq =       8 coord.:   0.00000  0.16667  0.16667 wt:   0.00463 Temp: 2000.000K
     -------------------------------------------------------------------
     lambda___(   1 )=      -0.005684   gamma___=       0.000000 meV   omega=     21.5776 meV
     lambda_tr(   1 )=      -0.017014   gamma_tr=       0.000000 meV   omega=     21.5776 meV
     lambda___(   2 )=       0.005853   gamma___=      -0.000000 meV   omega=     22.8833 meV
     lambda_tr(   2 )=      -0.020455   gamma_tr=       0.000000 meV   omega=     22.8833 meV
     lambda___(   3 )=      -0.005532   gamma___=       0.000000 meV   omega=     34.3193 meV
     lambda_tr(   3 )=      -0.071217   gamma_tr=       0.000000 meV   omega=     34.3193 meV
     lambda___(   4 )=      -0.014006   gamma___=       0.000000 meV   omega=     95.2600 meV
     lambda_tr(   4 )=      -0.035043   gamma_tr=       0.000000 meV   omega=     95.2600 meV
     lambda___(   5 )=      -0.014827   gamma___=       0.000000 meV   omega=     95.5984 meV
     lambda_tr(   5 )=      -0.036312   gamma_tr=       0.000000 meV   omega=     95.5984 meV
     lambda___(   6 )=      -0.026331   gamma___=       0.000000 meV   omega=    102.3102 meV
     lambda_tr(   6 )=      -0.046491   gamma_tr=       0.000000 meV   omega=    102.3102 meV
     lambda___( tot )=      -0.060526
     lambda_tr( tot )=      -0.226532
     -------------------------------------------------------------------


     Number of (k,k+q) pairs on the Fermi surface:      216 out of      216


     ismear =     1 iq =       9 coord.:   0.00000  0.16667  0.33333 wt:   0.00463 Temp: 2000.000K
     -------------------------------------------------------------------
     lambda___(   1 )=       0.000626   gamma___=      -0.000000 meV   omega=     32.3945 meV
     lambda_tr(   1 )=      -0.000395   gamma_tr=       0.000000 meV   omega=     32.3945 meV
     lambda___(   2 )=      -0.003068   gamma___=       0.000000 meV   omega=     32.6233 meV
     lambda_tr(   2 )=      -0.003836   gamma_tr=       0.000000 meV   omega=     32.6233 meV
     lambda___(   3 )=      -0.011408   gamma___=       0.000000 meV   omega=     56.0093 meV
     lambda_tr(   3 )=      -0.006129   gamma_tr=       0.000000 meV   omega=     56.0093 meV
     lambda___(   4 )=      -0.007457   gamma___=       0.000000 meV   omega=     93.4838 meV
     lambda_tr(   4 )=      -0.004176   gamma_tr=       0.000000 meV   omega=     93.4838 meV
     lambda___(   5 )=      -0.007952   gamma___=       0.000000 meV   omega=     95.5196 meV
     lambda_tr(   5 )=      -0.007382   gamma_tr=       0.000000 meV   omega=     95.5196 meV
     lambda___(   6 )=      -0.008138   gamma___=       0.000000 meV   omega=    105.2861 meV
     lambda_tr(   6 )=      -0.005383   gamma_tr=       0.000000 meV   omega=    105.2861 meV
     lambda___( tot )=      -0.037396
     lambda_tr( tot )=      -0.027301
     -------------------------------------------------------------------


     Number of (k,k+q) pairs on the Fermi surface:      216 out of      216


     ismear =     1 iq =      10 coord.:   0.00000  0.16667  0.50000 wt:   0.00463 Temp: 2000.000K
     -------------------------------------------------------------------
     lambda___(   1 )=      -0.000836   gamma___=       0.000000 meV   omega=     36.8899 meV
     lambda_tr(   1 )=      -0.000066   gamma_tr=       0.000000 meV   omega=     36.8899 meV
     lambda___(   2 )=      -0.002308   gamma___=       0.000000 meV   omega=     42.3531 meV
     lambda_tr(   2 )=      -0.000892   gamma_tr=       0.000000 meV   omega=     42.3531 meV
     lambda___(   3 )=      -0.007488   gamma___=       0.000000 meV   omega=     70.4099 meV
     lambda_tr(   3 )=      -0.003426   gamma_tr=       0.000000 meV   omega=     70.4099 meV
     lambda___(   4 )=      -0.004281   gamma___=       0.000000 meV   omega=     91.2929 meV
     lambda_tr(   4 )=      -0.003816   gamma_tr=       0.000000 meV   omega=     91.2929 meV
     lambda___(   5 )=      -0.005581   gamma___=       0.000000 meV   omega=     92.8486 meV
     lambda_tr(   5 )=      -0.003297   gamma_tr=       0.000000 meV   omega=     92.8486 meV
     lambda___(   6 )=      -0.002395   gamma___=       0.000000 meV   omega=    105.0390 meV
     lambda_tr(   6 )=      -0.001967   gamma_tr=       0.000000 meV   omega=    105.0390 meV
     lambda___( tot )=      -0.022888
     lambda_tr( tot )=      -0.013464
     -------------------------------------------------------------------


     Number of (k,k+q) pairs on the Fermi surface:      216 out of      216


     ismear =     1 iq =      11 coord.:   0.00000  0.16667  0.66667 wt:   0.00463 Temp: 2000.000K
     -------------------------------------------------------------------
     lambda___(   1 )=      -0.006354   gamma___=       0.000000 meV   omega=     33.8270 meV
     lambda_tr(   1 )=      -0.005743   gamma_tr=       0.000000 meV   omega=     33.8270 meV
     lambda___(   2 )=      -0.002514   gamma___=       0.000000 meV   omega=     43.1438 meV
     lambda_tr(   2 )=      -0.001724   gamma_tr=       0.000000 meV   omega=     43.1438 meV
     lambda___(   3 )=      -0.008019   gamma___=       0.000000 meV   omega=     66.9358 meV
     lambda_tr(   3 )=      -0.005818   gamma_tr=       0.000000 meV   omega=     66.9358 meV
     lambda___(   4 )=      -0.008945   gamma___=       0.000000 meV   omega=     92.1046 meV
     lambda_tr(   4 )=      -0.010531   gamma_tr=       0.000000 meV   omega=     92.1046 meV
     lambda___(   5 )=      -0.005121   gamma___=       0.000000 meV   omega=     93.2220 meV
     lambda_tr(   5 )=      -0.002014   gamma_tr=       0.000000 meV   omega=     93.2220 meV
     lambda___(   6 )=      -0.005420   gamma___=       0.000000 meV   omega=    104.8467 meV
     lambda_tr(   6 )=      -0.004656   gamma_tr=       0.000000 meV   omega=    104.8467 meV
     lambda___( tot )=      -0.036374
     lambda_tr( tot )=      -0.030486
     -------------------------------------------------------------------


     Number of (k,k+q) pairs on the Fermi surface:      216 out of      216


     ismear =     1 iq =      12 coord.:   0.00000  0.16667  0.83333 wt:   0.00463 Temp: 2000.000K
     -------------------------------------------------------------------
     lambda___(   1 )=      -0.017465   gamma___=       0.000000 meV   omega=     23.9944 meV
     lambda_tr(   1 )=      -0.025319   gamma_tr=       0.000000 meV   omega=     23.9944 meV
     lambda___(   2 )=       0.000006   gamma___=      -0.000000 meV   omega=     32.5326 meV
     lambda_tr(   2 )=      -0.002086   gamma_tr=       0.000000 meV   omega=     32.5326 meV
     lambda___(   3 )=       0.000457   gamma___=      -0.000000 meV   omega=     48.4596 meV
     lambda_tr(   3 )=      -0.017731   gamma_tr=       0.000000 meV   omega=     48.4596 meV
     lambda___(   4 )=      -0.009922   gamma___=       0.000000 meV   omega=     94.2689 meV
     lambda_tr(   4 )=      -0.016880   gamma_tr=       0.000000 meV   omega=     94.2689 meV
     lambda___(   5 )=      -0.009144   gamma___=       0.000000 meV   omega=     95.7967 meV
     lambda_tr(   5 )=      -0.012720   gamma_tr=       0.000000 meV   omega=     95.7967 meV
     lambda___(   6 )=      -0.008224   gamma___=       0.000000 meV   omega=    104.5127 meV
     lambda_tr(   6 )=      -0.006744   gamma_tr=       0.000000 meV   omega=    104.5127 meV
     lambda___( tot )=      -0.044291
     lambda_tr( tot )=      -0.081479
     -------------------------------------------------------------------


     Number of (k,k+q) pairs on the Fermi surface:      216 out of      216


     ismear =     1 iq =      13 coord.:   0.00000  0.33333  0.00000 wt:   0.00463 Temp: 2000.000K
     -------------------------------------------------------------------
     lambda___(   1 )=      -0.002612   gamma___=       0.000000 meV   omega=     28.8553 meV
     lambda_tr(   1 )=      -0.005593   gamma_tr=       0.000000 meV   omega=     28.8553 meV
     lambda___(   2 )=      -0.002612   gamma___=       0.000000 meV   omega=     28.8553 meV
     lambda_tr(   2 )=      -0.005593   gamma_tr=       0.000000 meV   omega=     28.8553 meV
     lambda___(   3 )=      -0.021271   gamma___=       0.000000 meV   omega=     61.8600 meV
     lambda_tr(   3 )=      -0.037301   gamma_tr=       0.000000 meV   omega=     61.8600 meV
     lambda___(   4 )=      -0.012449   gamma___=       0.000000 meV   omega=     92.8735 meV
     lambda_tr(   4 )=      -0.016007   gamma_tr=       0.000000 meV   omega=     92.8735 meV
     lambda___(   5 )=      -0.012449   gamma___=       0.000000 meV   omega=     92.8735 meV
     lambda_tr(   5 )=      -0.016007   gamma_tr=       0.000000 meV   omega=     92.8735 meV
     lambda___(   6 )=      -0.016750   gamma___=       0.000000 meV   omega=    107.5412 meV
     lambda_tr(   6 )=      -0.022636   gamma_tr=       0.000000 meV   omega=    107.5412 meV
     lambda___( tot )=      -0.068143
     lambda_tr( tot )=      -0.103137
     -------------------------------------------------------------------


     Number of (k,k+q) pairs on the Fermi surface:      216 out of      216


     ismear =     1 iq =      14 coord.:   0.00000  0.33333  0.16667 wt:   0.00463 Temp: 2000.000K
     -------------------------------------------------------------------
     lambda___(   1 )=      -0.001328   gamma___=       0.000000 meV   omega=     33.1555 meV
     lambda_tr(   1 )=      -0.000911   gamma_tr=       0.000000 meV   omega=     33.1555 meV
     lambda___(   2 )=      -0.001042   gamma___=       0.000000 meV   omega=     33.6126 meV
     lambda_tr(   2 )=      -0.006228   gamma_tr=       0.000000 meV   omega=     33.6126 meV
     lambda___(   3 )=      -0.009224   gamma___=       0.000000 meV   omega=     55.0330 meV
     lambda_tr(   3 )=      -0.009703   gamma_tr=       0.000000 meV   omega=     55.0330 meV
     lambda___(   4 )=      -0.007171   gamma___=       0.000000 meV   omega=     93.2964 meV
     lambda_tr(   4 )=      -0.007346   gamma_tr=       0.000000 meV   omega=     93.2964 meV
     lambda___(   5 )=      -0.007950   gamma___=       0.000000 meV   omega=     94.6261 meV
     lambda_tr(   5 )=      -0.012030   gamma_tr=       0.000000 meV   omega=     94.6261 meV
     lambda___(   6 )=      -0.009392   gamma___=       0.000000 meV   omega=    106.2218 meV
     lambda_tr(   6 )=      -0.004238   gamma_tr=       0.000000 meV   omega=    106.2218 meV
     lambda___( tot )=      -0.036107
     lambda_tr( tot )=      -0.040456
     -------------------------------------------------------------------


     Number of (k,k+q) pairs on the Fermi surface:      216 out of      216


     ismear =     1 iq =      15 coord.:   0.00000  0.33333  0.33333 wt:   0.00463 Temp: 2000.000K
     -------------------------------------------------------------------
     lambda___(   1 )=      -0.000249   gamma___=       0.000000 meV   omega=     40.2678 meV
     lambda_tr(   1 )=       0.000604   gamma_tr=      -0.000000 meV   omega=     40.2678 meV
     lambda___(   2 )=      -0.000249   gamma___=       0.000000 meV   omega=     40.2678 meV
     lambda_tr(   2 )=       0.000604   gamma_tr=      -0.000000 meV   omega=     40.2678 meV
     lambda___(   3 )=      -0.004300   gamma___=       0.000000 meV   omega=     62.2636 meV
     lambda_tr(   3 )=       0.004726   gamma_tr=      -0.000000 meV   omega=     62.2636 meV
     lambda___(   4 )=      -0.001326   gamma___=       0.000000 meV   omega=     92.3298 meV
     lambda_tr(   4 )=       0.000213   gamma_tr=      -0.000000 meV   omega=     92.3298 meV
     lambda___(   5 )=      -0.001326   gamma___=       0.000000 meV   omega=     92.3298 meV
     lambda_tr(   5 )=       0.000213   gamma_tr=      -0.000000 meV   omega=     92.3298 meV
     lambda___(   6 )=      -0.005123   gamma___=       0.000000 meV   omega=    107.6995 meV
     lambda_tr(   6 )=      -0.000993   gamma_tr=       0.000000 meV   omega=    107.6995 meV
     lambda___( tot )=      -0.012574
     lambda_tr( tot )=       0.005366
     -------------------------------------------------------------------


     Number of (k,k+q) pairs on the Fermi surface:      216 out of      216


     ismear =     1 iq =      16 coord.:   0.00000  0.33333  0.50000 wt:   0.00463 Temp: 2000.000K
     -------------------------------------------------------------------
     lambda___(   1 )=      -0.000070   gamma___=       0.000000 meV   omega=     43.4055 meV
     lambda_tr(   1 )=       0.000236   gamma_tr=      -0.000000 meV   omega=     43.4055 meV
     lambda___(   2 )=      -0.000659   gamma___=       0.000000 meV   omega=     48.4579 meV
     lambda_tr(   2 )=       0.001891   gamma_tr=      -0.000000 meV   omega=     48.4579 meV
     lambda___(   3 )=      -0.003128   gamma___=       0.000000 meV   omega=     70.0436 meV
     lambda_tr(   3 )=       0.006210   gamma_tr=      -0.000000 meV   omega=     70.0436 meV
     lambda___(   4 )=      -0.000193   gamma___=       0.000000 meV   omega=     90.6971 meV
     lambda_tr(   4 )=      -0.000103   gamma_tr=       0.000000 meV   omega=     90.6971 meV
     lambda___(   5 )=      -0.000739   gamma___=       0.000000 meV   omega=     92.1981 meV
     lambda_tr(   5 )=       0.001544   gamma_tr=      -0.000000 meV   omega=     92.1981 meV
     lambda___(   6 )=      -0.001443   gamma___=       0.000000 meV   omega=    104.4722 meV
     lambda_tr(   6 )=       0.001252   gamma_tr=      -0.000000 meV   omega=    104.4722 meV
     lambda___( tot )=      -0.006232
     lambda_tr( tot )=       0.011029
     -------------------------------------------------------------------


     Number of (k,k+q) pairs on the Fermi surface:      216 out of      216


     ismear =     1 iq =      17 coord.:   0.00000  0.33333  0.66667 wt:   0.00463 Temp: 2000.000K
     -------------------------------------------------------------------
     lambda___(   1 )=      -0.000206   gamma___=       0.000000 meV   omega=     41.6923 meV
     lambda_tr(   1 )=       0.000257   gamma_tr=      -0.000000 meV   omega=     41.6923 meV
     lambda___(   2 )=      -0.000404   gamma___=       0.000000 meV   omega=     57.0427 meV
     lambda_tr(   2 )=       0.000057   gamma_tr=      -0.000000 meV   omega=     57.0427 meV
     lambda___(   3 )=      -0.003989   gamma___=       0.000000 meV   omega=     65.5559 meV
     lambda_tr(   3 )=      -0.005164   gamma_tr=       0.000000 meV   omega=     65.5559 meV
     lambda___(   4 )=      -0.001351   gamma___=       0.000000 meV   omega=     90.5450 meV
     lambda_tr(   4 )=       0.000237   gamma_tr=      -0.000000 meV   omega=     90.5450 meV
     lambda___(   5 )=      -0.000228   gamma___=       0.000000 meV   omega=     91.5538 meV
     lambda_tr(   5 )=      -0.000041   gamma_tr=       0.000000 meV   omega=     91.5538 meV
     lambda___(   6 )=      -0.002037   gamma___=       0.000000 meV   omega=    103.3639 meV
     lambda_tr(   6 )=      -0.002113   gamma_tr=       0.000000 meV   omega=    103.3639 meV
     lambda___( tot )=      -0.008214
     lambda_tr( tot )=      -0.006767
     -------------------------------------------------------------------


     Number of (k,k+q) pairs on the Fermi surface:      216 out of      216


     ismear =     1 iq =      18 coord.:   0.00000  0.33333  0.83333 wt:   0.00463 Temp: 2000.000K
     -------------------------------------------------------------------
     lambda___(   1 )=      -0.002381   gamma___=       0.000000 meV   omega=     34.6280 meV
     lambda_tr(   1 )=      -0.001489   gamma_tr=       0.000000 meV   omega=     34.6280 meV
     lambda___(   2 )=      -0.001071   gamma___=       0.000000 meV   omega=     42.4172 meV
     lambda_tr(   2 )=      -0.002007   gamma_tr=       0.000000 meV   omega=     42.4172 meV
     lambda___(   3 )=      -0.009368   gamma___=       0.000000 meV   omega=     66.4954 meV
     lambda_tr(   3 )=      -0.009445   gamma_tr=       0.000000 meV   omega=     66.4954 meV
     lambda___(   4 )=      -0.007390   gamma___=       0.000000 meV   omega=     91.8065 meV
     lambda_tr(   4 )=      -0.008559   gamma_tr=       0.000000 meV   omega=     91.8065 meV
     lambda___(   5 )=      -0.004504   gamma___=       0.000000 meV   omega=     93.5275 meV
     lambda_tr(   5 )=      -0.002518   gamma_tr=       0.000000 meV   omega=     93.5275 meV
     lambda___(   6 )=      -0.004112   gamma___=       0.000000 meV   omega=    105.1509 meV
     lambda_tr(   6 )=      -0.004813   gamma_tr=       0.000000 meV   omega=    105.1509 meV
     lambda___( tot )=      -0.028826
     lambda_tr( tot )=      -0.028831
     -------------------------------------------------------------------


     Number of (k,k+q) pairs on the Fermi surface:      216 out of      216


     ismear =     1 iq =      19 coord.:   0.00000  0.50000  0.00000 wt:   0.00463 Temp: 2000.000K
     -------------------------------------------------------------------
     lambda___(   1 )=       0.002459   gamma___=      -0.000000 meV   omega=     30.9217 meV
     lambda_tr(   1 )=       0.002579   gamma_tr=      -0.000000 meV   omega=     30.9217 meV
     lambda___(   2 )=       0.002459   gamma___=      -0.000000 meV   omega=     30.9217 meV
     lambda_tr(   2 )=       0.002579   gamma_tr=      -0.000000 meV   omega=     30.9217 meV
     lambda___(   3 )=      -0.022489   gamma___=       0.000000 meV   omega=     76.5382 meV
     lambda_tr(   3 )=      -0.034170   gamma_tr=       0.000000 meV   omega=     76.5382 meV
     lambda___(   4 )=      -0.014284   gamma___=       0.000000 meV   omega=     91.9006 meV
     lambda_tr(   4 )=      -0.017570   gamma_tr=       0.000000 meV   omega=     91.9006 meV
     lambda___(   5 )=      -0.014284   gamma___=       0.000000 meV   omega=     91.9006 meV
     lambda_tr(   5 )=      -0.017570   gamma_tr=       0.000000 meV   omega=     91.9006 meV
     lambda___(   6 )=      -0.000155   gamma___=       0.000000 meV   omega=    106.1436 meV
     lambda_tr(   6 )=      -0.000241   gamma_tr=       0.000000 meV   omega=    106.1436 meV
     lambda___( tot )=      -0.046294
     lambda_tr( tot )=      -0.064392
     -------------------------------------------------------------------


     Number of (k,k+q) pairs on the Fermi surface:      216 out of      216


     ismear =     1 iq =      20 coord.:   0.00000  0.50000  0.16667 wt:   0.00463 Temp: 2000.000K
     -------------------------------------------------------------------
     lambda___(   1 )=       0.000424   gamma___=      -0.000000 meV   omega=     35.8128 meV
     lambda_tr(   1 )=       0.002536   gamma_tr=      -0.000000 meV   omega=     35.8128 meV
     lambda___(   2 )=      -0.001990   gamma___=       0.000000 meV   omega=     41.8346 meV
     lambda_tr(   2 )=      -0.001107   gamma_tr=       0.000000 meV   omega=     41.8346 meV
     lambda___(   3 )=      -0.008144   gamma___=       0.000000 meV   omega=     71.0411 meV
     lambda_tr(   3 )=      -0.005400   gamma_tr=       0.000000 meV   omega=     71.0411 meV
     lambda___(   4 )=      -0.005054   gamma___=       0.000000 meV   omega=     91.7207 meV
     lambda_tr(   4 )=      -0.003557   gamma_tr=       0.000000 meV   omega=     91.7207 meV
     lambda___(   5 )=      -0.006188   gamma___=       0.000000 meV   omega=     93.0033 meV
     lambda_tr(   5 )=      -0.006168   gamma_tr=       0.000000 meV   omega=     93.0033 meV
     lambda___(   6 )=      -0.001527   gamma___=       0.000000 meV   omega=    104.6844 meV
     lambda_tr(   6 )=      -0.002092   gamma_tr=       0.000000 meV   omega=    104.6844 meV
     lambda___( tot )=      -0.022480
     lambda_tr( tot )=      -0.015788
     -------------------------------------------------------------------


     Number of (k,k+q) pairs on the Fermi surface:      216 out of      216


     ismear =     1 iq =      21 coord.:   0.00000  0.50000  0.33333 wt:   0.00463 Temp: 2000.000K
     -------------------------------------------------------------------
     lambda___(   1 )=       0.000061   gamma___=      -0.000000 meV   omega=     41.8230 meV
     lambda_tr(   1 )=       0.000496   gamma_tr=      -0.000000 meV   omega=     41.8230 meV
     lambda___(   2 )=      -0.000338   gamma___=       0.000000 meV   omega=     48.8041 meV
     lambda_tr(   2 )=       0.002165   gamma_tr=      -0.000000 meV   omega=     48.8041 meV
     lambda___(   3 )=      -0.003214   gamma___=       0.000000 meV   omega=     70.3959 meV
     lambda_tr(   3 )=       0.006466   gamma_tr=      -0.000000 meV   omega=     70.3959 meV
     lambda___(   4 )=      -0.000204   gamma___=       0.000000 meV   omega=     91.4376 meV
     lambda_tr(   4 )=      -0.000113   gamma_tr=       0.000000 meV   omega=     91.4376 meV
     lambda___(   5 )=      -0.001083   gamma___=       0.000000 meV   omega=     92.3422 meV
     lambda_tr(   5 )=       0.001553   gamma_tr=      -0.000000 meV   omega=     92.3422 meV
     lambda___(   6 )=      -0.001261   gamma___=       0.000000 meV   omega=    103.9456 meV
     lambda_tr(   6 )=       0.000266   gamma_tr=      -0.000000 meV   omega=    103.9456 meV
     lambda___( tot )=      -0.006038
     lambda_tr( tot )=       0.010832
     -------------------------------------------------------------------


     Number of (k,k+q) pairs on the Fermi surface:      216 out of      216


     ismear =     1 iq =      22 coord.:   0.00000  0.50000  0.50000 wt:   0.00463 Temp: 2000.000K
     -------------------------------------------------------------------
     lambda___(   1 )=      -0.000001   gamma___=       0.000000 meV   omega=     43.4850 meV
     lambda_tr(   1 )=       0.000017   gamma_tr=      -0.000000 meV   omega=     43.4850 meV
     lambda___(   2 )=       0.000002   gamma___=      -0.000000 meV   omega=     45.7091 meV
     lambda_tr(   2 )=       0.000020   gamma_tr=      -0.000000 meV   omega=     45.7091 meV
     lambda___(   3 )=      -0.000909   gamma___=       0.000000 meV   omega=     77.0513 meV
     lambda_tr(   3 )=       0.001678   gamma_tr=      -0.000000 meV   omega=     77.0513 meV
     lambda___(   4 )=      -0.000038   gamma___=       0.000000 meV   omega=     90.2519 meV
     lambda_tr(   4 )=      -0.000012   gamma_tr=       0.000000 meV   omega=     90.2519 meV
     lambda___(   5 )=      -0.000030   gamma___=       0.000000 meV   omega=     91.3259 meV
     lambda_tr(   5 )=       0.000018   gamma_tr=      -0.000000 meV   omega=     91.3259 meV
     lambda___(   6 )=      -0.000195   gamma___=       0.000000 meV   omega=    104.3186 meV
     lambda_tr(   6 )=      -0.000018   gamma_tr=       0.000000 meV   omega=    104.3186 meV
     lambda___( tot )=      -0.001172
     lambda_tr( tot )=       0.001704
     -------------------------------------------------------------------


     Number of (k,k+q) pairs on the Fermi surface:      216 out of      216


     ismear =     1 iq =      23 coord.:   0.00000  0.50000  0.66667 wt:   0.00463 Temp: 2000.000K
     -------------------------------------------------------------------
     lambda___(   1 )=       0.000061   gamma___=      -0.000000 meV   omega=     41.8230 meV
     lambda_tr(   1 )=       0.000485   gamma_tr=      -0.000000 meV   omega=     41.8230 meV
     lambda___(   2 )=      -0.000338   gamma___=       0.000000 meV   omega=     48.8041 meV
     lambda_tr(   2 )=       0.002385   gamma_tr=      -0.000000 meV   omega=     48.8041 meV
     lambda___(   3 )=      -0.003214   gamma___=       0.000000 meV   omega=     70.3959 meV
     lambda_tr(   3 )=       0.006480   gamma_tr=      -0.000000 meV   omega=     70.3959 meV
     lambda___(   4 )=      -0.000204   gamma___=       0.000000 meV   omega=     91.4376 meV
     lambda_tr(   4 )=      -0.000107   gamma_tr=       0.000000 meV   omega=     91.4376 meV
     lambda___(   5 )=      -0.001083   gamma___=       0.000000 meV   omega=     92.3422 meV
     lambda_tr(   5 )=       0.001769   gamma_tr=      -0.000000 meV   omega=     92.3422 meV
     lambda___(   6 )=      -0.001261   gamma___=       0.000000 meV   omega=    103.9456 meV
     lambda_tr(   6 )=       0.000348   gamma_tr=      -0.000000 meV   omega=    103.9456 meV
     lambda___( tot )=      -0.006039
     lambda_tr( tot )=       0.011359
     -------------------------------------------------------------------


     Number of (k,k+q) pairs on the Fermi surface:      216 out of      216


     ismear =     1 iq =      24 coord.:   0.00000  0.50000  0.83333 wt:   0.00463 Temp: 2000.000K
     -------------------------------------------------------------------
     lambda___(   1 )=       0.000424   gamma___=      -0.000000 meV   omega=     35.8128 meV
     lambda_tr(   1 )=       0.001710   gamma_tr=      -0.000000 meV   omega=     35.8128 meV
     lambda___(   2 )=      -0.001990   gamma___=       0.000000 meV   omega=     41.8346 meV
     lambda_tr(   2 )=      -0.001220   gamma_tr=       0.000000 meV   omega=     41.8346 meV
     lambda___(   3 )=      -0.008144   gamma___=       0.000000 meV   omega=     71.0411 meV
     lambda_tr(   3 )=      -0.007073   gamma_tr=       0.000000 meV   omega=     71.0411 meV
     lambda___(   4 )=      -0.005054   gamma___=       0.000000 meV   omega=     91.7207 meV
     lambda_tr(   4 )=      -0.002891   gamma_tr=       0.000000 meV   omega=     91.7207 meV
     lambda___(   5 )=      -0.006189   gamma___=       0.000000 meV   omega=     93.0033 meV
     lambda_tr(   5 )=      -0.004609   gamma_tr=       0.000000 meV   omega=     93.0033 meV
     lambda___(   6 )=      -0.001528   gamma___=       0.000000 meV   omega=    104.6844 meV
     lambda_tr(   6 )=      -0.001001   gamma_tr=       0.000000 meV   omega=    104.6844 meV
     lambda___( tot )=      -0.022480
     lambda_tr( tot )=      -0.015084
     -------------------------------------------------------------------


     Number of (k,k+q) pairs on the Fermi surface:      216 out of      216


     ismear =     1 iq =      25 coord.:   0.00000  0.66667  0.00000 wt:   0.00463 Temp: 2000.000K
     -------------------------------------------------------------------
     lambda___(   1 )=      -0.002612   gamma___=       0.000000 meV   omega=     28.8553 meV
     lambda_tr(   1 )=      -0.008290   gamma_tr=       0.000000 meV   omega=     28.8553 meV
     lambda___(   2 )=      -0.002612   gamma___=       0.000000 meV   omega=     28.8553 meV
     lambda_tr(   2 )=      -0.008290   gamma_tr=       0.000000 meV   omega=     28.8553 meV
     lambda___(   3 )=      -0.021271   gamma___=       0.000000 meV   omega=     61.8600 meV
     lambda_tr(   3 )=      -0.026676   gamma_tr=       0.000000 meV   omega=     61.8600 meV
     lambda___(   4 )=      -0.012449   gamma___=       0.000000 meV   omega=     92.8735 meV
     lambda_tr(   4 )=      -0.014710   gamma_tr=       0.000000 meV   omega=     92.8735 meV
     lambda___(   5 )=      -0.012449   gamma___=       0.000000 meV   omega=     92.8735 meV
     lambda_tr(   5 )=      -0.014710   gamma_tr=       0.000000 meV   omega=     92.8735 meV
     lambda___(   6 )=      -0.016750   gamma___=       0.000000 meV   omega=    107.5412 meV
     lambda_tr(   6 )=      -0.017116   gamma_tr=       0.000000 meV   omega=    107.5412 meV
     lambda___( tot )=      -0.068143
     lambda_tr( tot )=      -0.089791
     -------------------------------------------------------------------


     Number of (k,k+q) pairs on the Fermi surface:      216 out of      216


     ismear =     1 iq =      26 coord.:   0.00000  0.66667  0.16667 wt:   0.00463 Temp: 2000.000K
     -------------------------------------------------------------------
     lambda___(   1 )=      -0.002381   gamma___=       0.000000 meV   omega=     34.6280 meV
     lambda_tr(   1 )=      -0.001268   gamma_tr=       0.000000 meV   omega=     34.6280 meV
     lambda___(   2 )=      -0.001072   gamma___=       0.000000 meV   omega=     42.4172 meV
     lambda_tr(   2 )=      -0.001108   gamma_tr=       0.000000 meV   omega=     42.4172 meV
     lambda___(   3 )=      -0.009367   gamma___=       0.000000 meV   omega=     66.4954 meV
     lambda_tr(   3 )=      -0.010815   gamma_tr=       0.000000 meV   omega=     66.4954 meV
     lambda___(   4 )=      -0.007390   gamma___=       0.000000 meV   omega=     91.8065 meV
     lambda_tr(   4 )=      -0.007521   gamma_tr=       0.000000 meV   omega=     91.8065 meV
     lambda___(   5 )=      -0.004503   gamma___=       0.000000 meV   omega=     93.5275 meV
     lambda_tr(   5 )=      -0.002818   gamma_tr=       0.000000 meV   omega=     93.5275 meV
     lambda___(   6 )=      -0.004113   gamma___=       0.000000 meV   omega=    105.1509 meV
     lambda_tr(   6 )=      -0.004865   gamma_tr=       0.000000 meV   omega=    105.1509 meV
     lambda___( tot )=      -0.028826
     lambda_tr( tot )=      -0.028396
     -------------------------------------------------------------------


     Number of (k,k+q) pairs on the Fermi surface:      216 out of      216


     ismear =     1 iq =      27 coord.:   0.00000  0.66667  0.33333 wt:   0.00463 Temp: 2000.000K
     -------------------------------------------------------------------
     lambda___(   1 )=      -0.000206   gamma___=       0.000000 meV   omega=     41.6923 meV
     lambda_tr(   1 )=       0.000118   gamma_tr=      -0.000000 meV   omega=     41.6923 meV
     lambda___(   2 )=      -0.000404   gamma___=       0.000000 meV   omega=     57.0427 meV
     lambda_tr(   2 )=       0.000319   gamma_tr=      -0.000000 meV   omega=     57.0427 meV
     lambda___(   3 )=      -0.003989   gamma___=       0.000000 meV   omega=     65.5559 meV
     lambda_tr(   3 )=       0.000014   gamma_tr=      -0.000000 meV   omega=     65.5559 meV
     lambda___(   4 )=      -0.001351   gamma___=       0.000000 meV   omega=     90.5450 meV
     lambda_tr(   4 )=      -0.000358   gamma_tr=       0.000000 meV   omega=     90.5450 meV
     lambda___(   5 )=      -0.000228   gamma___=       0.000000 meV   omega=     91.5538 meV
     lambda_tr(   5 )=       0.000068   gamma_tr=      -0.000000 meV   omega=     91.5538 meV
     lambda___(   6 )=      -0.002037   gamma___=       0.000000 meV   omega=    103.3639 meV
     lambda_tr(   6 )=      -0.000635   gamma_tr=       0.000000 meV   omega=    103.3639 meV
     lambda___( tot )=      -0.008214
     lambda_tr( tot )=      -0.000476
     -------------------------------------------------------------------


     Number of (k,k+q) pairs on the Fermi surface:      216 out of      216


     ismear =     1 iq =      28 coord.:   0.00000  0.66667  0.50000 wt:   0.00463 Temp: 2000.000K
     -------------------------------------------------------------------
     lambda___(   1 )=      -0.000070   gamma___=       0.000000 meV   omega=     43.4055 meV
     lambda_tr(   1 )=       0.000250   gamma_tr=      -0.000000 meV   omega=     43.4055 meV
     lambda___(   2 )=      -0.000659   gamma___=       0.000000 meV   omega=     48.4579 meV
     lambda_tr(   2 )=       0.001700   gamma_tr=      -0.000000 meV   omega=     48.4579 meV
     lambda___(   3 )=      -0.003128   gamma___=       0.000000 meV   omega=     70.0436 meV
     lambda_tr(   3 )=       0.006317   gamma_tr=      -0.000000 meV   omega=     70.0436 meV
     lambda___(   4 )=      -0.000193   gamma___=       0.000000 meV   omega=     90.6971 meV
     lambda_tr(   4 )=      -0.000099   gamma_tr=       0.000000 meV   omega=     90.6971 meV
     lambda___(   5 )=      -0.000739   gamma___=       0.000000 meV   omega=     92.1981 meV
     lambda_tr(   5 )=       0.001437   gamma_tr=      -0.000000 meV   omega=     92.1981 meV
     lambda___(   6 )=      -0.001444   gamma___=       0.000000 meV   omega=    104.4722 meV
     lambda_tr(   6 )=       0.001166   gamma_tr=      -0.000000 meV   omega=    104.4722 meV
     lambda___( tot )=      -0.006232
     lambda_tr( tot )=       0.010771
     -------------------------------------------------------------------


     Number of (k,k+q) pairs on the Fermi surface:      216 out of      216


     ismear =     1 iq =      29 coord.:   0.00000  0.66667  0.66667 wt:   0.00463 Temp: 2000.000K
     -------------------------------------------------------------------
     lambda___(   1 )=      -0.000249   gamma___=       0.000000 meV   omega=     40.2678 meV
     lambda_tr(   1 )=       0.000688   gamma_tr=      -0.000000 meV   omega=     40.2678 meV
     lambda___(   2 )=      -0.000249   gamma___=       0.000000 meV   omega=     40.2678 meV
     lambda_tr(   2 )=       0.000688   gamma_tr=      -0.000000 meV   omega=     40.2678 meV
     lambda___(   3 )=      -0.004300   gamma___=       0.000000 meV   omega=     62.2636 meV
     lambda_tr(   3 )=       0.005403   gamma_tr=      -0.000000 meV   omega=     62.2636 meV
     lambda___(   4 )=      -0.001326   gamma___=       0.000000 meV   omega=     92.3298 meV
     lambda_tr(   4 )=       0.000408   gamma_tr=      -0.000000 meV   omega=     92.3298 meV
     lambda___(   5 )=      -0.001326   gamma___=       0.000000 meV   omega=     92.3298 meV
     lambda_tr(   5 )=       0.000408   gamma_tr=      -0.000000 meV   omega=     92.3298 meV
     lambda___(   6 )=      -0.005123   gamma___=       0.000000 meV   omega=    107.6995 meV
     lambda_tr(   6 )=      -0.000553   gamma_tr=       0.000000 meV   omega=    107.6995 meV
     lambda___( tot )=      -0.012574
     lambda_tr( tot )=       0.007040
     -------------------------------------------------------------------


     Number of (k,k+q) pairs on the Fermi surface:      216 out of      216


     ismear =     1 iq =      30 coord.:   0.00000  0.66667  0.83333 wt:   0.00463 Temp: 2000.000K
     -------------------------------------------------------------------
     lambda___(   1 )=      -0.001328   gamma___=       0.000000 meV   omega=     33.1555 meV
     lambda_tr(   1 )=      -0.001950   gamma_tr=       0.000000 meV   omega=     33.1555 meV
     lambda___(   2 )=      -0.001042   gamma___=       0.000000 meV   omega=     33.6126 meV
     lambda_tr(   2 )=      -0.004432   gamma_tr=       0.000000 meV   omega=     33.6126 meV
     lambda___(   3 )=      -0.009224   gamma___=       0.000000 meV   omega=     55.0330 meV
     lambda_tr(   3 )=      -0.005165   gamma_tr=       0.000000 meV   omega=     55.0330 meV
     lambda___(   4 )=      -0.007171   gamma___=       0.000000 meV   omega=     93.2964 meV
     lambda_tr(   4 )=      -0.007452   gamma_tr=       0.000000 meV   omega=     93.2964 meV
     lambda___(   5 )=      -0.007950   gamma___=       0.000000 meV   omega=     94.6261 meV
     lambda_tr(   5 )=      -0.008003   gamma_tr=       0.000000 meV   omega=     94.6261 meV
     lambda___(   6 )=      -0.009392   gamma___=       0.000000 meV   omega=    106.2218 meV
     lambda_tr(   6 )=      -0.004199   gamma_tr=       0.000000 meV   omega=    106.2218 meV
     lambda___( tot )=      -0.036107
     lambda_tr( tot )=      -0.031202
     -------------------------------------------------------------------


     Number of (k,k+q) pairs on the Fermi surface:      216 out of      216


     ismear =     1 iq =      31 coord.:   0.00000  0.83333  0.00000 wt:   0.00463 Temp: 2000.000K
     -------------------------------------------------------------------
     lambda___(   1 )=       0.007061   gamma___=      -0.000000 meV   omega=     14.0393 meV
     lambda_tr(   1 )=      -0.106789   gamma_tr=       0.000000 meV   omega=     14.0393 meV
     lambda___(   2 )=       0.007061   gamma___=      -0.000000 meV   omega=     14.0393 meV
     lambda_tr(   2 )=      -0.106789   gamma_tr=       0.000000 meV   omega=     14.0393 meV
     lambda___(   3 )=       0.038421   gamma___=      -0.000000 meV   omega=     32.8270 meV
     lambda_tr(   3 )=      -0.139576   gamma_tr=       0.000000 meV   omega=     32.8270 meV
     lambda___(   4 )=      -0.014902   gamma___=       0.000000 meV   omega=     95.5726 meV
     lambda_tr(   4 )=      -0.030822   gamma_tr=       0.000000 meV   omega=     95.5726 meV
     lambda___(   5 )=      -0.014902   gamma___=       0.000000 meV   omega=     95.5726 meV
     lambda_tr(   5 )=      -0.030822   gamma_tr=       0.000000 meV   omega=     95.5726 meV
     lambda___(   6 )=      -0.020746   gamma___=       0.000000 meV   omega=    101.6166 meV
     lambda_tr(   6 )=      -0.034815   gamma_tr=       0.000000 meV   omega=    101.6166 meV
     lambda___( tot )=       0.001991
     lambda_tr( tot )=      -0.449612
     -------------------------------------------------------------------


     Number of (k,k+q) pairs on the Fermi surface:      216 out of      216


     ismear =     1 iq =      32 coord.:   0.00000  0.83333  0.16667 wt:   0.00463 Temp: 2000.000K
     -------------------------------------------------------------------
     lambda___(   1 )=      -0.017465   gamma___=       0.000000 meV   omega=     23.9944 meV
     lambda_tr(   1 )=      -0.030246   gamma_tr=       0.000000 meV   omega=     23.9944 meV
     lambda___(   2 )=       0.000006   gamma___=      -0.000000 meV   omega=     32.5326 meV
     lambda_tr(   2 )=      -0.000675   gamma_tr=       0.000000 meV   omega=     32.5326 meV
     lambda___(   3 )=       0.000456   gamma___=      -0.000000 meV   omega=     48.4596 meV
     lambda_tr(   3 )=      -0.005257   gamma_tr=       0.000000 meV   omega=     48.4596 meV
     lambda___(   4 )=      -0.009922   gamma___=       0.000000 meV   omega=     94.2689 meV
     lambda_tr(   4 )=      -0.012588   gamma_tr=       0.000000 meV   omega=     94.2689 meV
     lambda___(   5 )=      -0.009144   gamma___=       0.000000 meV   omega=     95.7967 meV
     lambda_tr(   5 )=      -0.010027   gamma_tr=       0.000000 meV   omega=     95.7967 meV
     lambda___(   6 )=      -0.008224   gamma___=       0.000000 meV   omega=    104.5127 meV
     lambda_tr(   6 )=      -0.008362   gamma_tr=       0.000000 meV   omega=    104.5127 meV
     lambda___( tot )=      -0.044293
     lambda_tr( tot )=      -0.067157
     -------------------------------------------------------------------


     Number of (k,k+q) pairs on the Fermi surface:      216 out of      216


     ismear =     1 iq =      33 coord.:   0.00000  0.83333  0.33333 wt:   0.00463 Temp: 2000.000K
     -------------------------------------------------------------------
     lambda___(   1 )=      -0.006355   gamma___=       0.000000 meV   omega=     33.8270 meV
     lambda_tr(   1 )=      -0.007705   gamma_tr=       0.000000 meV   omega=     33.8270 meV
     lambda___(   2 )=      -0.002513   gamma___=       0.000000 meV   omega=     43.1438 meV
     lambda_tr(   2 )=      -0.001097   gamma_tr=       0.000000 meV   omega=     43.1438 meV
     lambda___(   3 )=      -0.008020   gamma___=       0.000000 meV   omega=     66.9358 meV
     lambda_tr(   3 )=      -0.002273   gamma_tr=       0.000000 meV   omega=     66.9358 meV
     lambda___(   4 )=      -0.008945   gamma___=       0.000000 meV   omega=     92.1046 meV
     lambda_tr(   4 )=      -0.009882   gamma_tr=       0.000000 meV   omega=     92.1046 meV
     lambda___(   5 )=      -0.005123   gamma___=       0.000000 meV   omega=     93.2220 meV
     lambda_tr(   5 )=      -0.001384   gamma_tr=       0.000000 meV   omega=     93.2220 meV
     lambda___(   6 )=      -0.005420   gamma___=       0.000000 meV   omega=    104.8467 meV
     lambda_tr(   6 )=      -0.003642   gamma_tr=       0.000000 meV   omega=    104.8467 meV
     lambda___( tot )=      -0.036376
     lambda_tr( tot )=      -0.025982
     -------------------------------------------------------------------


     Number of (k,k+q) pairs on the Fermi surface:      216 out of      216


     ismear =     1 iq =      34 coord.:   0.00000  0.83333  0.50000 wt:   0.00463 Temp: 2000.000K
     -------------------------------------------------------------------
     lambda___(   1 )=      -0.000836   gamma___=       0.000000 meV   omega=     36.8899 meV
     lambda_tr(   1 )=       0.000604   gamma_tr=      -0.000000 meV   omega=     36.8899 meV
     lambda___(   2 )=      -0.002307   gamma___=       0.000000 meV   omega=     42.3531 meV
     lambda_tr(   2 )=      -0.003287   gamma_tr=       0.000000 meV   omega=     42.3531 meV
     lambda___(   3 )=      -0.007487   gamma___=       0.000000 meV   omega=     70.4099 meV
     lambda_tr(   3 )=      -0.008125   gamma_tr=       0.000000 meV   omega=     70.4099 meV
     lambda___(   4 )=      -0.004281   gamma___=       0.000000 meV   omega=     91.2929 meV
     lambda_tr(   4 )=      -0.003889   gamma_tr=       0.000000 meV   omega=     91.2929 meV
     lambda___(   5 )=      -0.005581   gamma___=       0.000000 meV   omega=     92.8486 meV
     lambda_tr(   5 )=      -0.006979   gamma_tr=       0.000000 meV   omega=     92.8486 meV
     lambda___(   6 )=      -0.002396   gamma___=       0.000000 meV   omega=    105.0390 meV
     lambda_tr(   6 )=      -0.002972   gamma_tr=       0.000000 meV   omega=    105.0390 meV
     lambda___( tot )=      -0.022888
     lambda_tr( tot )=      -0.024650
     -------------------------------------------------------------------


     Number of (k,k+q) pairs on the Fermi surface:      216 out of      216


     ismear =     1 iq =      35 coord.:   0.00000  0.83333  0.66667 wt:   0.00463 Temp: 2000.000K
     -------------------------------------------------------------------
     lambda___(   1 )=       0.000626   gamma___=      -0.000000 meV   omega=     32.3945 meV
     lambda_tr(   1 )=      -0.001424   gamma_tr=       0.000000 meV   omega=     32.3945 meV
     lambda___(   2 )=      -0.003068   gamma___=       0.000000 meV   omega=     32.6233 meV
     lambda_tr(   2 )=      -0.003736   gamma_tr=       0.000000 meV   omega=     32.6233 meV
     lambda___(   3 )=      -0.011407   gamma___=       0.000000 meV   omega=     56.0093 meV
     lambda_tr(   3 )=      -0.013292   gamma_tr=       0.000000 meV   omega=     56.0093 meV
     lambda___(   4 )=      -0.007457   gamma___=       0.000000 meV   omega=     93.4838 meV
     lambda_tr(   4 )=      -0.005194   gamma_tr=       0.000000 meV   omega=     93.4838 meV
     lambda___(   5 )=      -0.007952   gamma___=       0.000000 meV   omega=     95.5196 meV
     lambda_tr(   5 )=      -0.010661   gamma_tr=       0.000000 meV   omega=     95.5196 meV
     lambda___(   6 )=      -0.008139   gamma___=       0.000000 meV   omega=    105.2861 meV
     lambda_tr(   6 )=      -0.007724   gamma_tr=       0.000000 meV   omega=    105.2861 meV
     lambda___( tot )=      -0.037396
     lambda_tr( tot )=      -0.042032
     -------------------------------------------------------------------


     Number of (k,k+q) pairs on the Fermi surface:      216 out of      216


     ismear =     1 iq =      36 coord.:   0.00000  0.83333  0.83333 wt:   0.00463 Temp: 2000.000K
     -------------------------------------------------------------------
     lambda___(   1 )=      -0.005685   gamma___=       0.000000 meV   omega=     21.5776 meV
     lambda_tr(   1 )=      -0.015693   gamma_tr=       0.000000 meV   omega=     21.5776 meV
     lambda___(   2 )=       0.005852   gamma___=      -0.000000 meV   omega=     22.8833 meV
     lambda_tr(   2 )=      -0.021321   gamma_tr=       0.000000 meV   omega=     22.8833 meV
     lambda___(   3 )=      -0.005531   gamma___=       0.000000 meV   omega=     34.3193 meV
     lambda_tr(   3 )=      -0.065314   gamma_tr=       0.000000 meV   omega=     34.3193 meV
     lambda___(   4 )=      -0.014005   gamma___=       0.000000 meV   omega=     95.2600 meV
     lambda_tr(   4 )=      -0.035276   gamma_tr=       0.000000 meV   omega=     95.2600 meV
     lambda___(   5 )=      -0.014827   gamma___=       0.000000 meV   omega=     95.5984 meV
     lambda_tr(   5 )=      -0.036097   gamma_tr=       0.000000 meV   omega=     95.5984 meV
     lambda___(   6 )=      -0.026332   gamma___=       0.000000 meV   omega=    102.3102 meV
     lambda_tr(   6 )=      -0.043539   gamma_tr=       0.000000 meV   omega=    102.3102 meV
     lambda___( tot )=      -0.060528
     lambda_tr( tot )=      -0.217241
     -------------------------------------------------------------------


     Number of (k,k+q) pairs on the Fermi surface:      216 out of      216


     ismear =     1 iq =      37 coord.:   0.16667  0.00000  0.00000 wt:   0.00463 Temp: 2000.000K
     -------------------------------------------------------------------
     lambda___(   1 )=       0.015194   gamma___=      -0.000000 meV   omega=     16.1597 meV
     lambda_tr(   1 )=      -0.042833   gamma_tr=       0.000000 meV   omega=     16.1597 meV
     lambda___(   2 )=       0.010370   gamma___=      -0.000000 meV   omega=     17.5333 meV
     lambda_tr(   2 )=      -0.031808   gamma_tr=       0.000000 meV   omega=     17.5333 meV
     lambda___(   3 )=      -0.011012   gamma___=       0.000000 meV   omega=     33.2111 meV
     lambda_tr(   3 )=      -0.080473   gamma_tr=       0.000000 meV   omega=     33.2111 meV
     lambda___(   4 )=      -0.011052   gamma___=       0.000000 meV   omega=     94.9937 meV
     lambda_tr(   4 )=      -0.020705   gamma_tr=       0.000000 meV   omega=     94.9937 meV
     lambda___(   5 )=      -0.011598   gamma___=       0.000000 meV   omega=     95.2106 meV
     lambda_tr(   5 )=      -0.030858   gamma_tr=       0.000000 meV   omega=     95.2106 meV
     lambda___(   6 )=      -0.016796   gamma___=       0.000000 meV   omega=    101.5165 meV
     lambda_tr(   6 )=      -0.031028   gamma_tr=       0.000000 meV   omega=    101.5165 meV
     lambda___( tot )=      -0.024894
     lambda_tr( tot )=      -0.237704
     -------------------------------------------------------------------


     Number of (k,k+q) pairs on the Fermi surface:      216 out of      216


     ismear =     1 iq =      38 coord.:   0.16667  0.00000  0.16667 wt:   0.00463 Temp: 2000.000K
[...]
      208        3     -9.6288    -33.5791    188.2135      1.0255     -0.0248
      209        3     -7.1697     86.9053    356.3763      1.1185     -0.1060
      210        3     -7.4531     58.0606    349.6559      1.1081     -0.0975
      211        3     -6.3678    169.4556    287.7395      1.0662     -0.0621
      212        3     -7.1697     86.9053    356.3763      1.1185     -0.1060
      213        3     -8.1603      5.2739    291.1716      1.0647     -0.0608
      214        3     -8.6402    -16.4297    244.0014      1.0424     -0.0407
      215        3     -7.4531     57.2469    351.5284      1.1096     -0.0988
      216        3     -5.7799    196.6701    179.9545      1.0165     -0.0162
  
        1        4     -5.5777    201.4556    145.3652      1.0011     -0.0011
        2        4     -5.7799    196.6701    179.9545      1.0165     -0.0162
        3        4     -6.4450    155.5661    292.1950      1.0723     -0.0674
        4        4     -6.9079    106.0293    331.0621      1.1075     -0.0970
        5        4     -6.4450    155.5658    292.1944      1.0723     -0.0674
        6        4     -5.7799    196.6695    179.9545      1.0165     -0.0162
        7        4     -5.7799    196.3048    182.8693      1.0180     -0.0177
        8        4     -6.3678    169.4554    287.7396      1.0662     -0.0621
        9        4     -6.9238    115.2192    346.8532      1.1126     -0.1012
       10        4     -7.4478     54.2217    332.3060      1.1022     -0.0927
       11        4     -6.6635    134.9456    317.7960      1.0922     -0.0844
       12        4     -5.7975    193.9382    184.5957      1.0198     -0.0194
       13        4     -6.4450    155.3350    293.8487      1.0726     -0.0677
       14        4     -6.9238    113.8945    349.2445      1.1135     -0.1020
       15        4     -8.2450     -2.3679    274.8076      1.0608     -0.0574
       16        4     -8.6599    -18.3105    224.2519      1.0385     -0.0371
       17        4     -7.8030     25.1542    313.8737      1.0781     -0.0724
       18        4     -6.6635    135.3406    321.8311      1.0939     -0.0858
       19        4     -6.9079    105.9275    330.3186      1.1075     -0.0970
       20        4     -7.4478     54.2579    335.8618      1.1039     -0.0942
       21        4     -8.6599    -16.7350    224.2470      1.0373     -0.0359
       22        4     -9.3321    -27.6810    173.2750      1.0158     -0.0155
       23        4     -8.6599    -16.7345    224.2478      1.0373     -0.0359
       24        4     -7.4478     54.2578    335.8615      1.1039     -0.0942
       25        4     -6.4450    155.3348    293.8481      1.0726     -0.0677
       26        4     -6.6635    135.3404    321.8305      1.0939     -0.0858
       27        4     -7.8030     25.1539    313.8724      1.0781     -0.0724
       28        4     -8.6599    -18.3104    224.2531      1.0385     -0.0371
       29        4     -8.2450     -2.3680    274.8080      1.0608     -0.0574
       30        4     -6.9238    113.8945    349.2438      1.1135     -0.1020
       31        4     -5.7799    196.3041    182.8681      1.0180     -0.0177
       32        4     -5.7975    193.9382    184.5949      1.0198     -0.0194
       33        4     -6.6635    134.9450    317.7968      1.0922     -0.0844
       34        4     -7.4478     54.2209    332.3054      1.1022     -0.0927
       35        4     -6.9238    115.2190    346.8536      1.1126     -0.1012
       36        4     -6.3678    169.4556    287.7395      1.0662     -0.0621
       37        4     -5.7799    196.6701    179.9545      1.0165     -0.0162
       38        4     -6.3678    169.4556    287.7396      1.0662     -0.0621
       39        4     -6.9238    114.1164    349.4989      1.1136     -0.1020
       40        4     -7.4478     52.6276    335.2528      1.1040     -0.0942
       41        4     -6.6635    136.1754    319.4145      1.0928     -0.0849
       42        4     -5.7975    194.3147    181.1496      1.0179     -0.0176
       43        4     -6.3678    169.4555    287.7396      1.0662     -0.0621
       44        4     -5.7799    196.6695    179.9545      1.0165     -0.0162
       45        4     -5.7975    194.3147    181.1496      1.0179     -0.0176
       46        4     -6.6635    136.1754    319.4142      1.0928     -0.0849
       47        4     -7.4478     52.6279    335.2519      1.1040     -0.0942
       48        4     -6.9238    114.1167    349.4983      1.1136     -0.1020
       49        4     -6.9238    113.8945    349.2445      1.1135     -0.1020
       50        4     -5.7975    193.9383    184.5957      1.0198     -0.0194
       51        4     -6.9238    114.1167    349.4983      1.1136     -0.1020
       52        4     -7.5355     48.0299    334.1435      1.0988     -0.0899
       53        4     -8.3086      0.2594    254.8572      1.0538     -0.0511
       54        4     -7.5355     47.4453    335.9793      1.0994     -0.0904
       55        4     -7.4478     54.2579    335.8618      1.1039     -0.0942
       56        4     -6.6635    135.3406    321.8310      1.0939     -0.0858
       57        4     -7.5355     47.4453    335.9793      1.0994     -0.0904
       58        4     -8.6599    -19.6429    221.4679      1.0370     -0.0357
       59        4     -9.4303    -20.2877    175.1940      1.0205     -0.0201
       60        4     -8.3086      1.0760    256.8391      1.0536     -0.0508
       61        4     -6.6635    135.3404    321.8305      1.0939     -0.0858
       62        4     -7.4478     54.2578    335.8615      1.1039     -0.0942
       63        4     -8.3086      1.0760    256.8391      1.0536     -0.0508
       64        4     -9.4303    -20.2879    175.1946      1.0205     -0.0201
       65        4     -8.6599    -19.6430    221.4671      1.0370     -0.0357
       66        4     -7.5355     47.4446    335.9780      1.0994     -0.0904
       67        4     -5.7975    193.9382    184.5949      1.0198     -0.0194
       68        4     -6.9238    113.8945    349.2437      1.1135     -0.1020
       69        4     -7.5355     47.4446    335.9779      1.0994     -0.0904
       70        4     -8.3086      0.2588    254.8559      1.0538     -0.0511
       71        4     -7.5355     48.0295    334.1441      1.0988     -0.0899
       72        4     -6.9238    114.1164    349.4989      1.1136     -0.1020
       73        4     -6.4450    155.5661    292.1950      1.0723     -0.0674
       74        4     -6.9238    114.1164    349.4989      1.1136     -0.1020
       75        4     -8.2450     -2.3680    274.8080      1.0608     -0.0574
       76        4     -8.6599    -19.6430    221.4671      1.0370     -0.0357
       77        4     -7.8030     25.3588    313.8190      1.0783     -0.0726
       78        4     -6.6635    136.1754    319.4142      1.0928     -0.0849
       79        4     -6.9238    115.2192    346.8532      1.1126     -0.1012
       80        4     -5.7975    194.3147    181.1496      1.0179     -0.0176
       81        4     -6.9238    115.2190    346.8537      1.1126     -0.1012
       82        4     -7.5355     48.0295    334.1441      1.0988     -0.0899
       83        4     -8.3086     -1.0634    254.0960      1.0541     -0.0514
       84        4     -7.5355     48.0299    334.1435      1.0988     -0.0899
       85        4     -8.2450     -2.3679    274.8076      1.0608     -0.0574
       86        4     -6.9238    114.1167    349.4983      1.1136     -0.1020
       87        4     -6.4450    155.5658    292.1944      1.0723     -0.0674
       88        4     -6.6635    136.1754    319.4145      1.0928     -0.0849
       89        4     -7.8030     25.3588    313.8190      1.0783     -0.0726
       90        4     -8.6599    -19.6429    221.4678      1.0370     -0.0357
       91        4     -8.6599    -16.7349    224.2470      1.0373     -0.0359
       92        4     -7.5355     47.4453    335.9793      1.0994     -0.0904
       93        4     -6.6635    134.9456    317.7960      1.0922     -0.0844
       94        4     -7.4478     52.6279    335.2519      1.1040     -0.0942
       95        4     -8.3086     -1.0634    254.0960      1.0541     -0.0514
       96        4     -9.4303    -20.2878    175.1946      1.0205     -0.0201
       97        4     -7.8030     25.1539    313.8724      1.0781     -0.0724
       98        4     -8.3086      1.0760    256.8391      1.0536     -0.0508
       99        4     -7.8030     25.1542    313.8737      1.0781     -0.0724
      100        4     -8.3086      0.2594    254.8572      1.0538     -0.0511
      101        4     -7.8030     25.3588    313.8190      1.0783     -0.0726
      102        4     -8.3086      0.2588    254.8559      1.0538     -0.0511
      103        4     -6.6635    134.9451    317.7968      1.0922     -0.0844
      104        4     -7.5355     47.4446    335.9780      1.0994     -0.0904
      105        4     -8.6599    -16.7345    224.2478      1.0373     -0.0359
      106        4     -9.4303    -20.2877    175.1940      1.0205     -0.0201
      107        4     -8.3086     -1.0634    254.0960      1.0541     -0.0514
      108        4     -7.4478     52.6276    335.2529      1.1040     -0.0942
      109        4     -6.9079    106.0293    331.0621      1.1075     -0.0970
      110        4     -7.4478     52.6276    335.2529      1.1040     -0.0942
      111        4     -8.6599    -19.6430    221.4671      1.0370     -0.0357
      112        4     -9.3321    -27.6810    173.2750      1.0158     -0.0155
      113        4     -8.6599    -19.6429    221.4679      1.0370     -0.0357
      114        4     -7.4478     52.6279    335.2519      1.1040     -0.0942
      115        4     -7.4478     54.2217    332.3060      1.1022     -0.0927
      116        4     -6.6635    136.1754    319.4142      1.0928     -0.0849
      117        4     -7.5355     48.0295    334.1440      1.0988     -0.0899
      118        4     -8.6599    -18.3104    224.2531      1.0385     -0.0371
      119        4     -9.4303    -20.2879    175.1946      1.0205     -0.0201
      120        4     -8.3086      0.2594    254.8572      1.0538     -0.0511
      121        4     -8.6599    -18.3105    224.2519      1.0385     -0.0371
      122        4     -7.5355     48.0299    334.1435      1.0988     -0.0899
      123        4     -6.6635    136.1754    319.4145      1.0928     -0.0849
      124        4     -7.4478     54.2209    332.3054      1.1022     -0.0927
      125        4     -8.3086      0.2588    254.8559      1.0538     -0.0511
      126        4     -9.4303    -20.2877    175.1940      1.0205     -0.0201
      127        4     -9.3321    -27.6810    173.2750      1.0158     -0.0155
      128        4     -8.6599    -19.6429    221.4679      1.0370     -0.0357
      129        4     -7.4478     52.6279    335.2519      1.1040     -0.0942
      130        4     -6.9079    106.0293    331.0621      1.1075     -0.0970
      131        4     -7.4478     52.6276    335.2529      1.1040     -0.0942
      132        4     -8.6599    -19.6430    221.4671      1.0370     -0.0357
      133        4     -8.6599    -18.3104    224.2531      1.0385     -0.0371
      134        4     -9.4303    -20.2879    175.1946      1.0205     -0.0201
      135        4     -8.3086      0.2594    254.8572      1.0538     -0.0511
      136        4     -7.4478     54.2217    332.3060      1.1022     -0.0927
      137        4     -6.6635    136.1754    319.4142      1.0928     -0.0849
      138        4     -7.5355     48.0295    334.1441      1.0988     -0.0899
      139        4     -7.4478     54.2209    332.3054      1.1022     -0.0927
      140        4     -8.3086      0.2588    254.8559      1.0538     -0.0511
      141        4     -9.4303    -20.2877    175.1940      1.0205     -0.0201
      142        4     -8.6599    -18.3105    224.2519      1.0385     -0.0371
      143        4     -7.5355     48.0299    334.1435      1.0988     -0.0899
      144        4     -6.6635    136.1754    319.4145      1.0928     -0.0849
      145        4     -6.4450    155.5658    292.1944      1.0723     -0.0674
      146        4     -6.6635    136.1754    319.4145      1.0928     -0.0849
      147        4     -7.8030     25.3588    313.8190      1.0783     -0.0726
      148        4     -8.6599    -19.6429    221.4679      1.0370     -0.0357
      149        4     -8.2450     -2.3679    274.8076      1.0608     -0.0574
      150        4     -6.9238    114.1167    349.4984      1.1136     -0.1020
      151        4     -6.6635    134.9456    317.7960      1.0922     -0.0844
      152        4     -7.4478     52.6279    335.2519      1.1040     -0.0942
      153        4     -8.3086     -1.0634    254.0960      1.0541     -0.0514
      154        4     -9.4303    -20.2879    175.1946      1.0205     -0.0201
      155        4     -8.6599    -16.7349    224.2470      1.0373     -0.0359
      156        4     -7.5355     47.4453    335.9793      1.0994     -0.0904
      157        4     -7.8030     25.1542    313.8737      1.0781     -0.0724
      158        4     -8.3086      0.2594    254.8572      1.0538     -0.0511
      159        4     -7.8030     25.3588    313.8190      1.0783     -0.0726
      160        4     -8.3086      0.2588    254.8559      1.0538     -0.0511
      161        4     -7.8030     25.1539    313.8724      1.0781     -0.0724
      162        4     -8.3086      1.0760    256.8391      1.0536     -0.0508
      163        4     -8.6599    -16.7345    224.2478      1.0373     -0.0359
      164        4     -9.4303    -20.2877    175.1940      1.0205     -0.0201
      165        4     -8.3086     -1.0634    254.0960      1.0541     -0.0514
      166        4     -7.4478     52.6276    335.2529      1.1040     -0.0942
      167        4     -6.6635    134.9450    317.7968      1.0922     -0.0844
      168        4     -7.5355     47.4446    335.9780      1.0994     -0.0904
      169        4     -8.2450     -2.3680    274.8080      1.0608     -0.0574
      170        4     -8.6599    -19.6430    221.4671      1.0370     -0.0357
      171        4     -7.8030     25.3588    313.8190      1.0783     -0.0726
      172        4     -6.6635    136.1754    319.4142      1.0928     -0.0849
      173        4     -6.4450    155.5661    292.1950      1.0723     -0.0674
      174        4     -6.9238    114.1165    349.4989      1.1136     -0.1020
      175        4     -6.9238    115.2190    346.8537      1.1126     -0.1012
      176        4     -7.5355     48.0295    334.1441      1.0988     -0.0899
      177        4     -8.3086     -1.0634    254.0960      1.0541     -0.0514
      178        4     -7.5355     48.0299    334.1435      1.0988     -0.0899
      179        4     -6.9238    115.2192    346.8532      1.1126     -0.1012
      180        4     -5.7975    194.3147    181.1496      1.0179     -0.0176
      181        4     -5.7799    196.6695    179.9545      1.0165     -0.0162
      182        4     -5.7975    194.3147    181.1496      1.0179     -0.0176
      183        4     -6.6635    136.1754    319.4142      1.0928     -0.0849
      184        4     -7.4478     52.6279    335.2519      1.1040     -0.0942
      185        4     -6.9238    114.1167    349.4983      1.1136     -0.1020
      186        4     -6.3678    169.4555    287.7396      1.0662     -0.0621
      187        4     -5.7975    193.9382    184.5957      1.0198     -0.0194
      188        4     -6.9238    114.1167    349.4983      1.1136     -0.1020
      189        4     -7.5355     48.0299    334.1435      1.0988     -0.0899
      190        4     -8.3086      0.2594    254.8572      1.0538     -0.0511
      191        4     -7.5355     47.4453    335.9793      1.0994     -0.0904
      192        4     -6.9238    113.8945    349.2445      1.1135     -0.1020
      193        4     -6.6635    135.3406    321.8311      1.0939     -0.0858
      194        4     -7.5355     47.4453    335.9793      1.0994     -0.0904
      195        4     -8.6599    -19.6429    221.4678      1.0370     -0.0357
      196        4     -9.4303    -20.2877    175.1940      1.0205     -0.0201
      197        4     -8.3086      1.0760    256.8391      1.0536     -0.0508
      198        4     -7.4478     54.2579    335.8618      1.1039     -0.0942
      199        4     -7.4478     54.2578    335.8615      1.1039     -0.0942
      200        4     -8.3086      1.0760    256.8391      1.0536     -0.0508
      201        4     -9.4303    -20.2878    175.1946      1.0205     -0.0201
      202        4     -8.6599    -19.6430    221.4671      1.0370     -0.0357
      203        4     -7.5355     47.4446    335.9780      1.0994     -0.0904
      204        4     -6.6635    135.3404    321.8305      1.0939     -0.0858
      205        4     -6.9238    113.8945    349.2437      1.1135     -0.1020
      206        4     -7.5355     47.4446    335.9779      1.0994     -0.0904
      207        4     -8.3086      0.2588    254.8559      1.0538     -0.0511
      208        4     -7.5355     48.0295    334.1441      1.0988     -0.0899
      209        4     -6.9238    114.1165    349.4989      1.1136     -0.1020
      210        4     -5.7975    193.9383    184.5949      1.0198     -0.0194
      211        4     -6.3678    169.4556    287.7395      1.0662     -0.0621
      212        4     -6.9238    114.1164    349.4989      1.1136     -0.1020
      213        4     -7.4478     52.6276    335.2528      1.1040     -0.0942
      214        4     -6.6635    136.1754    319.4145      1.0928     -0.0849
      215        4     -5.7975    194.3147    181.1496      1.0179     -0.0176
      216        4     -5.7799    196.6701    179.9545      1.0165     -0.0162
  
     ===================================================================
     Memory usage:  VmHWM =        36Mb
                   VmPeak =       368Mb
     ===================================================================


     ===================================================================
     Eliashberg Spectral Function in the Migdal Approximation
     ===================================================================

     lambda :    0.0014256
     lambda_tr :    0.0049097
 
     Estimated Allen-Dynes Tc
 
     logavg =    0.0012614 l_a2f =    0.0013530
     a2F          :      0.10s CPU      0.10s WALL (       1 calls)

     Unfolding on the coarse grid
     elphon_wrap  :     22.33s CPU     22.53s WALL (       1 calls)

     INITIALIZATION: 

     init_vloc    :      0.00s CPU      0.00s WALL (       1 calls)
     init_us_1    :      0.03s CPU      0.03s WALL (       2 calls)



     Electron-Phonon interpolation
     ephwann      :      1.65s CPU      1.76s WALL (       1 calls)
     ep-interp    :      1.46s CPU      1.56s WALL (     216 calls)
     PH SELF-ENER :      0.12s CPU      0.12s WALL (     216 calls)

     Ham: step 1  :      0.00s CPU      0.00s WALL (       1 calls)
     Ham: step 2  :      0.00s CPU      0.00s WALL (       1 calls)
     ep: step 1   :      0.00s CPU      0.00s WALL (     162 calls)
     ep: step 2   :      1.61s CPU      1.73s WALL (       1 calls)
     DynW2B       :      0.00s CPU      0.00s WALL (     216 calls)
     HamW2B       :      0.42s CPU      0.46s WALL (   93960 calls)
     ephW2Bp      :      0.10s CPU      0.11s WALL (     216 calls)
     ephW2B       :      0.20s CPU      0.22s WALL (   46656 calls)


     Total program execution
     EPW          :     27.13s CPU     27.45s WALL

     ===============================================================================
     The functionality-dependent EPW.bib file was created with suggested citations. 
     Please consider citing the papers listed in EPW.bib.                           
     ===============================================================================
                                                                                    
