                                                                                      
                                       ``:oss/                                        
                           `.+s+.     .+ys--yh+     `./ss+.                           
                          -sh//yy+`   +yy   +yy    -+h+-oyy                           
                          -yh- .oyy/.-sh.   .syo-.:sy-  /yh                           
                 `.-.`    `yh+   -oyyyo.     `/syys:    oys      `.`                  
               `/+ssys+-` `sh+      `                   oys`   .:osyo`                
               -yh- ./syyooyo`                          .sys+/oyo--yh/                
               `yy+    .-:-.                             `-/+/:`  -sh-                
                /yh.                                              oys                 
          ``..---hho---------`   .---------..`      `.-----.`    -hd+---.             
       `./osmNMMMMMMMMMMMMMMMs. +NNMMMMMMMMNNmh+.   yNMMMMMNm-  oNMMMMMNmo++:`        
       +sy--/sdMMMhyyyyyyyNMMh- .oyNMMmyyyyyhNMMm+` -yMMMdyyo:` .oyyNMMNhs+syy`       
       -yy/   /MMM+.`-+/``mMMy-   `mMMh:`````.dMMN:` `MMMy-`-dhhy```mMMy:``+hs        
        -yy+` /MMMo:-mMM+`-oo/.    mMMh:     `dMMN/`  dMMm:`dMMMMy..MMMo-.+yo`        
         .sys`/MMMMNNMMMs-         mMMmyooooymMMNo:   oMMM/sMMMMMM++MMN//oh:          
          `sh+/MMMhyyMMMs- `-`     mMMMMMMMMMNmy+-`   -MMMhMMMsmMMmdMMd/yy+           
    `-/+++oyy-/MMM+.`/hh/.`mNm:`   mMMd+/////:-.`      NMMMMMd/:NMMMMMy:/yyo/:.`      
   +os+//:-..-oMMMo:--:::-/MMMo. .-mMMd+---`           hMMMMN+. oMMMMMo. `-+osyso:`   
   syo     `mNMMMMMNNNNNNNNMMMo.oNNMMMMMNNNN:`         +MMMMs:`  dMMMN/`     ``:syo   
   /yh`     :syyyyyyyyyyyyyyyy+.`+syyyyyyyyo:`         .oyys:`   .oyys:`        +yh   
   -yh-        ````````````````    `````````              ``        ``          oys   
   -+h/------------------------::::::::://////++++++++++++++++++++++///////::::/yd:   
   shdddddddddddddddddddddddddddddhhhhhhhhyyyyyssssssssssssssssyyyyyyyhhhhhhhddddh`   
                                                                                      
  S. Ponce, E. R. Margine, C. Verdi, and F. Giustino,                                 
                                                Comput. Phys. Commun. 209, 116 (2016) 
                                                                                      

     Program EPW v.5.2.0 starts on  9Jul2020 at 19: 7:34 

     This program is part of the open-source Quantum ESPRESSO suite
     for quantum simulation of materials; please cite
         "P. Giannozzi et al., J. Phys.:Condens. Matter 21 395502 (2009);
         "P. Giannozzi et al., J. Phys.:Condens. Matter 29 465901 (2017);
          URL http://www.quantum-espresso.org", 
     in publications or presentations arising from this work. More details at
     http://www.quantum-espresso.org/quote

     Parallel version (MPI), running on     4 processors

     MPI processes distributed on     1 nodes
     K-points division:     npool     =       4
     Fft bands division:     nmany     =       1

     Reading xml data from directory:

     ./sic.save/
     file C.UPF: wavefunction(s)  3d renormalized

     IMPORTANT: XC functional enforced from input :
     Exchange-correlation= PZ
                           (   1   1   0   0   0   0   0)
     Any further DFT definition will be discarded
     Please, verify this is what you really want

 
     G-vector sticks info
     --------------------
     sticks:   dense  smooth     PW     G-vecs:    dense   smooth      PW
     Sum         559     559    187                 8801     8801    1591
 
     Reading collected, re-writing distributed wavefunctions

Possibly too few bands at point    1   0.00000   0.00000   0.00000

Possibly too few bands at point    2  -0.33333   0.33333  -0.33333

Possibly too few bands at point    3  -0.66667   0.66667  -0.66667

Possibly too few bands at point    4   0.33333   0.33333   0.33333

Possibly too few bands at point    5   0.00000   0.66667   0.00000

Possibly too few bands at point    6  -0.33333   1.00000  -0.33333

Possibly too few bands at point    7   0.66667   0.66667   0.66667

     --                                                                         

     bravais-lattice index     =            2
     lattice parameter (a_0)   =       8.2370  a.u.
     unit-cell volume          =     139.7163 (a.u.)^3
     number of atoms/cell      =            2
     number of atomic types    =            2
     kinetic-energy cut-off    =      60.0000  Ry
     charge density cut-off    =     240.0000  Ry
     Exchange-correlation= PZ
                           (   1   1   0   0   0   0   0)


     celldm(1)=    8.23700  celldm(2)=    0.00000  celldm(3)=    0.00000
     celldm(4)=    0.00000  celldm(5)=    0.00000  celldm(6)=    0.00000

     crystal axes: (cart. coord. in units of a_0)
               a(1) = ( -0.5000  0.0000  0.5000 )  
               a(2) = (  0.0000  0.5000  0.5000 )  
               a(3) = ( -0.5000  0.5000  0.0000 )  

     reciprocal axes: (cart. coord. in units 2 pi/a_0)
               b(1) = ( -1.0000 -1.0000  1.0000 )  
               b(2) = (  1.0000  1.0000  1.0000 )  
               b(3) = ( -1.0000  1.0000 -1.0000 )  


     Atoms inside the unit cell: 

   Cartesian axes

     site n.  atom      mass           positions (a_0 units)
        1        Si  28.0855   tau( 1) = (    0.00000    0.00000    0.00000  )
        2        C   12.0108   tau( 2) = (    0.25000    0.25000    0.25000  )
 
     25 Sym.Ops. (with q -> -q+G )


     G cutoff =  412.4674  (   8801 G-vectors)     FFT grid: ( 30, 30, 30)
     number of k points=   27  gaussian broad. (Ry)=  0.0200     ngauss =   1
                       cart. coord. in units 2pi/a_0
        k(    1) = (   0.0000000   0.0000000   0.0000000), wk =   0.0740741
        k(    2) = (  -0.3333333   0.3333333  -0.3333333), wk =   0.0740741
        k(    3) = (  -0.6666667   0.6666667  -0.6666667), wk =   0.0740741
        k(    4) = (   0.3333333   0.3333333   0.3333333), wk =   0.0740741
        k(    5) = (   0.0000000   0.6666667   0.0000000), wk =   0.0740741
        k(    6) = (  -0.3333333   1.0000000  -0.3333333), wk =   0.0740741
        k(    7) = (   0.6666667   0.6666667   0.6666667), wk =   0.0740741
        k(    8) = (   0.3333333   1.0000000   0.3333333), wk =   0.0740741
        k(    9) = (   0.0000000   1.3333333   0.0000000), wk =   0.0740741
        k(   10) = (  -0.3333333  -0.3333333   0.3333333), wk =   0.0740741
        k(   11) = (  -0.6666667   0.0000000   0.0000000), wk =   0.0740741
        k(   12) = (  -1.0000000   0.3333333  -0.3333333), wk =   0.0740741
        k(   13) = (   0.0000000   0.0000000   0.6666667), wk =   0.0740741
        k(   14) = (  -0.3333333   0.3333333   0.3333333), wk =   0.0740741
        k(   15) = (  -0.6666667   0.6666667  -0.0000000), wk =   0.0740741
        k(   16) = (   0.3333333   0.3333333   1.0000000), wk =   0.0740741
        k(   17) = (   0.0000000   0.6666667   0.6666667), wk =   0.0740741
        k(   18) = (  -0.3333333   1.0000000   0.3333333), wk =   0.0740741
        k(   19) = (  -0.6666667  -0.6666667   0.6666667), wk =   0.0740741
        k(   20) = (  -1.0000000  -0.3333333   0.3333333), wk =   0.0740741
        k(   21) = (  -1.3333333   0.0000000   0.0000000), wk =   0.0740741
        k(   22) = (  -0.3333333  -0.3333333   1.0000000), wk =   0.0740741
        k(   23) = (  -0.6666667  -0.0000000   0.6666667), wk =   0.0740741
        k(   24) = (  -1.0000000   0.3333333   0.3333333), wk =   0.0740741
        k(   25) = (   0.0000000   0.0000000   1.3333333), wk =   0.0740741
        k(   26) = (  -0.3333333   0.3333333   1.0000000), wk =   0.0740741
        k(   27) = (  -0.6666667   0.6666667   0.6666667), wk =   0.0740741

     PseudoPot. # 1 for Si read from file:
     ../../pseudo/Si.pz-vbc.UPF
     MD5 check sum: 9f25e6ff280f3123e9b3a84715b2e9c9
     Pseudo is Norm-conserving, Zval =  4.0
     Generated by new atomic code, or converted to UPF format
     Using radial grid of  431 points,  2 beta functions with: 
                l(1) =   0
                l(2) =   1

     PseudoPot. # 2 for C  read from file:
     ../../pseudo/C.UPF
     MD5 check sum: 4781e8ce5ee01a432381f51d0ea25c53
     Pseudo is Norm-conserving, Zval =  4.0
     Generated by new atomic code, or converted to UPF format
     Using radial grid of  461 points,  2 beta functions with: 
                l(1) =   0
                l(2) =   1
     EPW          :      0.09s CPU      0.14s WALL

     EPW          :      0.12s CPU      0.17s WALL

     -------------------------------------------------------------------
     Wannierization on  3 x  3 x  3 electronic grid
     -------------------------------------------------------------------
 
     Spin CASE ( default = unpolarized )
 
     Initializing Wannier90
 
 
     Initial Wannier projections
 
     (   0.00000   0.00000   0.00000) :  l =  -3 mr =   1
     (   0.00000   0.00000   0.00000) :  l =  -3 mr =   2
     (   0.00000   0.00000   0.00000) :  l =  -3 mr =   3
     (   0.00000   0.00000   0.00000) :  l =  -3 mr =   4

      - Number of bands is (  4)
      - Number of total bands is (  4)
      - Number of excluded bands is (  0)
      - Number of wannier functions is (  4)
      - All guiding functions are given 
 
  Reading data about k-point neighbours 
 
      - All neighbours are found 
 
     AMN
      k points =    27 in    4 pools
            1 of    7 on ionode
            2 of    7 on ionode
            3 of    7 on ionode
            4 of    7 on ionode
            5 of    7 on ionode
            6 of    7 on ionode
            7 of    7 on ionode
 
     AMN calculated
 
     MMN
      k points =    27 in    4 pools
            1 of    7 on ionode
            2 of    7 on ionode
            3 of    7 on ionode
            4 of    7 on ionode
            5 of    7 on ionode
            6 of    7 on ionode
            7 of    7 on ionode
     MMN calculated
 
     Running Wannier90
 
     Wannier Function centers (cartesian, alat) and spreads (ang):
 
     (   0.16147   0.16147   0.16147) :   0.87894
     (   0.16147  -0.16147  -0.16147) :   0.87894
     (  -0.16147   0.16147  -0.16147) :   0.87894
     (  -0.16147  -0.16147   0.16147) :   0.87894
 
     -------------------------------------------------------------------
     WANNIER      :      0.56s CPU      0.71s WALL (       1 calls)
     -------------------------------------------------------------------

     Dipole matrix elements calculated
 

     Calculating kgmap

     Progress kgmap: ########################################
     kmaps        :      0.03s CPU      0.15s WALL (       1 calls)
     Symmetries of Bravais lattice:  48
     Symmetries of crystal:          24


     ===================================================================
     irreducible q point #    1
     ===================================================================

     Symmetries of small group of q: 24
          in addition sym. q -> -q+G:
 
     Number of q in the star =    1
     List of q in the star:
          1   0.000000000   0.000000000   0.000000000
     Imposing acoustic sum rule on the dynamical matrix
 
        q(    1 ) = (   0.0000000   0.0000000   0.0000000 )


     ===================================================================
     irreducible q point #    2
     ===================================================================

     Symmetries of small group of q:  6
 
     Number of q in the star =    4
     List of q in the star:
          1  -0.333333333   0.333333333  -0.333333333
          2   0.333333333   0.333333333   0.333333333
          3   0.333333333  -0.333333333  -0.333333333
          4  -0.333333333  -0.333333333   0.333333333
     In addition there is the -q list: 
          1   0.333333333  -0.333333333   0.333333333
          2  -0.333333333  -0.333333333  -0.333333333
          3  -0.333333333   0.333333333   0.333333333
          4   0.333333333   0.333333333  -0.333333333
 
        q(    2 ) = (  -0.3333333   0.3333333  -0.3333333 )
 
        q(    3 ) = (   0.3333333  -0.3333333   0.3333333 )
        q(    4 ) = (   0.3333333   0.3333333   0.3333333 )
        q(    5 ) = (  -0.3333333  -0.3333333  -0.3333333 )
        q(    6 ) = (   0.3333333  -0.3333333  -0.3333333 )
        q(    7 ) = (  -0.3333333   0.3333333   0.3333333 )
        q(    8 ) = (  -0.3333333  -0.3333333   0.3333333 )
        q(    9 ) = (   0.3333333   0.3333333  -0.3333333 )


     ===================================================================
     irreducible q point #    3
     ===================================================================

     Symmetries of small group of q:  4
 
     Number of q in the star =    6
     List of q in the star:
          1   0.000000000   0.666666667   0.000000000
          2   0.000000000   0.000000000  -0.666666667
          3  -0.666666667   0.000000000   0.000000000
          4   0.666666667   0.000000000   0.000000000
          5   0.000000000  -0.666666667   0.000000000
          6   0.000000000   0.000000000   0.666666667
 
        q(   10 ) = (   0.0000000   0.6666667   0.0000000 )
        q(   11 ) = (   0.0000000   0.0000000  -0.6666667 )
        q(   12 ) = (  -0.6666667   0.0000000   0.0000000 )
        q(   13 ) = (   0.6666667   0.0000000   0.0000000 )
        q(   14 ) = (   0.0000000  -0.6666667   0.0000000 )
        q(   15 ) = (   0.0000000   0.0000000   0.6666667 )


     ===================================================================
     irreducible q point #    4
     ===================================================================

     Symmetries of small group of q:  2
 
     Number of q in the star =   12
     List of q in the star:
          1   0.666666667   0.000000000   0.666666667
          2  -0.666666667   0.000000000  -0.666666667
          3   0.666666667  -0.666666667   0.000000000
          4   0.000000000  -0.666666667   0.666666667
          5   0.000000000  -0.666666667  -0.666666667
          6  -0.666666667   0.000000000   0.666666667
          7   0.666666667   0.666666667   0.000000000
          8  -0.666666667  -0.666666667   0.000000000
          9  -0.666666667   0.666666667   0.000000000
         10   0.666666667   0.000000000  -0.666666667
         11   0.000000000   0.666666667   0.666666667
         12   0.000000000   0.666666667  -0.666666667
 
        q(   16 ) = (   0.6666667   0.0000000   0.6666667 )
        q(   17 ) = (  -0.6666667   0.0000000  -0.6666667 )
        q(   18 ) = (   0.6666667  -0.6666667   0.0000000 )
        q(   19 ) = (   0.0000000  -0.6666667   0.6666667 )
        q(   20 ) = (  -0.0000000  -0.6666667  -0.6666667 )
        q(   21 ) = (  -0.6666667   0.0000000   0.6666667 )
        q(   22 ) = (   0.6666667   0.6666667   0.0000000 )
        q(   23 ) = (  -0.6666667  -0.6666667   0.0000000 )
        q(   24 ) = (  -0.6666667   0.6666667   0.0000000 )
        q(   25 ) = (   0.6666667   0.0000000  -0.6666667 )
        q(   26 ) = (   0.0000000   0.6666667   0.6666667 )
        q(   27 ) = (   0.0000000   0.6666667  -0.6666667 )

     Writing epmatq on .epb files


     The .epb files have been correctly written

     Use zone-centred Wigner-Seitz cells 
     Number of WS vectors for electrons       43
     Number of WS vectors for phonons       43
     Number of WS vectors for electron-phonon       43
     Maximum number of cores for efficient parallelization      258
     Results may improve by using use_ws == .TRUE. 
 
     Bloch2wane:          1 /         27
     Bloch2wane:          2 /         27
     Bloch2wane:          3 /         27
     Bloch2wane:          4 /         27
     Bloch2wane:          5 /         27
     Bloch2wane:          6 /         27
     Bloch2wane:          7 /         27
     Bloch2wane:          8 /         27
     Bloch2wane:          9 /         27
     Bloch2wane:         10 /         27
     Bloch2wane:         11 /         27
     Bloch2wane:         12 /         27
     Bloch2wane:         13 /         27
     Bloch2wane:         14 /         27
     Bloch2wane:         15 /         27
     Bloch2wane:         16 /         27
     Bloch2wane:         17 /         27
     Bloch2wane:         18 /         27
     Bloch2wane:         19 /         27
     Bloch2wane:         20 /         27
     Bloch2wane:         21 /         27
     Bloch2wane:         22 /         27
     Bloch2wane:         23 /         27
     Bloch2wane:         24 /         27
     Bloch2wane:         25 /         27
     Bloch2wane:         26 /         27
     Bloch2wane:         27 /         27
 
     Bloch2wanp:          1 /         11
     Bloch2wanp:          2 /         11
     Bloch2wanp:          3 /         11
     Bloch2wanp:          4 /         11
     Bloch2wanp:          5 /         11
     Bloch2wanp:          6 /         11
     Bloch2wanp:          7 /         11
     Bloch2wanp:          8 /         11
     Bloch2wanp:          9 /         11
     Bloch2wanp:         10 /         11
     Bloch2wanp:         11 /         11

     Writing Hamiltonian, Dynamical matrix and EP vertex in Wann rep to file

     ===================================================================
     Memory usage:  VmHWM =        99Mb
                   VmPeak =       452Mb
     ===================================================================
     
     Using uniform q-mesh:    6   6   6
     Size of q point mesh for interpolation:        216
     Using uniform k-mesh:    6   6   6
     Size of k point mesh for interpolation:        432
     Max number of k points per pool:              108

     Fermi energy coarse grid =   9.635391 eV

     Fermi energy is calculated from the fine k-mesh: Ef =   9.805464 eV

     ===================================================================

              ibndmin =     1  ebndmin =    -0.336
              ibndmax =     4  ebndmax =     0.691


     Number of ep-matrix elements per pool :         5184 ~=   40.50 Kb (@ 8 bytes/ DP)
     Number selected, total            100            100
     Number selected, total            200            200
     We only need to compute      216 q-points
      

     ===================================================================
     Phonon (Imaginary) Self-Energy in the Migdal Approximation
     ===================================================================


     Fermi Surface thickness =  15.000000 eV

     Golden Rule strictly enforced with T =   0.172347 eV
     Gaussian Broadening:   1.000000 eV, ngauss=   1
     DOS =  0.046846 states/spin/eV/Unit Cell at Ef=  9.805464 eV

     ismear =     1 iq =       1 coord.:   0.00000  0.00000  0.00000 wt:   0.00463
     -------------------------------------------------------------------
     lambda___(   1 )=       0.000000   gamma___=       0.000000 meV   omega=      0.0000 meV
     lambda_tr(   1 )=       0.000000   gamma_tr=       0.000000 meV   omega=      0.0000 meV
     lambda___(   2 )=       0.000000   gamma___=       0.000000 meV   omega=      0.0000 meV
     lambda_tr(   2 )=       0.000000   gamma_tr=       0.000000 meV   omega=      0.0000 meV
     lambda___(   3 )=       0.000000   gamma___=       0.000000 meV   omega=      0.0000 meV
     lambda_tr(   3 )=       0.000000   gamma_tr=       0.000000 meV   omega=      0.0000 meV
     lambda___(   4 )=       0.006036   gamma___=       0.007898 meV   omega=     94.2966 meV
     lambda_tr(   4 )=       0.025732   gamma_tr=       0.033673 meV   omega=     94.2966 meV
     lambda___(   5 )=       0.006036   gamma___=       0.007898 meV   omega=     94.2966 meV
     lambda_tr(   5 )=       0.025732   gamma_tr=       0.033673 meV   omega=     94.2966 meV
     lambda___(   6 )=       0.006036   gamma___=       0.007898 meV   omega=     94.2966 meV
     lambda_tr(   6 )=       0.025732   gamma_tr=       0.033673 meV   omega=     94.2966 meV
     lambda___( tot )=       0.018107
     lambda_tr( tot )=       0.077195
     -------------------------------------------------------------------


     Number of (k,k+q) pairs on the Fermi surface:      216 out of      216


     ===================================================================
     Electron (Imaginary) Self-Energy in the Migdal Approximation
     ===================================================================


     Fermi Surface thickness =  15.000000 eV

     Golden Rule strictly enforced with T =   0.172347 eV
     Gaussian Broadening:   1.000000 eV, ngauss=   1
 

     ismear =     1 iq =       2 coord.:   0.00000  0.00000  0.16667 wt:   0.00463
     -------------------------------------------------------------------
     lambda___(   1 )=      -0.048007   gamma___=      -0.001843 meV   omega=     16.1514 meV
     lambda_tr(   1 )=       0.183489   gamma_tr=       0.007045 meV   omega=     16.1514 meV
     lambda___(   2 )=      -0.030173   gamma___=      -0.001370 meV   omega=     17.5657 meV
     lambda_tr(   2 )=       0.108499   gamma_tr=       0.004927 meV   omega=     17.5657 meV
     lambda___(   3 )=       0.037731   gamma___=       0.006061 meV   omega=     33.0363 meV
     lambda_tr(   3 )=       0.247930   gamma_tr=       0.039823 meV   omega=     33.0363 meV
     lambda___(   4 )=       0.036004   gamma___=       0.047011 meV   omega=     94.1914 meV
     lambda_tr(   4 )=       0.078983   gamma_tr=       0.103128 meV   omega=     94.1914 meV
     lambda___(   5 )=       0.037788   gamma___=       0.049576 meV   omega=     94.4169 meV
     lambda_tr(   5 )=       0.087046   gamma_tr=       0.114201 meV   omega=     94.4169 meV
     lambda___(   6 )=       0.054485   gamma___=       0.081621 meV   omega=    100.8909 meV
     lambda_tr(   6 )=       0.091132   gamma_tr=       0.136520 meV   omega=    100.8909 meV
     lambda___( tot )=       0.087828
     lambda_tr( tot )=       0.797078
     -------------------------------------------------------------------


     Number of (k,k+q) pairs on the Fermi surface:      216 out of      216


     ismear =     1 iq =       3 coord.:   0.00000  0.00000  0.33333 wt:   0.00463
     -------------------------------------------------------------------
     lambda___(   1 )=       0.008337   gamma___=       0.001023 meV   omega=     28.8770 meV
     lambda_tr(   1 )=       0.024877   gamma_tr=       0.003053 meV   omega=     28.8770 meV
     lambda___(   2 )=       0.008337   gamma___=       0.001023 meV   omega=     28.8770 meV
     lambda_tr(   2 )=       0.024877   gamma_tr=       0.003053 meV   omega=     28.8770 meV
     lambda___(   3 )=       0.067495   gamma___=       0.038044 meV   omega=     61.8865 meV
     lambda_tr(   3 )=       0.093452   gamma_tr=       0.052675 meV   omega=     61.8865 meV
     lambda___(   4 )=       0.039206   gamma___=       0.049773 meV   omega=     92.8770 meV
     lambda_tr(   4 )=       0.048016   gamma_tr=       0.060957 meV   omega=     92.8770 meV
     lambda___(   5 )=       0.039206   gamma___=       0.049773 meV   omega=     92.8770 meV
     lambda_tr(   5 )=       0.048016   gamma_tr=       0.060957 meV   omega=     92.8770 meV
     lambda___(   6 )=       0.053432   gamma___=       0.091178 meV   omega=    107.6793 meV
     lambda_tr(   6 )=       0.059731   gamma_tr=       0.101927 meV   omega=    107.6793 meV
     lambda___( tot )=       0.216015
     lambda_tr( tot )=       0.298970
     -------------------------------------------------------------------


     Number of (k,k+q) pairs on the Fermi surface:      216 out of      216


     ismear =     1 iq =       4 coord.:   0.00000  0.00000  0.50000 wt:   0.00463
     -------------------------------------------------------------------
     lambda___(   1 )=       0.006137   gamma___=       0.000956 meV   omega=     32.5432 meV
     lambda_tr(   1 )=       0.016146   gamma_tr=       0.002517 meV   omega=     32.5432 meV
     lambda___(   2 )=       0.005945   gamma___=       0.000979 meV   omega=     33.4475 meV
     lambda_tr(   2 )=       0.014089   gamma_tr=       0.002320 meV   omega=     33.4475 meV
     lambda___(   3 )=       0.058235   gamma___=       0.049183 meV   omega=     75.7541 meV
     lambda_tr(   3 )=       0.121918   gamma_tr=       0.102968 meV   omega=     75.7541 meV
     lambda___(   4 )=       0.030532   gamma___=       0.037441 meV   omega=     91.2811 meV
     lambda_tr(   4 )=       0.048567   gamma_tr=       0.059556 meV   omega=     91.2811 meV
     lambda___(   5 )=       0.030459   gamma___=       0.037618 meV   omega=     91.6062 meV
     lambda_tr(   5 )=       0.052970   gamma_tr=       0.065419 meV   omega=     91.6062 meV
     lambda___(   6 )=       0.019281   gamma___=       0.032554 meV   omega=    107.1076 meV
     lambda_tr(   6 )=       0.030145   gamma_tr=       0.050896 meV   omega=    107.1076 meV
     lambda___( tot )=       0.150590
     lambda_tr( tot )=       0.283835
     -------------------------------------------------------------------


     Number of (k,k+q) pairs on the Fermi surface:      216 out of      216


     ismear =     1 iq =       5 coord.:   0.00000  0.00000  0.66667 wt:   0.00463
     -------------------------------------------------------------------
     lambda___(   1 )=       0.008337   gamma___=       0.001023 meV   omega=     28.8770 meV
     lambda_tr(   1 )=       0.021910   gamma_tr=       0.002689 meV   omega=     28.8770 meV
     lambda___(   2 )=       0.008337   gamma___=       0.001023 meV   omega=     28.8770 meV
     lambda_tr(   2 )=       0.021910   gamma_tr=       0.002689 meV   omega=     28.8770 meV
     lambda___(   3 )=       0.067495   gamma___=       0.038044 meV   omega=     61.8865 meV
     lambda_tr(   3 )=       0.108049   gamma_tr=       0.060902 meV   omega=     61.8865 meV
     lambda___(   4 )=       0.039206   gamma___=       0.049773 meV   omega=     92.8770 meV
     lambda_tr(   4 )=       0.049998   gamma_tr=       0.063473 meV   omega=     92.8770 meV
     lambda___(   5 )=       0.039206   gamma___=       0.049773 meV   omega=     92.8770 meV
     lambda_tr(   5 )=       0.049998   gamma_tr=       0.063473 meV   omega=     92.8770 meV
     lambda___(   6 )=       0.053432   gamma___=       0.091178 meV   omega=    107.6793 meV
     lambda_tr(   6 )=       0.066323   gamma_tr=       0.113175 meV   omega=    107.6793 meV
     lambda___( tot )=       0.216015
     lambda_tr( tot )=       0.318188
     -------------------------------------------------------------------


     Number of (k,k+q) pairs on the Fermi surface:      216 out of      216


     ismear =     1 iq =       6 coord.:   0.00000  0.00000  0.83333 wt:   0.00463
     -------------------------------------------------------------------
     lambda___(   1 )=      -0.048010   gamma___=      -0.001843 meV   omega=     16.1514 meV
     lambda_tr(   1 )=       0.229722   gamma_tr=       0.008819 meV   omega=     16.1514 meV
     lambda___(   2 )=      -0.030174   gamma___=      -0.001370 meV   omega=     17.5657 meV
     lambda_tr(   2 )=       0.120107   gamma_tr=       0.005454 meV   omega=     17.5657 meV
     lambda___(   3 )=       0.037735   gamma___=       0.006061 meV   omega=     33.0363 meV
     lambda_tr(   3 )=       0.379643   gamma_tr=       0.060979 meV   omega=     33.0363 meV
     lambda___(   4 )=       0.036005   gamma___=       0.047012 meV   omega=     94.1914 meV
     lambda_tr(   4 )=       0.098563   gamma_tr=       0.128694 meV   omega=     94.1914 meV
     lambda___(   5 )=       0.037789   gamma___=       0.049577 meV   omega=     94.4169 meV
     lambda_tr(   5 )=       0.098557   gamma_tr=       0.129303 meV   omega=     94.4169 meV
     lambda___(   6 )=       0.054483   gamma___=       0.081619 meV   omega=    100.8909 meV
     lambda_tr(   6 )=       0.110046   gamma_tr=       0.164854 meV   omega=    100.8909 meV
     lambda___( tot )=       0.087828
     lambda_tr( tot )=       1.036638
     -------------------------------------------------------------------


     Number of (k,k+q) pairs on the Fermi surface:      216 out of      216


     ismear =     1 iq =       7 coord.:   0.00000  0.16667  0.00000 wt:   0.00463
     -------------------------------------------------------------------
     lambda___(   1 )=      -0.015968   gamma___=      -0.000397 meV   omega=     13.0000 meV
     lambda_tr(   1 )=       0.455492   gamma_tr=       0.011329 meV   omega=     13.0000 meV
     lambda___(   2 )=      -0.015968   gamma___=      -0.000397 meV   omega=     13.0000 meV
     lambda_tr(   2 )=       0.455492   gamma_tr=       0.011329 meV   omega=     13.0000 meV
     lambda___(   3 )=      -0.122649   gamma___=      -0.019172 meV   omega=     32.5904 meV
     lambda_tr(   3 )=       0.481977   gamma_tr=       0.075341 meV   omega=     32.5904 meV
     lambda___(   4 )=       0.047825   gamma___=       0.063428 meV   omega=     94.9293 meV
     lambda_tr(   4 )=       0.095937   gamma_tr=       0.127235 meV   omega=     94.9293 meV
     lambda___(   5 )=       0.047825   gamma___=       0.063428 meV   omega=     94.9293 meV
     lambda_tr(   5 )=       0.095937   gamma_tr=       0.127235 meV   omega=     94.9293 meV
     lambda___(   6 )=       0.067260   gamma___=       0.100997 meV   omega=    101.0103 meV
     lambda_tr(   6 )=       0.102977   gamma_tr=       0.154630 meV   omega=    101.0103 meV
     lambda___( tot )=       0.008325
     lambda_tr( tot )=       1.687811
     -------------------------------------------------------------------


     Number of (k,k+q) pairs on the Fermi surface:      216 out of      216


     ismear =     1 iq =       8 coord.:   0.00000  0.16667  0.16667 wt:   0.00463
     -------------------------------------------------------------------
     lambda___(   1 )=       0.018121   gamma___=       0.001195 meV   omega=     21.1647 meV
     lambda_tr(   1 )=       0.061413   gamma_tr=       0.004049 meV   omega=     21.1647 meV
     lambda___(   2 )=      -0.017431   gamma___=      -0.001342 meV   omega=     22.8739 meV
     lambda_tr(   2 )=       0.073449   gamma_tr=       0.005656 meV   omega=     22.8739 meV
     lambda___(   3 )=       0.018749   gamma___=       0.003225 meV   omega=     34.1889 meV
     lambda_tr(   3 )=       0.210496   gamma_tr=       0.036211 meV   omega=     34.1889 meV
     lambda___(   4 )=       0.044449   gamma___=       0.058580 meV   omega=     94.6303 meV
     lambda_tr(   4 )=       0.112631   gamma_tr=       0.148437 meV   omega=     94.6303 meV
     lambda___(   5 )=       0.046847   gamma___=       0.062307 meV   omega=     95.0641 meV
     lambda_tr(   5 )=       0.126310   gamma_tr=       0.167993 meV   omega=     95.0641 meV
     lambda___(   6 )=       0.082432   gamma___=       0.125648 meV   omega=    101.7697 meV
     lambda_tr(   6 )=       0.130125   gamma_tr=       0.198344 meV   omega=    101.7697 meV
     lambda___( tot )=       0.193167
     lambda_tr( tot )=       0.714424
     -------------------------------------------------------------------


     Number of (k,k+q) pairs on the Fermi surface:      216 out of      216


     ismear =     1 iq =       9 coord.:   0.00000  0.16667  0.33333 wt:   0.00463
     -------------------------------------------------------------------
     lambda___(   1 )=      -0.001933   gamma___=      -0.000299 meV   omega=     32.3981 meV
     lambda_tr(   1 )=       0.003393   gamma_tr=       0.000524 meV   omega=     32.3981 meV
     lambda___(   2 )=       0.009660   gamma___=       0.001511 meV   omega=     32.6045 meV
     lambda_tr(   2 )=       0.012211   gamma_tr=       0.001910 meV   omega=     32.6045 meV
     lambda___(   3 )=       0.037201   gamma___=       0.017190 meV   omega=     56.0328 meV
     lambda_tr(   3 )=       0.012978   gamma_tr=       0.005997 meV   omega=     56.0328 meV
     lambda___(   4 )=       0.023989   gamma___=       0.030818 meV   omega=     93.4297 meV
     lambda_tr(   4 )=       0.017564   gamma_tr=       0.022564 meV   omega=     93.4297 meV
     lambda___(   5 )=       0.025496   gamma___=       0.034198 meV   omega=     95.4668 meV
     lambda_tr(   5 )=       0.019961   gamma_tr=       0.026774 meV   omega=     95.4668 meV
     lambda___(   6 )=       0.026535   gamma___=       0.043286 meV   omega=    105.2818 meV
     lambda_tr(   6 )=       0.013461   gamma_tr=       0.021959 meV   omega=    105.2818 meV
     lambda___( tot )=       0.120948
     lambda_tr( tot )=       0.079568
     -------------------------------------------------------------------


     Number of (k,k+q) pairs on the Fermi surface:      216 out of      216


     ismear =     1 iq =      10 coord.:   0.00000  0.16667  0.50000 wt:   0.00463
     -------------------------------------------------------------------
     lambda___(   1 )=       0.002776   gamma___=       0.000557 meV   omega=     36.9332 meV
     lambda_tr(   1 )=      -0.000377   gamma_tr=      -0.000076 meV   omega=     36.9332 meV
     lambda___(   2 )=       0.007631   gamma___=       0.002018 meV   omega=     42.3920 meV
     lambda_tr(   2 )=       0.004325   gamma_tr=       0.001144 meV   omega=     42.3920 meV
     lambda___(   3 )=       0.025103   gamma___=       0.018375 meV   omega=     70.5237 meV
     lambda_tr(   3 )=      -0.004524   gamma_tr=      -0.003312 meV   omega=     70.5237 meV
     lambda___(   4 )=       0.014042   gamma___=       0.017278 meV   omega=     91.4355 meV
     lambda_tr(   4 )=       0.012106   gamma_tr=       0.014896 meV   omega=     91.4355 meV
     lambda___(   5 )=       0.018354   gamma___=       0.023366 meV   omega=     93.0056 meV
     lambda_tr(   5 )=       0.004619   gamma_tr=       0.005880 meV   omega=     93.0056 meV
     lambda___(   6 )=       0.007964   gamma___=       0.012978 meV   omega=    105.2297 meV
     lambda_tr(   6 )=       0.005421   gamma_tr=       0.008835 meV   omega=    105.2297 meV
     lambda___( tot )=       0.075871
     lambda_tr( tot )=       0.021571
     -------------------------------------------------------------------


     Number of (k,k+q) pairs on the Fermi surface:      216 out of      216


     ismear =     1 iq =      11 coord.:   0.00000  0.16667  0.66667 wt:   0.00463
     -------------------------------------------------------------------
     lambda___(   1 )=       0.019500   gamma___=       0.003291 meV   omega=     33.8651 meV
     lambda_tr(   1 )=       0.013879   gamma_tr=       0.002343 meV   omega=     33.8651 meV
     lambda___(   2 )=       0.008242   gamma___=       0.002264 meV   omega=     43.2067 meV
     lambda_tr(   2 )=       0.004492   gamma_tr=       0.001234 meV   omega=     43.2067 meV
     lambda___(   3 )=       0.026131   gamma___=       0.017289 meV   omega=     67.0484 meV
     lambda_tr(   3 )=       0.011858   gamma_tr=       0.007845 meV   omega=     67.0484 meV
     lambda___(   4 )=       0.028451   gamma___=       0.035595 meV   omega=     92.2007 meV
     lambda_tr(   4 )=       0.033322   gamma_tr=       0.041689 meV   omega=     92.2007 meV
     lambda___(   5 )=       0.016762   gamma___=       0.021496 meV   omega=     93.3491 meV
     lambda_tr(   5 )=       0.004931   gamma_tr=       0.006324 meV   omega=     93.3491 meV
     lambda___(   6 )=       0.017452   gamma___=       0.028319 meV   omega=    105.0044 meV
     lambda_tr(   6 )=       0.013264   gamma_tr=       0.021524 meV   omega=    105.0044 meV
     lambda___( tot )=       0.116537
     lambda_tr( tot )=       0.081747
     -------------------------------------------------------------------


     Number of (k,k+q) pairs on the Fermi surface:      216 out of      216


     ismear =     1 iq =      12 coord.:   0.00000  0.16667  0.83333 wt:   0.00463
     -------------------------------------------------------------------
     lambda___(   1 )=       0.053645   gamma___=       0.004460 meV   omega=     23.7682 meV
     lambda_tr(   1 )=       0.086672   gamma_tr=       0.007206 meV   omega=     23.7682 meV
     lambda___(   2 )=       0.000430   gamma___=       0.000066 meV   omega=     32.3693 meV
     lambda_tr(   2 )=       0.004934   gamma_tr=       0.000761 meV   omega=     32.3693 meV
     lambda___(   3 )=       0.000770   gamma___=       0.000265 meV   omega=     48.3457 meV
     lambda_tr(   3 )=       0.044098   gamma_tr=       0.015169 meV   omega=     48.3457 meV
     lambda___(   4 )=       0.031642   gamma___=       0.041194 meV   omega=     94.0532 meV
     lambda_tr(   4 )=       0.055459   gamma_tr=       0.072201 meV   omega=     94.0532 meV
     lambda___(   5 )=       0.029434   gamma___=       0.039636 meV   omega=     95.6563 meV
     lambda_tr(   5 )=       0.040376   gamma_tr=       0.054372 meV   omega=     95.6563 meV
     lambda___(   6 )=       0.026933   gamma___=       0.043215 meV   omega=    104.4139 meV
     lambda_tr(   6 )=       0.021034   gamma_tr=       0.033749 meV   omega=    104.4139 meV
     lambda___( tot )=       0.142854
     lambda_tr( tot )=       0.252574
     -------------------------------------------------------------------


     Number of (k,k+q) pairs on the Fermi surface:      216 out of      216


     ismear =     1 iq =      13 coord.:   0.00000  0.33333  0.00000 wt:   0.00463
     -------------------------------------------------------------------
     lambda___(   1 )=       0.008337   gamma___=       0.001023 meV   omega=     28.8770 meV
     lambda_tr(   1 )=       0.023509   gamma_tr=       0.002885 meV   omega=     28.8770 meV
     lambda___(   2 )=       0.008337   gamma___=       0.001023 meV   omega=     28.8770 meV
     lambda_tr(   2 )=       0.023509   gamma_tr=       0.002885 meV   omega=     28.8770 meV
     lambda___(   3 )=       0.067495   gamma___=       0.038044 meV   omega=     61.8865 meV
     lambda_tr(   3 )=       0.102196   gamma_tr=       0.057604 meV   omega=     61.8865 meV
     lambda___(   4 )=       0.039206   gamma___=       0.049773 meV   omega=     92.8770 meV
     lambda_tr(   4 )=       0.048223   gamma_tr=       0.061220 meV   omega=     92.8770 meV
     lambda___(   5 )=       0.039206   gamma___=       0.049773 meV   omega=     92.8770 meV
     lambda_tr(   5 )=       0.048223   gamma_tr=       0.061220 meV   omega=     92.8770 meV
     lambda___(   6 )=       0.053432   gamma___=       0.091178 meV   omega=    107.6793 meV
     lambda_tr(   6 )=       0.064559   gamma_tr=       0.110165 meV   omega=    107.6793 meV
     lambda___( tot )=       0.216015
     lambda_tr( tot )=       0.310218
     -------------------------------------------------------------------


     Number of (k,k+q) pairs on the Fermi surface:      216 out of      216


     ismear =     1 iq =      14 coord.:   0.00000  0.33333  0.16667 wt:   0.00463
     -------------------------------------------------------------------
     lambda___(   1 )=       0.004352   gamma___=       0.000699 meV   omega=     33.0366 meV
     lambda_tr(   1 )=       0.000947   gamma_tr=       0.000152 meV   omega=     33.0366 meV
     lambda___(   2 )=       0.003307   gamma___=       0.000548 meV   omega=     33.5496 meV
     lambda_tr(   2 )=       0.013569   gamma_tr=       0.002248 meV   omega=     33.5496 meV
     lambda___(   3 )=       0.030143   gamma___=       0.013436 meV   omega=     55.0343 meV
     lambda_tr(   3 )=       0.016714   gamma_tr=       0.007450 meV   omega=     55.0343 meV
     lambda___(   4 )=       0.023170   gamma___=       0.029670 meV   omega=     93.2778 meV
     lambda_tr(   4 )=       0.021366   gamma_tr=       0.027359 meV   omega=     93.2778 meV
     lambda___(   5 )=       0.025554   gamma___=       0.033646 meV   omega=     94.5855 meV
     lambda_tr(   5 )=       0.030953   gamma_tr=       0.040754 meV   omega=     94.5855 meV
     lambda___(   6 )=       0.030672   gamma___=       0.050949 meV   omega=    106.2389 meV
     lambda_tr(   6 )=       0.007876   gamma_tr=       0.013083 meV   omega=    106.2389 meV
     lambda___( tot )=       0.117199
     lambda_tr( tot )=       0.091425
     -------------------------------------------------------------------


     Number of (k,k+q) pairs on the Fermi surface:      216 out of      216


     ismear =     1 iq =      15 coord.:   0.00000  0.33333  0.33333 wt:   0.00463
     -------------------------------------------------------------------
     lambda___(   1 )=       0.000852   gamma___=       0.000203 meV   omega=     40.2854 meV
     lambda_tr(   1 )=      -0.002708   gamma_tr=      -0.000647 meV   omega=     40.2854 meV
     lambda___(   2 )=       0.000852   gamma___=       0.000203 meV   omega=     40.2854 meV
     lambda_tr(   2 )=      -0.002708   gamma_tr=      -0.000647 meV   omega=     40.2854 meV
     lambda___(   3 )=       0.014537   gamma___=       0.008317 meV   omega=     62.3478 meV
     lambda_tr(   3 )=      -0.018075   gamma_tr=      -0.010340 meV   omega=     62.3478 meV
     lambda___(   4 )=       0.004624   gamma___=       0.005806 meV   omega=     92.3660 meV
     lambda_tr(   4 )=      -0.002036   gamma_tr=      -0.002557 meV   omega=     92.3660 meV
     lambda___(   5 )=       0.004624   gamma___=       0.005806 meV   omega=     92.3660 meV
     lambda_tr(   5 )=      -0.002036   gamma_tr=      -0.002557 meV   omega=     92.3660 meV
     lambda___(   6 )=       0.017197   gamma___=       0.029404 meV   omega=    107.7874 meV
     lambda_tr(   6 )=       0.001499   gamma_tr=       0.002563 meV   omega=    107.7874 meV
     lambda___( tot )=       0.042686
     lambda_tr( tot )=      -0.026064
     -------------------------------------------------------------------


     Number of (k,k+q) pairs on the Fermi surface:      216 out of      216


     ismear =     1 iq =      16 coord.:   0.00000  0.33333  0.50000 wt:   0.00463
     -------------------------------------------------------------------
     lambda___(   1 )=       0.000278   gamma___=       0.000077 meV   omega=     43.4083 meV
     lambda_tr(   1 )=      -0.001003   gamma_tr=      -0.000278 meV   omega=     43.4083 meV
     lambda___(   2 )=       0.002194   gamma___=       0.000758 meV   omega=     48.4505 meV
     lambda_tr(   2 )=      -0.006571   gamma_tr=      -0.002270 meV   omega=     48.4505 meV
     lambda___(   3 )=       0.010979   gamma___=       0.007950 meV   omega=     70.1423 meV
     lambda_tr(   3 )=      -0.020392   gamma_tr=      -0.014765 meV   omega=     70.1423 meV
     lambda___(   4 )=       0.000798   gamma___=       0.000966 meV   omega=     90.7197 meV
     lambda_tr(   4 )=      -0.000017   gamma_tr=      -0.000020 meV   omega=     90.7197 meV
     lambda___(   5 )=       0.002636   gamma___=       0.003300 meV   omega=     92.2303 meV
     lambda_tr(   5 )=      -0.004921   gamma_tr=      -0.006161 meV   omega=     92.2303 meV
     lambda___(   6 )=       0.005092   gamma___=       0.008196 meV   omega=    104.5795 meV
     lambda_tr(   6 )=      -0.004027   gamma_tr=      -0.006481 meV   omega=    104.5795 meV
     lambda___( tot )=       0.021976
     lambda_tr( tot )=      -0.036930
     -------------------------------------------------------------------


     Number of (k,k+q) pairs on the Fermi surface:      216 out of      216


     ismear =     1 iq =      17 coord.:   0.00000  0.33333  0.66667 wt:   0.00463
     -------------------------------------------------------------------
     lambda___(   1 )=       0.000768   gamma___=       0.000197 meV   omega=     41.7015 meV
     lambda_tr(   1 )=      -0.000376   gamma_tr=      -0.000096 meV   omega=     41.7015 meV
     lambda___(   2 )=       0.001378   gamma___=       0.000660 meV   omega=     57.0522 meV
     lambda_tr(   2 )=      -0.000745   gamma_tr=      -0.000357 meV   omega=     57.0522 meV
     lambda___(   3 )=       0.013584   gamma___=       0.008616 meV   omega=     65.6515 meV
     lambda_tr(   3 )=       0.007130   gamma_tr=       0.004523 meV   omega=     65.6515 meV
     lambda___(   4 )=       0.004548   gamma___=       0.005489 meV   omega=     90.5588 meV
     lambda_tr(   4 )=       0.001271   gamma_tr=       0.001534 meV   omega=     90.5588 meV
     lambda___(   5 )=       0.000814   gamma___=       0.001005 meV   omega=     91.5744 meV
     lambda_tr(   5 )=      -0.000076   gamma_tr=      -0.000094 meV   omega=     91.5744 meV
     lambda___(   6 )=       0.006970   gamma___=       0.010981 meV   omega=    103.4648 meV
     lambda_tr(   6 )=       0.004367   gamma_tr=       0.006880 meV   omega=    103.4648 meV
     lambda___( tot )=       0.028062
     lambda_tr( tot )=       0.011571
     -------------------------------------------------------------------


     Number of (k,k+q) pairs on the Fermi surface:      216 out of      216


     ismear =     1 iq =      18 coord.:   0.00000  0.33333  0.83333 wt:   0.00463
     -------------------------------------------------------------------
     lambda___(   1 )=       0.007298   gamma___=       0.001301 meV   omega=     34.8081 meV
     lambda_tr(   1 )=       0.005771   gamma_tr=       0.001029 meV   omega=     34.8081 meV
     lambda___(   2 )=       0.003511   gamma___=       0.000937 meV   omega=     42.5803 meV
     lambda_tr(   2 )=       0.004001   gamma_tr=       0.001068 meV   omega=     42.5803 meV
     lambda___(   3 )=       0.030626   gamma___=       0.019987 meV   omega=     66.5920 meV
     lambda_tr(   3 )=       0.033831   gamma_tr=       0.022079 meV   omega=     66.5920 meV
     lambda___(   4 )=       0.023691   gamma___=       0.029414 meV   omega=     91.8489 meV
     lambda_tr(   4 )=       0.023367   gamma_tr=       0.029011 meV   omega=     91.8489 meV
     lambda___(   5 )=       0.014719   gamma___=       0.018982 meV   omega=     93.6075 meV
     lambda_tr(   5 )=       0.007801   gamma_tr=       0.010059 meV   omega=     93.6075 meV
     lambda___(   6 )=       0.013228   gamma___=       0.021594 meV   omega=    105.3201 meV
     lambda_tr(   6 )=       0.015776   gamma_tr=       0.025753 meV   omega=    105.3201 meV
     lambda___( tot )=       0.093073
     lambda_tr( tot )=       0.090546
     -------------------------------------------------------------------


     Number of (k,k+q) pairs on the Fermi surface:      216 out of      216


     ismear =     1 iq =      19 coord.:   0.00000  0.50000  0.00000 wt:   0.00463
     -------------------------------------------------------------------
     lambda___(   1 )=      -0.008539   gamma___=      -0.001249 meV   omega=     31.5204 meV
     lambda_tr(   1 )=      -0.007175   gamma_tr=      -0.001049 meV   omega=     31.5204 meV
     lambda___(   2 )=      -0.008539   gamma___=      -0.001249 meV   omega=     31.5204 meV
     lambda_tr(   2 )=      -0.007175   gamma_tr=      -0.001049 meV   omega=     31.5204 meV
     lambda___(   3 )=       0.072364   gamma___=       0.062727 meV   omega=     76.7461 meV
     lambda_tr(   3 )=       0.157209   gamma_tr=       0.136273 meV   omega=     76.7461 meV
     lambda___(   4 )=       0.045196   gamma___=       0.056254 meV   omega=     91.9631 meV
     lambda_tr(   4 )=       0.068048   gamma_tr=       0.084696 meV   omega=     91.9631 meV
     lambda___(   5 )=       0.045196   gamma___=       0.056254 meV   omega=     91.9631 meV
     lambda_tr(   5 )=       0.068048   gamma_tr=       0.084696 meV   omega=     91.9631 meV
     lambda___(   6 )=       0.000402   gamma___=       0.000670 meV   omega=    106.4001 meV
     lambda_tr(   6 )=       0.000914   gamma_tr=       0.001523 meV   omega=    106.4001 meV
     lambda___( tot )=       0.146081
     lambda_tr( tot )=       0.279868
     -------------------------------------------------------------------


     Number of (k,k+q) pairs on the Fermi surface:      216 out of      216


     ismear =     1 iq =      20 coord.:   0.00000  0.50000  0.16667 wt:   0.00463
     -------------------------------------------------------------------
     lambda___(   1 )=      -0.001291   gamma___=      -0.000247 meV   omega=     36.0792 meV
     lambda_tr(   1 )=      -0.006841   gamma_tr=      -0.001310 meV   omega=     36.0792 meV
     lambda___(   2 )=       0.006629   gamma___=       0.001725 meV   omega=     42.0522 meV
     lambda_tr(   2 )=       0.003349   gamma_tr=       0.000872 meV   omega=     42.0522 meV
     lambda___(   3 )=       0.027322   gamma___=       0.020374 meV   omega=     71.1814 meV
     lambda_tr(   3 )=       0.012162   gamma_tr=       0.009069 meV   omega=     71.1814 meV
     lambda___(   4 )=       0.016601   gamma___=       0.020578 meV   omega=     91.7759 meV
     lambda_tr(   4 )=       0.015160   gamma_tr=       0.018792 meV   omega=     91.7759 meV
     lambda___(   5 )=       0.020355   gamma___=       0.025954 meV   omega=     93.0788 meV
     lambda_tr(   5 )=       0.016133   gamma_tr=       0.020570 meV   omega=     93.0788 meV
     lambda___(   6 )=       0.005049   gamma___=       0.008171 meV   omega=    104.8578 meV
     lambda_tr(   6 )=       0.005311   gamma_tr=       0.008594 meV   omega=    104.8578 meV
     lambda___( tot )=       0.074666
     lambda_tr( tot )=       0.045274
     -------------------------------------------------------------------


     Number of (k,k+q) pairs on the Fermi surface:      216 out of      216


     ismear =     1 iq =      21 coord.:   0.00000  0.50000  0.33333 wt:   0.00463
     -------------------------------------------------------------------
     lambda___(   1 )=      -0.000142   gamma___=      -0.000037 meV   omega=     41.8037 meV
     lambda_tr(   1 )=      -0.001754   gamma_tr=      -0.000451 meV   omega=     41.8037 meV
     lambda___(   2 )=       0.001253   gamma___=       0.000439 meV   omega=     48.7998 meV
     lambda_tr(   2 )=      -0.008261   gamma_tr=      -0.002895 meV   omega=     48.7998 meV
     lambda___(   3 )=       0.011208   gamma___=       0.008204 meV   omega=     70.5213 meV
     lambda_tr(   3 )=      -0.021268   gamma_tr=      -0.015567 meV   omega=     70.5213 meV
     lambda___(   4 )=       0.000871   gamma___=       0.001072 meV   omega=     91.4702 meV
     lambda_tr(   4 )=       0.000118   gamma_tr=       0.000145 meV   omega=     91.4702 meV
     lambda___(   5 )=       0.003652   gamma___=       0.004587 meV   omega=     92.3779 meV
     lambda_tr(   5 )=      -0.005941   gamma_tr=      -0.007461 meV   omega=     92.3779 meV
     lambda___(   6 )=       0.004440   gamma___=       0.007071 meV   omega=    104.0305 meV
     lambda_tr(   6 )=      -0.000701   gamma_tr=      -0.001117 meV   omega=    104.0305 meV
     lambda___( tot )=       0.021282
     lambda_tr( tot )=      -0.037808
     -------------------------------------------------------------------


     Number of (k,k+q) pairs on the Fermi surface:      216 out of      216


     ismear =     1 iq =      22 coord.:   0.00000  0.50000  0.50000 wt:   0.00463
     -------------------------------------------------------------------
     lambda___(   1 )=      -0.000007   gamma___=      -0.000002 meV   omega=     43.4215 meV
     lambda_tr(   1 )=      -0.000135   gamma_tr=      -0.000038 meV   omega=     43.4215 meV
     lambda___(   2 )=      -0.000002   gamma___=      -0.000000 meV   omega=     45.6946 meV
     lambda_tr(   2 )=      -0.000097   gamma_tr=      -0.000030 meV   omega=     45.6946 meV
     lambda___(   3 )=       0.004054   gamma___=       0.003554 meV   omega=     77.1749 meV
     lambda_tr(   3 )=      -0.006632   gamma_tr=      -0.005813 meV   omega=     77.1749 meV
     lambda___(   4 )=       0.000198   gamma___=       0.000238 meV   omega=     90.2553 meV
     lambda_tr(   4 )=      -0.000108   gamma_tr=      -0.000129 meV   omega=     90.2553 meV
     lambda___(   5 )=       0.000174   gamma___=       0.000214 meV   omega=     91.3508 meV
     lambda_tr(   5 )=      -0.000155   gamma_tr=      -0.000191 meV   omega=     91.3508 meV
     lambda___(   6 )=       0.000807   gamma___=       0.001295 meV   omega=    104.4276 meV
     lambda_tr(   6 )=       0.000023   gamma_tr=       0.000038 meV   omega=    104.4276 meV
     lambda___( tot )=       0.005225
     lambda_tr( tot )=      -0.007104
     -------------------------------------------------------------------


     Number of (k,k+q) pairs on the Fermi surface:      216 out of      216


     ismear =     1 iq =      23 coord.:   0.00000  0.50000  0.66667 wt:   0.00463
     -------------------------------------------------------------------
     lambda___(   1 )=      -0.000142   gamma___=      -0.000037 meV   omega=     41.8037 meV
     lambda_tr(   1 )=      -0.001784   gamma_tr=      -0.000459 meV   omega=     41.8037 meV
     lambda___(   2 )=       0.001253   gamma___=       0.000439 meV   omega=     48.7998 meV
     lambda_tr(   2 )=      -0.008313   gamma_tr=      -0.002913 meV   omega=     48.7998 meV
     lambda___(   3 )=       0.011208   gamma___=       0.008204 meV   omega=     70.5213 meV
     lambda_tr(   3 )=      -0.020455   gamma_tr=      -0.014971 meV   omega=     70.5213 meV
     lambda___(   4 )=       0.000871   gamma___=       0.001072 meV   omega=     91.4702 meV
     lambda_tr(   4 )=       0.000355   gamma_tr=       0.000437 meV   omega=     91.4702 meV
     lambda___(   5 )=       0.003651   gamma___=       0.004586 meV   omega=     92.3779 meV
     lambda_tr(   5 )=      -0.006042   gamma_tr=      -0.007589 meV   omega=     92.3779 meV
     lambda___(   6 )=       0.004441   gamma___=       0.007073 meV   omega=    104.0305 meV
     lambda_tr(   6 )=      -0.001097   gamma_tr=      -0.001747 meV   omega=    104.0305 meV
     lambda___( tot )=       0.021282
     lambda_tr( tot )=      -0.037336
     -------------------------------------------------------------------


     Number of (k,k+q) pairs on the Fermi surface:      216 out of      216


     ismear =     1 iq =      24 coord.:   0.00000  0.50000  0.83333 wt:   0.00463
     -------------------------------------------------------------------
     lambda___(   1 )=      -0.001291   gamma___=      -0.000247 meV   omega=     36.0792 meV
     lambda_tr(   1 )=      -0.005892   gamma_tr=      -0.001129 meV   omega=     36.0792 meV
     lambda___(   2 )=       0.006629   gamma___=       0.001725 meV   omega=     42.0522 meV
     lambda_tr(   2 )=       0.006314   gamma_tr=       0.001643 meV   omega=     42.0522 meV
     lambda___(   3 )=       0.027321   gamma___=       0.020373 meV   omega=     71.1814 meV
     lambda_tr(   3 )=       0.031581   gamma_tr=       0.023550 meV   omega=     71.1814 meV
     lambda___(   4 )=       0.016600   gamma___=       0.020577 meV   omega=     91.7759 meV
     lambda_tr(   4 )=       0.011900   gamma_tr=       0.014751 meV   omega=     91.7759 meV
     lambda___(   5 )=       0.020357   gamma___=       0.025956 meV   omega=     93.0788 meV
     lambda_tr(   5 )=       0.021428   gamma_tr=       0.027322 meV   omega=     93.0788 meV
     lambda___(   6 )=       0.005052   gamma___=       0.008175 meV   omega=    104.8578 meV
     lambda_tr(   6 )=       0.006136   gamma_tr=       0.009928 meV   omega=    104.8578 meV
     lambda___( tot )=       0.074667
     lambda_tr( tot )=       0.071466
     -------------------------------------------------------------------


     Number of (k,k+q) pairs on the Fermi surface:      216 out of      216


     ismear =     1 iq =      25 coord.:   0.00000  0.66667  0.00000 wt:   0.00463
     -------------------------------------------------------------------
     lambda___(   1 )=       0.008337   gamma___=       0.001023 meV   omega=     28.8770 meV
     lambda_tr(   1 )=       0.025026   gamma_tr=       0.003071 meV   omega=     28.8770 meV
     lambda___(   2 )=       0.008337   gamma___=       0.001023 meV   omega=     28.8770 meV
     lambda_tr(   2 )=       0.025026   gamma_tr=       0.003071 meV   omega=     28.8770 meV
     lambda___(   3 )=       0.067495   gamma___=       0.038044 meV   omega=     61.8865 meV
     lambda_tr(   3 )=       0.098643   gamma_tr=       0.055601 meV   omega=     61.8865 meV
     lambda___(   4 )=       0.039206   gamma___=       0.049773 meV   omega=     92.8770 meV
     lambda_tr(   4 )=       0.047948   gamma_tr=       0.060871 meV   omega=     92.8770 meV
     lambda___(   5 )=       0.039206   gamma___=       0.049773 meV   omega=     92.8770 meV
     lambda_tr(   5 )=       0.047948   gamma_tr=       0.060871 meV   omega=     92.8770 meV
     lambda___(   6 )=       0.053432   gamma___=       0.091178 meV   omega=    107.6793 meV
     lambda_tr(   6 )=       0.061930   gamma_tr=       0.105679 meV   omega=    107.6793 meV
     lambda___( tot )=       0.216015
     lambda_tr( tot )=       0.306520
     -------------------------------------------------------------------


     Number of (k,k+q) pairs on the Fermi surface:      216 out of      216


     ismear =     1 iq =      26 coord.:   0.00000  0.66667  0.16667 wt:   0.00463
     -------------------------------------------------------------------
     lambda___(   1 )=       0.007297   gamma___=       0.001301 meV   omega=     34.8081 meV
     lambda_tr(   1 )=       0.004834   gamma_tr=       0.000862 meV   omega=     34.8081 meV
     lambda___(   2 )=       0.003513   gamma___=       0.000937 meV   omega=     42.5803 meV
     lambda_tr(   2 )=       0.004388   gamma_tr=       0.001171 meV   omega=     42.5803 meV
     lambda___(   3 )=       0.030623   gamma___=       0.019985 meV   omega=     66.5920 meV
     lambda_tr(   3 )=       0.020744   gamma_tr=       0.013538 meV   omega=     66.5920 meV
     lambda___(   4 )=       0.023692   gamma___=       0.029415 meV   omega=     91.8489 meV
     lambda_tr(   4 )=       0.030640   gamma_tr=       0.038041 meV   omega=     91.8489 meV
     lambda___(   5 )=       0.014717   gamma___=       0.018978 meV   omega=     93.6075 meV
     lambda_tr(   5 )=       0.006490   gamma_tr=       0.008369 meV   omega=     93.6075 meV
     lambda___(   6 )=       0.013230   gamma___=       0.021598 meV   omega=    105.3201 meV
     lambda_tr(   6 )=       0.012595   gamma_tr=       0.020562 meV   omega=    105.3201 meV
     lambda___( tot )=       0.093072
     lambda_tr( tot )=       0.079691
     -------------------------------------------------------------------


     Number of (k,k+q) pairs on the Fermi surface:      216 out of      216


     ismear =     1 iq =      27 coord.:   0.00000  0.66667  0.33333 wt:   0.00463
     -------------------------------------------------------------------
     lambda___(   1 )=       0.000768   gamma___=       0.000197 meV   omega=     41.7015 meV
     lambda_tr(   1 )=      -0.000733   gamma_tr=      -0.000188 meV   omega=     41.7015 meV
     lambda___(   2 )=       0.001378   gamma___=       0.000660 meV   omega=     57.0522 meV
     lambda_tr(   2 )=      -0.000565   gamma_tr=      -0.000271 meV   omega=     57.0522 meV
     lambda___(   3 )=       0.013584   gamma___=       0.008617 meV   omega=     65.6515 meV
     lambda_tr(   3 )=       0.011688   gamma_tr=       0.007414 meV   omega=     65.6515 meV
     lambda___(   4 )=       0.004548   gamma___=       0.005489 meV   omega=     90.5588 meV
     lambda_tr(   4 )=      -0.000377   gamma_tr=      -0.000455 meV   omega=     90.5588 meV
     lambda___(   5 )=       0.000814   gamma___=       0.001005 meV   omega=     91.5744 meV
     lambda_tr(   5 )=       0.000070   gamma_tr=       0.000086 meV   omega=     91.5744 meV
     lambda___(   6 )=       0.006970   gamma___=       0.010981 meV   omega=    103.4648 meV
     lambda_tr(   6 )=       0.005775   gamma_tr=       0.009099 meV   omega=    103.4648 meV
     lambda___( tot )=       0.028062
     lambda_tr( tot )=       0.015858
     -------------------------------------------------------------------


     Number of (k,k+q) pairs on the Fermi surface:      216 out of      216


     ismear =     1 iq =      28 coord.:   0.00000  0.66667  0.50000 wt:   0.00463
     -------------------------------------------------------------------
     lambda___(   1 )=       0.000278   gamma___=       0.000077 meV   omega=     43.4083 meV
     lambda_tr(   1 )=      -0.000846   gamma_tr=      -0.000235 meV   omega=     43.4083 meV
     lambda___(   2 )=       0.002194   gamma___=       0.000758 meV   omega=     48.4505 meV
     lambda_tr(   2 )=      -0.006789   gamma_tr=      -0.002345 meV   omega=     48.4505 meV
     lambda___(   3 )=       0.010978   gamma___=       0.007949 meV   omega=     70.1423 meV
     lambda_tr(   3 )=      -0.020489   gamma_tr=      -0.014836 meV   omega=     70.1423 meV
     lambda___(   4 )=       0.000798   gamma___=       0.000966 meV   omega=     90.7197 meV
     lambda_tr(   4 )=       0.000309   gamma_tr=       0.000375 meV   omega=     90.7197 meV
     lambda___(   5 )=       0.002636   gamma___=       0.003300 meV   omega=     92.2303 meV
     lambda_tr(   5 )=      -0.004759   gamma_tr=      -0.005958 meV   omega=     92.2303 meV
     lambda___(   6 )=       0.005093   gamma___=       0.008197 meV   omega=    104.5795 meV
     lambda_tr(   6 )=      -0.003658   gamma_tr=      -0.005887 meV   omega=    104.5795 meV
     lambda___( tot )=       0.021976
     lambda_tr( tot )=      -0.036231
     -------------------------------------------------------------------


     Number of (k,k+q) pairs on the Fermi surface:      216 out of      216


     ismear =     1 iq =      29 coord.:   0.00000  0.66667  0.66667 wt:   0.00463
     -------------------------------------------------------------------
     lambda___(   1 )=       0.000852   gamma___=       0.000203 meV   omega=     40.2854 meV
     lambda_tr(   1 )=      -0.002085   gamma_tr=      -0.000498 meV   omega=     40.2854 meV
     lambda___(   2 )=       0.000852   gamma___=       0.000203 meV   omega=     40.2854 meV
     lambda_tr(   2 )=      -0.002085   gamma_tr=      -0.000498 meV   omega=     40.2854 meV
     lambda___(   3 )=       0.014537   gamma___=       0.008317 meV   omega=     62.3478 meV
     lambda_tr(   3 )=      -0.013517   gamma_tr=      -0.007733 meV   omega=     62.3478 meV
     lambda___(   4 )=       0.004624   gamma___=       0.005806 meV   omega=     92.3660 meV
     lambda_tr(   4 )=      -0.000794   gamma_tr=      -0.000997 meV   omega=     92.3660 meV
     lambda___(   5 )=       0.004624   gamma___=       0.005806 meV   omega=     92.3660 meV
     lambda_tr(   5 )=      -0.000794   gamma_tr=      -0.000997 meV   omega=     92.3660 meV
     lambda___(   6 )=       0.017197   gamma___=       0.029404 meV   omega=    107.7874 meV
     lambda_tr(   6 )=       0.005253   gamma_tr=       0.008982 meV   omega=    107.7874 meV
     lambda___( tot )=       0.042686
     lambda_tr( tot )=      -0.014022
     -------------------------------------------------------------------


     Number of (k,k+q) pairs on the Fermi surface:      216 out of      216


     ismear =     1 iq =      30 coord.:   0.00000  0.66667  0.83333 wt:   0.00463
     -------------------------------------------------------------------
     lambda___(   1 )=       0.004352   gamma___=       0.000699 meV   omega=     33.0366 meV
     lambda_tr(   1 )=       0.003881   gamma_tr=       0.000623 meV   omega=     33.0366 meV
     lambda___(   2 )=       0.003306   gamma___=       0.000548 meV   omega=     33.5496 meV
     lambda_tr(   2 )=       0.015069   gamma_tr=       0.002496 meV   omega=     33.5496 meV
     lambda___(   3 )=       0.030144   gamma___=       0.013437 meV   omega=     55.0343 meV
     lambda_tr(   3 )=       0.040668   gamma_tr=       0.018128 meV   omega=     55.0343 meV
     lambda___(   4 )=       0.023170   gamma___=       0.029669 meV   omega=     93.2778 meV
     lambda_tr(   4 )=       0.016163   gamma_tr=       0.020696 meV   omega=     93.2778 meV
     lambda___(   5 )=       0.025555   gamma___=       0.033647 meV   omega=     94.5855 meV
     lambda_tr(   5 )=       0.036393   gamma_tr=       0.047917 meV   omega=     94.5855 meV
     lambda___(   6 )=       0.030673   gamma___=       0.050950 meV   omega=    106.2389 meV
     lambda_tr(   6 )=       0.022445   gamma_tr=       0.037283 meV   omega=    106.2389 meV
     lambda___( tot )=       0.117200
     lambda_tr( tot )=       0.134618
     -------------------------------------------------------------------


     Number of (k,k+q) pairs on the Fermi surface:      216 out of      216


     ismear =     1 iq =      31 coord.:   0.00000  0.83333  0.00000 wt:   0.00463
     -------------------------------------------------------------------
     lambda___(   1 )=      -0.016034   gamma___=      -0.000399 meV   omega=     13.0000 meV
     lambda_tr(   1 )=       0.491198   gamma_tr=       0.012217 meV   omega=     13.0000 meV
     lambda___(   2 )=      -0.016034   gamma___=      -0.000399 meV   omega=     13.0000 meV
     lambda_tr(   2 )=       0.491198   gamma_tr=       0.012217 meV   omega=     13.0000 meV
     lambda___(   3 )=      -0.122652   gamma___=      -0.019172 meV   omega=     32.5904 meV
     lambda_tr(   3 )=       0.447936   gamma_tr=       0.070020 meV   omega=     32.5904 meV
     lambda___(   4 )=       0.047824   gamma___=       0.063426 meV   omega=     94.9293 meV
     lambda_tr(   4 )=       0.107328   gamma_tr=       0.142343 meV   omega=     94.9293 meV
     lambda___(   5 )=       0.047824   gamma___=       0.063426 meV   omega=     94.9293 meV
     lambda_tr(   5 )=       0.107328   gamma_tr=       0.142343 meV   omega=     94.9293 meV
     lambda___(   6 )=       0.067258   gamma___=       0.100995 meV   omega=    101.0103 meV
     lambda_tr(   6 )=       0.107060   gamma_tr=       0.160762 meV   omega=    101.0103 meV
     lambda___( tot )=       0.008187
     lambda_tr( tot )=       1.752048
     -------------------------------------------------------------------


     Number of (k,k+q) pairs on the Fermi surface:      216 out of      216


     ismear =     1 iq =      32 coord.:   0.00000  0.83333  0.16667 wt:   0.00463
     -------------------------------------------------------------------
     lambda___(   1 )=       0.053642   gamma___=       0.004460 meV   omega=     23.7682 meV
     lambda_tr(   1 )=       0.096156   gamma_tr=       0.007995 meV   omega=     23.7682 meV
     lambda___(   2 )=       0.000433   gamma___=       0.000067 meV   omega=     32.3693 meV
     lambda_tr(   2 )=       0.006402   gamma_tr=       0.000987 meV   omega=     32.3693 meV
     lambda___(   3 )=       0.000772   gamma___=       0.000265 meV   omega=     48.3457 meV
     lambda_tr(   3 )=       0.047286   gamma_tr=       0.016266 meV   omega=     48.3457 meV
     lambda___(   4 )=       0.031643   gamma___=       0.041195 meV   omega=     94.0532 meV
     lambda_tr(   4 )=       0.045898   gamma_tr=       0.059754 meV   omega=     94.0532 meV
     lambda___(   5 )=       0.029435   gamma___=       0.039638 meV   omega=     95.6563 meV
     lambda_tr(   5 )=       0.035000   gamma_tr=       0.047132 meV   omega=     95.6563 meV
     lambda___(   6 )=       0.026933   gamma___=       0.043214 meV   omega=    104.4139 meV
     lambda_tr(   6 )=       0.029449   gamma_tr=       0.047251 meV   omega=    104.4139 meV
     lambda___( tot )=       0.142858
     lambda_tr( tot )=       0.260190
     -------------------------------------------------------------------


     Number of (k,k+q) pairs on the Fermi surface:      216 out of      216


     ismear =     1 iq =      33 coord.:   0.00000  0.83333  0.33333 wt:   0.00463
     -------------------------------------------------------------------
     lambda___(   1 )=       0.019501   gamma___=       0.003292 meV   omega=     33.8651 meV
     lambda_tr(   1 )=       0.018458   gamma_tr=       0.003115 meV   omega=     33.8651 meV
     lambda___(   2 )=       0.008239   gamma___=       0.002264 meV   omega=     43.2067 meV
     lambda_tr(   2 )=       0.012095   gamma_tr=       0.003323 meV   omega=     43.2067 meV
     lambda___(   3 )=       0.026135   gamma___=       0.017291 meV   omega=     67.0484 meV
     lambda_tr(   3 )=       0.036624   gamma_tr=       0.024230 meV   omega=     67.0484 meV
     lambda___(   4 )=       0.028451   gamma___=       0.035595 meV   omega=     92.2007 meV
     lambda_tr(   4 )=       0.029083   gamma_tr=       0.036386 meV   omega=     92.2007 meV
     lambda___(   5 )=       0.016765   gamma___=       0.021501 meV   omega=     93.3491 meV
     lambda_tr(   5 )=       0.013106   gamma_tr=       0.016808 meV   omega=     93.3491 meV
     lambda___(   6 )=       0.017451   gamma___=       0.028318 meV   omega=    105.0044 meV
     lambda_tr(   6 )=       0.019129   gamma_tr=       0.031041 meV   omega=    105.0044 meV
     lambda___( tot )=       0.116544
     lambda_tr( tot )=       0.128495
     -------------------------------------------------------------------


     Number of (k,k+q) pairs on the Fermi surface:      216 out of      216


     ismear =     1 iq =      34 coord.:   0.00000  0.83333  0.50000 wt:   0.00463
     -------------------------------------------------------------------
     lambda___(   1 )=       0.002776   gamma___=       0.000557 meV   omega=     36.9332 meV
     lambda_tr(   1 )=      -0.001055   gamma_tr=      -0.000212 meV   omega=     36.9332 meV
     lambda___(   2 )=       0.007630   gamma___=       0.002018 meV   omega=     42.3920 meV
     lambda_tr(   2 )=       0.004135   gamma_tr=       0.001094 meV   omega=     42.3920 meV
     lambda___(   3 )=       0.025101   gamma___=       0.018373 meV   omega=     70.5237 meV
     lambda_tr(   3 )=       0.043923   gamma_tr=       0.032150 meV   omega=     70.5237 meV
     lambda___(   4 )=       0.014041   gamma___=       0.017277 meV   omega=     91.4355 meV
     lambda_tr(   4 )=       0.005312   gamma_tr=       0.006536 meV   omega=     91.4355 meV
     lambda___(   5 )=       0.018356   gamma___=       0.023368 meV   omega=     93.0056 meV
     lambda_tr(   5 )=       0.030555   gamma_tr=       0.038898 meV   omega=     93.0056 meV
     lambda___(   6 )=       0.007966   gamma___=       0.012982 meV   omega=    105.2297 meV
     lambda_tr(   6 )=       0.010583   gamma_tr=       0.017247 meV   omega=    105.2297 meV
     lambda___( tot )=       0.075871
     lambda_tr( tot )=       0.093452
     -------------------------------------------------------------------


     Number of (k,k+q) pairs on the Fermi surface:      216 out of      216


     ismear =     1 iq =      35 coord.:   0.00000  0.83333  0.66667 wt:   0.00463
     -------------------------------------------------------------------
     lambda___(   1 )=      -0.001933   gamma___=      -0.000299 meV   omega=     32.3981 meV
     lambda_tr(   1 )=       0.007985   gamma_tr=       0.001233 meV   omega=     32.3981 meV
     lambda___(   2 )=       0.009660   gamma___=       0.001511 meV   omega=     32.6045 meV
     lambda_tr(   2 )=       0.015914   gamma_tr=       0.002490 meV   omega=     32.6045 meV
     lambda___(   3 )=       0.037201   gamma___=       0.017189 meV   omega=     56.0328 meV
     lambda_tr(   3 )=       0.052495   gamma_tr=       0.024256 meV   omega=     56.0328 meV
     lambda___(   4 )=       0.023988   gamma___=       0.030817 meV   omega=     93.4297 meV
     lambda_tr(   4 )=       0.014842   gamma_tr=       0.019068 meV   omega=     93.4297 meV
     lambda___(   5 )=       0.025496   gamma___=       0.034198 meV   omega=     95.4668 meV
     lambda_tr(   5 )=       0.032028   gamma_tr=       0.042960 meV   omega=     95.4668 meV
     lambda___(   6 )=       0.026538   gamma___=       0.043290 meV   omega=    105.2818 meV
     lambda_tr(   6 )=       0.032078   gamma_tr=       0.052328 meV   omega=    105.2818 meV
     lambda___( tot )=       0.120949
     lambda_tr( tot )=       0.155342
     -------------------------------------------------------------------


     Number of (k,k+q) pairs on the Fermi surface:      216 out of      216


     ismear =     1 iq =      36 coord.:   0.00000  0.83333  0.83333 wt:   0.00463
     -------------------------------------------------------------------
     lambda___(   1 )=       0.018125   gamma___=       0.001195 meV   omega=     21.1647 meV
     lambda_tr(   1 )=       0.056356   gamma_tr=       0.003715 meV   omega=     21.1647 meV
     lambda___(   2 )=      -0.017428   gamma___=      -0.001342 meV   omega=     22.8739 meV
     lambda_tr(   2 )=       0.084966   gamma_tr=       0.006543 meV   omega=     22.8739 meV
     lambda___(   3 )=       0.018747   gamma___=       0.003225 meV   omega=     34.1889 meV
     lambda_tr(   3 )=       0.295579   gamma_tr=       0.050847 meV   omega=     34.1889 meV
     lambda___(   4 )=       0.044448   gamma___=       0.058578 meV   omega=     94.6303 meV
     lambda_tr(   4 )=       0.112880   gamma_tr=       0.148765 meV   omega=     94.6303 meV
     lambda___(   5 )=       0.046846   gamma___=       0.062305 meV   omega=     95.0641 meV
     lambda_tr(   5 )=       0.112687   gamma_tr=       0.149875 meV   omega=     95.0641 meV
     lambda___(   6 )=       0.082434   gamma___=       0.125651 meV   omega=    101.7697 meV
     lambda_tr(   6 )=       0.155346   gamma_tr=       0.236788 meV   omega=    101.7697 meV
     lambda___( tot )=       0.193172
     lambda_tr( tot )=       0.817814
     -------------------------------------------------------------------


     Number of (k,k+q) pairs on the Fermi surface:      216 out of      216


     ismear =     1 iq =      37 coord.:   0.16667  0.00000  0.00000 wt:   0.00463
     -------------------------------------------------------------------
     lambda___(   1 )=      -0.048007   gamma___=      -0.001843 meV   omega=     16.1514 meV
     lambda_tr(   1 )=       0.221309   gamma_tr=       0.008496 meV   omega=     16.1514 meV
     lambda___(   2 )=      -0.030174   gamma___=      -0.001370 meV   omega=     17.5657 meV
     lambda_tr(   2 )=       0.095551   gamma_tr=       0.004339 meV   omega=     17.5657 meV
     lambda___(   3 )=       0.037731   gamma___=       0.006060 meV   omega=     33.0363 meV
     lambda_tr(   3 )=       0.297049   gamma_tr=       0.047713 meV   omega=     33.0363 meV
     lambda___(   4 )=       0.036004   gamma___=       0.047011 meV   omega=     94.1914 meV
     lambda_tr(   4 )=       0.090906   gamma_tr=       0.118697 meV   omega=     94.1914 meV
     lambda___(   5 )=       0.037788   gamma___=       0.049576 meV   omega=     94.4169 meV
     lambda_tr(   5 )=       0.081019   gamma_tr=       0.106294 meV   omega=     94.4169 meV
     lambda___(   6 )=       0.054485   gamma___=       0.081621 meV   omega=    100.8909 meV
     lambda_tr(   6 )=       0.099720   gamma_tr=       0.149386 meV   omega=    100.8909 meV
     lambda___( tot )=       0.087828
     lambda_tr( tot )=       0.885554
     -------------------------------------------------------------------


     Number of (k,k+q) pairs on the Fermi surface:      216 out of      216


     ismear =     1 iq =      38 coord.:   0.16667  0.00000  0.16667 wt:   0.00463
     -------------------------------------------------------------------
     lambda___(   1 )=       0.018124   gamma___=       0.001195 meV   omega=     21.1647 meV
     lambda_tr(   1 )=       0.056314   gamma_tr=       0.003712 meV   omega=     21.1647 meV
     lambda___(   2 )=      -0.017428   gamma___=      -0.001342 meV   omega=     22.8739 meV
     lambda_tr(   2 )=       0.088880   gamma_tr=       0.006844 meV   omega=     22.8739 meV
     lambda___(   3 )=       0.018748   gamma___=       0.003225 meV   omega=     34.1889 meV
     lambda_tr(   3 )=       0.268329   gamma_tr=       0.046160 meV   omega=     34.1889 meV
     lambda___(   4 )=       0.044448   gamma___=       0.058578 meV   omega=     94.6303 meV
     lambda_tr(   4 )=       0.119478   gamma_tr=       0.157461 meV   omega=     94.6303 meV
     lambda___(   5 )=       0.046846   gamma___=       0.062305 meV   omega=     95.0641 meV
     lambda_tr(   5 )=       0.118184   gamma_tr=       0.157186 meV   omega=     95.0641 meV
     lambda___(   6 )=       0.082434   gamma___=       0.125651 meV   omega=    101.7697 meV
     lambda_tr(   6 )=       0.145564   gamma_tr=       0.221877 meV   omega=    101.7697 meV
     lambda___( tot )=       0.193172
     lambda_tr( tot )=       0.796749
     -------------------------------------------------------------------


     Number of (k,k+q) pairs on the Fermi surface:      216 out of      216


     ismear =     1 iq =      39 coord.:   0.16667  0.00000  0.33333 wt:   0.00463
     -------------------------------------------------------------------
     lambda___(   1 )=       0.003348   gamma___=       0.000530 meV   omega=     32.7996 meV
     lambda_tr(   1 )=       0.001020   gamma_tr=       0.000162 meV   omega=     32.7996 meV
     lambda___(   2 )=       0.008369   gamma___=       0.001450 meV   omega=     34.3130 meV
     lambda_tr(   2 )=       0.014119   gamma_tr=       0.002447 meV   omega=     34.3130 meV
     lambda___(   3 )=       0.028475   gamma___=       0.012634 meV   omega=     54.9064 meV
     lambda_tr(   3 )=       0.012205   gamma_tr=       0.005415 meV   omega=     54.9064 meV
     lambda___(   4 )=       0.023110   gamma___=       0.029594 meV   omega=     93.2802 meV
     lambda_tr(   4 )=       0.020154   gamma_tr=       0.025809 meV   omega=     93.2802 meV
     lambda___(   5 )=       0.026061   gamma___=       0.034258 meV   omega=     94.5092 meV
     lambda_tr(   5 )=       0.027516   gamma_tr=       0.036171 meV   omega=     94.5092 meV
     lambda___(   6 )=       0.031478   gamma___=       0.052249 meV   omega=    106.2006 meV
     lambda_tr(   6 )=       0.009794   gamma_tr=       0.016257 meV   omega=    106.2006 meV
     lambda___( tot )=       0.120841
     lambda_tr( tot )=       0.084809
     -------------------------------------------------------------------


     Number of (k,k+q) pairs on the Fermi surface:      216 out of      216


     ismear =     1 iq =      40 coord.:   0.16667  0.00000  0.50000 wt:   0.00463
     -------------------------------------------------------------------
     lambda___(   1 )=       0.001423   gamma___=       0.000292 meV   omega=     37.3468 meV
     lambda_tr(   1 )=      -0.002248   gamma_tr=      -0.000461 meV   omega=     37.3468 meV
     lambda___(   2 )=       0.011942   gamma___=       0.003174 meV   omega=     42.4982 meV
     lambda_tr(   2 )=       0.009598   gamma_tr=       0.002551 meV   omega=     42.4982 meV
     lambda___(   3 )=       0.023875   gamma___=       0.017699 meV   omega=     70.9726 meV
     lambda_tr(   3 )=       0.001984   gamma_tr=       0.001471 meV   omega=     70.9726 meV
     lambda___(   4 )=       0.013205   gamma___=       0.016178 meV   omega=     91.2387 meV
     lambda_tr(   4 )=       0.009772   gamma_tr=       0.011972 meV   omega=     91.2387 meV
     lambda___(   5 )=       0.017589   gamma___=       0.022296 meV   omega=     92.8067 meV
     lambda_tr(   5 )=       0.009819   gamma_tr=       0.012446 meV   omega=     92.8067 meV
     lambda___(   6 )=       0.009501   gamma___=       0.015442 meV   omega=    105.0854 meV
     lambda_tr(   6 )=       0.006085   gamma_tr=       0.009889 meV   omega=    105.0854 meV
     lambda___( tot )=       0.077536
     lambda_tr( tot )=       0.035009
     -------------------------------------------------------------------


     Number of (k,k+q) pairs on the Fermi surface:      216 out of      216


     ismear =     1 iq =      41 coord.:   0.16667  0.00000  0.66667 wt:   0.00463
     -------------------------------------------------------------------
     lambda___(   1 )=       0.006747   gamma___=       0.001170 meV   omega=     34.3301 meV
[...]
      208        3     -4.4503     15.8245    188.9589      1.0191     -0.0187
      209        3     -1.9911    123.0493    357.6673      1.1148     -0.1030
      210        3     -2.2746     97.2914    350.6783      1.1037     -0.0939
      211        3     -1.1893    203.6124    288.9645      1.0631     -0.0594
      212        3     -1.9911    123.0493    357.6673      1.1148     -0.1030
      213        3     -2.9817     42.2097    291.9616      1.0605     -0.0570
      214        3     -3.4617     26.2309    244.7318      1.0374     -0.0360
      215        3     -2.2746     96.5814    352.8924      1.1055     -0.0954
      216        3     -0.6014    229.5022    181.0006      1.0140     -0.0138
  
        1        4     -0.3992    234.5174    146.4668      0.9989      0.0011
        2        4     -0.6014    229.5022    181.0006      1.0140     -0.0138
        3        4     -1.2665    189.3071    293.2258      1.0692     -0.0647
        4        4     -1.7294    141.1209    332.1861      1.1039     -0.0941
        5        4     -1.2665    189.3068    293.2244      1.0692     -0.0647
        6        4     -0.6014    229.5016    181.0001      1.0140     -0.0138
        7        4     -0.6014    229.2601    183.9770      1.0157     -0.0154
        8        4     -1.1893    203.6122    288.9643      1.0631     -0.0594
        9        4     -1.7453    148.6689    348.0948      1.1093     -0.0985
       10        4     -2.2693     91.5114    333.2662      1.0981     -0.0893
       11        4     -1.4850    166.7451    318.6674      1.0891     -0.0818
       12        4     -0.6189    223.9955    185.5281      1.0175     -0.0172
       13        4     -1.2665    189.3683    294.9202      1.0694     -0.0649
       14        4     -1.7453    147.3154    350.5051      1.1102     -0.0993
       15        4     -3.0665     37.8615    275.6474      1.0562     -0.0532
       16        4     -3.4814     26.5807    225.1740      1.0333     -0.0323
       17        4     -2.6245     63.2610    314.8034      1.0738     -0.0687
       18        4     -1.4850    167.2667    322.6601      1.0906     -0.0831
       19        4     -1.7294    140.9694    331.1296      1.1038     -0.0940
       20        4     -2.2693     91.2646    336.7551      1.0998     -0.0907
       21        4     -3.4814     27.7378    224.9986      1.0320     -0.0310
       22        4     -4.1536     22.1209    174.4223      1.0098     -0.0097
       23        4     -3.4814     27.7384    224.9995      1.0320     -0.0310
       24        4     -2.2693     91.2648    336.7546      1.0998     -0.0907
       25        4     -1.2665    189.3683    294.9188      1.0694     -0.0649
       26        4     -1.4850    167.2666    322.6594      1.0906     -0.0831
       27        4     -2.6245     63.2607    314.8023      1.0738     -0.0687
       28        4     -3.4814     26.5810    225.1755      1.0333     -0.0323
       29        4     -3.0665     37.8615    275.6480      1.0562     -0.0532
       30        4     -1.7453    147.3154    350.5047      1.1102     -0.0993
       31        4     -0.6014    229.2595    183.9757      1.0157     -0.0154
       32        4     -0.6189    223.9956    185.5276      1.0175     -0.0172
       33        4     -1.4850    166.7446    318.6686      1.0891     -0.0818
       34        4     -2.2693     91.5108    333.2660      1.0981     -0.0893
       35        4     -1.7453    148.6686    348.0954      1.1093     -0.0985
       36        4     -1.1893    203.6124    288.9645      1.0631     -0.0594
       37        4     -0.6014    229.5022    181.0006      1.0140     -0.0138
       38        4     -1.1893    203.6124    288.9645      1.0631     -0.0594
       39        4     -1.7453    147.7965    350.5755      1.1101     -0.0992
       40        4     -2.2693     89.5213    336.5385      1.0999     -0.0909
       41        4     -1.4850    167.8061    320.4914      1.0896     -0.0823
       42        4     -0.6189    224.3049    181.9987      1.0154     -0.0152
       43        4     -1.1893    203.6122    288.9643      1.0631     -0.0594
       44        4     -0.6014    229.5016    181.0001      1.0140     -0.0138
       45        4     -0.6189    224.3049    181.9987      1.0154     -0.0152
       46        4     -1.4850    167.8061    320.4912      1.0896     -0.0823
       47        4     -2.2693     89.5218    336.5373      1.0999     -0.0909
       48        4     -1.7453    147.7967    350.5749      1.1101     -0.0992
       49        4     -1.7453    147.3154    350.5051      1.1102     -0.0993
       50        4     -0.6189    223.9955    185.5281      1.0175     -0.0172
       51        4     -1.7453    147.7967    350.5748      1.1101     -0.0992
       52        4     -2.3570     83.4188    335.1402      1.0948     -0.0866
       53        4     -3.1301     42.0130    255.7964      1.0491     -0.0468
       54        4     -2.3570     82.9315    337.0544      1.0955     -0.0871
       55        4     -2.2693     91.2646    336.7551      1.0998     -0.0907
       56        4     -1.4850    167.2667    322.6601      1.0906     -0.0831
       57        4     -2.3570     82.9315    337.0544      1.0955     -0.0871
       58        4     -3.4814     24.4968    222.4934      1.0318     -0.0309
       59        4     -4.2518     34.3636    175.9902      1.0135     -0.0134
       60        4     -3.1301     42.9094    257.5784      1.0486     -0.0464
       61        4     -1.4850    167.2666    322.6594      1.0906     -0.0831
       62        4     -2.2693     91.2648    336.7546      1.0998     -0.0907
       63        4     -3.1301     42.9094    257.5784      1.0486     -0.0464
       64        4     -4.2518     34.3635    175.9909      1.0135     -0.0134
       65        4     -3.4814     24.4965    222.4929      1.0318     -0.0309
       66        4     -2.3570     82.9308    337.0533      1.0955     -0.0871
       67        4     -0.6189    223.9956    185.5276      1.0175     -0.0172
       68        4     -1.7453    147.3154    350.5047      1.1102     -0.0993
       69        4     -2.3570     82.9308    337.0533      1.0955     -0.0871
       70        4     -3.1301     42.0123    255.7953      1.0491     -0.0468
       71        4     -2.3570     83.4184    335.1410      1.0948     -0.0866
       72        4     -1.7453    147.7964    350.5755      1.1101     -0.0992
       73        4     -1.2665    189.3071    293.2258      1.0692     -0.0647
       74        4     -1.7453    147.7965    350.5755      1.1101     -0.0992
       75        4     -3.0665     37.8615    275.6480      1.0562     -0.0532
       76        4     -3.4814     24.4965    222.4929      1.0318     -0.0309
       77        4     -2.6245     62.9258    315.2471      1.0743     -0.0692
       78        4     -1.4850    167.8061    320.4912      1.0896     -0.0823
       79        4     -1.7453    148.6689    348.0948      1.1093     -0.0985
       80        4     -0.6189    224.3049    181.9987      1.0154     -0.0152
       81        4     -1.7453    148.6686    348.0954      1.1093     -0.0985
       82        4     -2.3570     83.4184    335.1410      1.0948     -0.0866
       83        4     -3.1301     40.3031    255.3043      1.0495     -0.0472
       84        4     -2.3570     83.4188    335.1402      1.0948     -0.0866
       85        4     -3.0665     37.8615    275.6474      1.0562     -0.0532
       86        4     -1.7453    147.7967    350.5748      1.1101     -0.0992
       87        4     -1.2665    189.3068    293.2244      1.0692     -0.0647
       88        4     -1.4850    167.8061    320.4914      1.0896     -0.0823
       89        4     -2.6245     62.9258    315.2471      1.0743     -0.0692
       90        4     -3.4814     24.4968    222.4934      1.0318     -0.0309
       91        4     -3.4814     27.7378    224.9986      1.0320     -0.0310
       92        4     -2.3570     82.9315    337.0544      1.0955     -0.0871
       93        4     -1.4850    166.7451    318.6674      1.0891     -0.0818
       94        4     -2.2693     89.5219    336.5373      1.0999     -0.0909
       95        4     -3.1301     40.3031    255.3043      1.0495     -0.0472
       96        4     -4.2518     34.3635    175.9909      1.0135     -0.0134
       97        4     -2.6245     63.2607    314.8023      1.0738     -0.0687
       98        4     -3.1301     42.9094    257.5784      1.0486     -0.0464
       99        4     -2.6245     63.2610    314.8034      1.0738     -0.0687
      100        4     -3.1301     42.0130    255.7964      1.0491     -0.0468
      101        4     -2.6245     62.9258    315.2471      1.0743     -0.0692
      102        4     -3.1301     42.0123    255.7953      1.0491     -0.0468
      103        4     -1.4850    166.7446    318.6686      1.0891     -0.0818
      104        4     -2.3570     82.9308    337.0533      1.0955     -0.0871
      105        4     -3.4814     27.7384    224.9995      1.0320     -0.0310
      106        4     -4.2518     34.3636    175.9902      1.0135     -0.0134
      107        4     -3.1301     40.3031    255.3043      1.0495     -0.0472
      108        4     -2.2693     89.5214    336.5385      1.0999     -0.0909
      109        4     -1.7294    141.1209    332.1861      1.1039     -0.0941
      110        4     -2.2693     89.5214    336.5385      1.0999     -0.0909
      111        4     -3.4814     24.4965    222.4929      1.0318     -0.0309
      112        4     -4.1536     22.1209    174.4223      1.0098     -0.0097
      113        4     -3.4814     24.4968    222.4934      1.0318     -0.0309
      114        4     -2.2693     89.5218    336.5373      1.0999     -0.0909
      115        4     -2.2693     91.5114    333.2662      1.0981     -0.0893
      116        4     -1.4850    167.8061    320.4912      1.0896     -0.0823
      117        4     -2.3570     83.4184    335.1410      1.0948     -0.0866
      118        4     -3.4814     26.5810    225.1755      1.0333     -0.0323
      119        4     -4.2518     34.3635    175.9909      1.0135     -0.0134
      120        4     -3.1301     42.0130    255.7964      1.0491     -0.0468
      121        4     -3.4814     26.5807    225.1740      1.0333     -0.0323
      122        4     -2.3570     83.4188    335.1402      1.0948     -0.0866
      123        4     -1.4850    167.8061    320.4914      1.0896     -0.0823
      124        4     -2.2693     91.5108    333.2660      1.0981     -0.0893
      125        4     -3.1301     42.0123    255.7953      1.0491     -0.0468
      126        4     -4.2518     34.3636    175.9902      1.0135     -0.0134
      127        4     -4.1536     22.1209    174.4223      1.0098     -0.0097
      128        4     -3.4814     24.4968    222.4934      1.0318     -0.0309
      129        4     -2.2693     89.5218    336.5373      1.0999     -0.0909
      130        4     -1.7294    141.1209    332.1862      1.1039     -0.0941
      131        4     -2.2693     89.5214    336.5385      1.0999     -0.0909
      132        4     -3.4814     24.4965    222.4929      1.0318     -0.0309
      133        4     -3.4814     26.5810    225.1755      1.0333     -0.0323
      134        4     -4.2518     34.3635    175.9909      1.0135     -0.0134
      135        4     -3.1301     42.0130    255.7964      1.0491     -0.0468
      136        4     -2.2693     91.5114    333.2662      1.0981     -0.0893
      137        4     -1.4850    167.8061    320.4912      1.0896     -0.0823
      138        4     -2.3570     83.4184    335.1410      1.0948     -0.0866
      139        4     -2.2693     91.5108    333.2660      1.0981     -0.0893
      140        4     -3.1301     42.0123    255.7953      1.0491     -0.0468
      141        4     -4.2518     34.3636    175.9902      1.0135     -0.0134
      142        4     -3.4814     26.5807    225.1740      1.0333     -0.0323
      143        4     -2.3570     83.4189    335.1402      1.0948     -0.0866
      144        4     -1.4850    167.8061    320.4914      1.0896     -0.0823
      145        4     -1.2665    189.3068    293.2244      1.0692     -0.0647
      146        4     -1.4850    167.8061    320.4914      1.0896     -0.0823
      147        4     -2.6245     62.9258    315.2471      1.0743     -0.0692
      148        4     -3.4814     24.4968    222.4934      1.0318     -0.0309
      149        4     -3.0665     37.8615    275.6474      1.0562     -0.0532
      150        4     -1.7453    147.7967    350.5748      1.1101     -0.0992
      151        4     -1.4850    166.7451    318.6674      1.0891     -0.0818
      152        4     -2.2693     89.5218    336.5373      1.0999     -0.0909
      153        4     -3.1301     40.3031    255.3043      1.0495     -0.0472
      154        4     -4.2518     34.3635    175.9909      1.0135     -0.0134
      155        4     -3.4814     27.7378    224.9986      1.0320     -0.0310
      156        4     -2.3570     82.9315    337.0544      1.0955     -0.0871
      157        4     -2.6245     63.2610    314.8034      1.0738     -0.0687
      158        4     -3.1301     42.0130    255.7964      1.0491     -0.0468
      159        4     -2.6245     62.9258    315.2471      1.0743     -0.0692
      160        4     -3.1301     42.0123    255.7953      1.0491     -0.0468
      161        4     -2.6245     63.2607    314.8023      1.0738     -0.0687
      162        4     -3.1301     42.9094    257.5784      1.0486     -0.0464
      163        4     -3.4814     27.7385    224.9995      1.0320     -0.0310
      164        4     -4.2518     34.3636    175.9902      1.0135     -0.0134
      165        4     -3.1301     40.3031    255.3043      1.0495     -0.0472
      166        4     -2.2693     89.5214    336.5385      1.0999     -0.0909
      167        4     -1.4850    166.7446    318.6686      1.0891     -0.0818
      168        4     -2.3570     82.9308    337.0533      1.0955     -0.0871
      169        4     -3.0665     37.8615    275.6480      1.0562     -0.0532
      170        4     -3.4814     24.4966    222.4929      1.0318     -0.0309
      171        4     -2.6245     62.9258    315.2471      1.0743     -0.0692
      172        4     -1.4850    167.8061    320.4912      1.0896     -0.0823
      173        4     -1.2665    189.3071    293.2258      1.0692     -0.0647
      174        4     -1.7453    147.7964    350.5755      1.1101     -0.0992
      175        4     -1.7453    148.6686    348.0954      1.1093     -0.0985
      176        4     -2.3570     83.4184    335.1410      1.0948     -0.0866
      177        4     -3.1301     40.3031    255.3043      1.0495     -0.0472
      178        4     -2.3570     83.4188    335.1402      1.0948     -0.0866
      179        4     -1.7453    148.6689    348.0948      1.1093     -0.0985
      180        4     -0.6189    224.3049    181.9987      1.0154     -0.0152
      181        4     -0.6014    229.5015    181.0001      1.0140     -0.0138
      182        4     -0.6189    224.3049    181.9987      1.0154     -0.0152
      183        4     -1.4850    167.8061    320.4912      1.0896     -0.0823
      184        4     -2.2693     89.5218    336.5373      1.0999     -0.0909
      185        4     -1.7453    147.7967    350.5748      1.1101     -0.0992
      186        4     -1.1893    203.6122    288.9643      1.0631     -0.0594
      187        4     -0.6189    223.9955    185.5281      1.0175     -0.0172
      188        4     -1.7453    147.7967    350.5748      1.1101     -0.0992
      189        4     -2.3570     83.4189    335.1402      1.0948     -0.0866
      190        4     -3.1301     42.0130    255.7964      1.0491     -0.0468
      191        4     -2.3570     82.9315    337.0544      1.0955     -0.0871
      192        4     -1.7453    147.3154    350.5051      1.1102     -0.0993
      193        4     -1.4850    167.2667    322.6601      1.0906     -0.0831
      194        4     -2.3570     82.9315    337.0544      1.0955     -0.0871
      195        4     -3.4814     24.4968    222.4934      1.0318     -0.0309
      196        4     -4.2518     34.3636    175.9902      1.0135     -0.0134
      197        4     -3.1301     42.9094    257.5784      1.0486     -0.0464
      198        4     -2.2693     91.2646    336.7551      1.0998     -0.0907
      199        4     -2.2693     91.2648    336.7546      1.0998     -0.0907
      200        4     -3.1301     42.9094    257.5784      1.0486     -0.0464
      201        4     -4.2518     34.3635    175.9909      1.0135     -0.0134
      202        4     -3.4814     24.4965    222.4929      1.0318     -0.0309
      203        4     -2.3570     82.9308    337.0533      1.0955     -0.0871
      204        4     -1.4850    167.2666    322.6594      1.0906     -0.0831
      205        4     -1.7453    147.3154    350.5047      1.1102     -0.0993
      206        4     -2.3570     82.9308    337.0533      1.0955     -0.0871
      207        4     -3.1301     42.0123    255.7953      1.0491     -0.0468
      208        4     -2.3570     83.4184    335.1410      1.0948     -0.0866
      209        4     -1.7453    147.7965    350.5755      1.1101     -0.0992
      210        4     -0.6189    223.9956    185.5276      1.0175     -0.0172
      211        4     -1.1893    203.6124    288.9645      1.0631     -0.0594
      212        4     -1.7453    147.7964    350.5755      1.1101     -0.0992
      213        4     -2.2693     89.5214    336.5385      1.0999     -0.0909
      214        4     -1.4850    167.8061    320.4914      1.0896     -0.0823
      215        4     -0.6189    224.3049    181.9987      1.0154     -0.0152
      216        4     -0.6014    229.5022    181.0006      1.0140     -0.0138
  
     ===================================================================
     Memory usage:  VmHWM =        99Mb
                   VmPeak =       452Mb
     ===================================================================


     ===================================================================
     Eliashberg Spectral Function in the Migdal Approximation
     ===================================================================

     lambda :    0.0786389
     lambda_tr :    0.1235802
 
     Estimated Allen-Dynes Tc
 
     logavg =    0.0058003 l_a2f =    0.0844911
     a2F          :      0.13s CPU      0.15s WALL (       1 calls)

     Unfolding on the coarse grid
     elphon_wrap  :      6.32s CPU      8.79s WALL (       1 calls)

     INITIALIZATION: 

     init_vloc    :      0.00s CPU      0.00s WALL (       1 calls)
     init_us_1    :      0.02s CPU      0.02s WALL (       2 calls)



     Electron-Phonon interpolation
     ephwann      :      0.79s CPU      1.10s WALL (       1 calls)
     ep-interp    :      0.58s CPU      0.73s WALL (     216 calls)
     PH SELF-ENER :      0.05s CPU      0.06s WALL (     216 calls)

     Ham: step 1  :      0.00s CPU      0.00s WALL (       1 calls)
     Ham: step 2  :      0.00s CPU      0.00s WALL (       1 calls)
     ep: step 1   :      0.00s CPU      0.00s WALL (     162 calls)
     ep: step 2   :      0.75s CPU      1.05s WALL (       1 calls)
     DynW2B       :      0.00s CPU      0.00s WALL (     216 calls)
     HamW2B       :      0.14s CPU      0.18s WALL (   23490 calls)
     ephW2Bp      :      0.07s CPU      0.12s WALL (     216 calls)
     ephW2B       :      0.08s CPU      0.09s WALL (   11664 calls)


     Total program execution
     EPW          :      7.78s CPU     10.77s WALL

                                                                                          
 Please consider citing:                                                                  
 S. Ponce, E. R. Margine, C. Verdi and F. Giustino, Comput. Phys. Commun. 209, 116 (2016) 
                                                                                          
