                                                                                      
                                       ``:oss/                                        
                           `.+s+.     .+ys--yh+     `./ss+.                           
                          -sh//yy+`   +yy   +yy    -+h+-oyy                           
                          -yh- .oyy/.-sh.   .syo-.:sy-  /yh                           
                 `.-.`    `yh+   -oyyyo.     `/syys:    oys      `.`                  
               `/+ssys+-` `sh+      `                   oys`   .:osyo`                
               -yh- ./syyooyo`                          .sys+/oyo--yh/                
               `yy+    .-:-.                             `-/+/:`  -sh-                
                /yh.                                              oys                 
          ``..---hho---------`   .---------..`      `.-----.`    -hd+---.             
       `./osmNMMMMMMMMMMMMMMMs. +NNMMMMMMMMNNmh+.   yNMMMMMNm-  oNMMMMMNmo++:`        
       +sy--/sdMMMhyyyyyyyNMMh- .oyNMMmyyyyyhNMMm+` -yMMMdyyo:` .oyyNMMNhs+syy`       
       -yy/   /MMM+.`-+/``mMMy-   `mMMh:`````.dMMN:` `MMMy-`-dhhy```mMMy:``+hs        
        -yy+` /MMMo:-mMM+`-oo/.    mMMh:     `dMMN/`  dMMm:`dMMMMy..MMMo-.+yo`        
         .sys`/MMMMNNMMMs-         mMMmyooooymMMNo:   oMMM/sMMMMMM++MMN//oh:          
          `sh+/MMMhyyMMMs- `-`     mMMMMMMMMMNmy+-`   -MMMhMMMsmMMmdMMd/yy+           
    `-/+++oyy-/MMM+.`/hh/.`mNm:`   mMMd+/////:-.`      NMMMMMd/:NMMMMMy:/yyo/:.`      
   +os+//:-..-oMMMo:--:::-/MMMo. .-mMMd+---`           hMMMMN+. oMMMMMo. `-+osyso:`   
   syo     `mNMMMMMNNNNNNNNMMMo.oNNMMMMMNNNN:`         +MMMMs:`  dMMMN/`     ``:syo   
   /yh`     :syyyyyyyyyyyyyyyy+.`+syyyyyyyyo:`         .oyys:`   .oyys:`        +yh   
   -yh-        ````````````````    `````````              ``        ``          oys   
   -+h/------------------------::::::::://////++++++++++++++++++++++///////::::/yd:   
   shdddddddddddddddddddddddddddddhhhhhhhhyyyyyssssssssssssssssyyyyyyyhhhhhhhddddh`   
                                                                                      
  S. Ponce, E. R. Margine, C. Verdi, and F. Giustino,                                 
                                                Comput. Phys. Commun. 209, 116 (2016) 
                                                                                      

     Program EPW v.5.0.0 starts on  1Jul2018 at 17:22:38 

     This program is part of the open-source Quantum ESPRESSO suite
     for quantum simulation of materials; please cite
         "P. Giannozzi et al., J. Phys.:Condens. Matter 21 395502 (2009);
         "P. Giannozzi et al., J. Phys.:Condens. Matter 29 465901 (2017);
          URL http://www.quantum-espresso.org", 
     in publications or presentations arising from this work. More details at
     http://www.quantum-espresso.org/quote

     Parallel version (MPI), running on     1 processors

     MPI processes distributed on     1 nodes

     Reading data from directory:
     ./sic.save/

     IMPORTANT: XC functional enforced from input :
     Exchange-correlation      = PZ ( 1  1  0  0 0 0)
     Any further DFT definition will be discarded
     Please, verify this is what you really want

               file C.UPF: wavefunction(s)  3d renormalized
 
     G-vector sticks info
     --------------------
     sticks:   dense  smooth     PW     G-vecs:    dense   smooth      PW
     Sum         559     559    187                 8801     8801    1591
 

Possibly too few bands at point    1   0.00000   0.00000   0.00000

Possibly too few bands at point    2  -0.33333   0.33333  -0.33333

Possibly too few bands at point    3  -0.66667   0.66667  -0.66667

Possibly too few bands at point    4   0.33333   0.33333   0.33333

Possibly too few bands at point    5   0.00000   0.66667   0.00000

Possibly too few bands at point    6  -0.33333   1.00000  -0.33333

Possibly too few bands at point    7   0.66667   0.66667   0.66667

Possibly too few bands at point    8   0.33333   1.00000   0.33333

Possibly too few bands at point    9   0.00000   1.33333   0.00000

Possibly too few bands at point   10  -0.33333  -0.33333   0.33333

Possibly too few bands at point   11  -0.66667   0.00000   0.00000

Possibly too few bands at point   12  -1.00000   0.33333  -0.33333

Possibly too few bands at point   13   0.00000   0.00000   0.66667

Possibly too few bands at point   14  -0.33333   0.33333   0.33333

Possibly too few bands at point   15  -0.66667   0.66667  -0.00000

Possibly too few bands at point   16   0.33333   0.33333   1.00000

Possibly too few bands at point   17   0.00000   0.66667   0.66667

Possibly too few bands at point   18  -0.33333   1.00000   0.33333

Possibly too few bands at point   19  -0.66667  -0.66667   0.66667

Possibly too few bands at point   20  -1.00000  -0.33333   0.33333

Possibly too few bands at point   21  -1.33333   0.00000   0.00000

Possibly too few bands at point   22  -0.33333  -0.33333   1.00000

Possibly too few bands at point   23  -0.66667  -0.00000   0.66667

Possibly too few bands at point   24  -1.00000   0.33333   0.33333

Possibly too few bands at point   25   0.00000   0.00000   1.33333

Possibly too few bands at point   26  -0.33333   0.33333   1.00000

Possibly too few bands at point   27  -0.66667   0.66667   0.66667

     --                                                                         

     bravais-lattice index     =            2
     lattice parameter (a_0)   =       8.2370  a.u.
     unit-cell volume          =     139.7163 (a.u.)^3
     number of atoms/cell      =            2
     number of atomic types    =            2
     kinetic-energy cut-off    =      60.0000  Ry
     charge density cut-off    =     240.0000  Ry
     convergence threshold     =      0.0E+00
     beta                      =       0.0000
     number of iterations used =            0
     Exchange-correlation      = PZ ( 1  1  0  0 0 0)


     celldm(1)=    8.23700  celldm(2)=    0.00000  celldm(3)=    0.00000
     celldm(4)=    0.00000  celldm(5)=    0.00000  celldm(6)=    0.00000

     crystal axes: (cart. coord. in units of a_0)
               a(1) = ( -0.5000  0.0000  0.5000 )  
               a(2) = (  0.0000  0.5000  0.5000 )  
               a(3) = ( -0.5000  0.5000  0.0000 )  

     reciprocal axes: (cart. coord. in units 2 pi/a_0)
               b(1) = ( -1.0000 -1.0000  1.0000 )  
               b(2) = (  1.0000  1.0000  1.0000 )  
               b(3) = ( -1.0000  1.0000 -1.0000 )  


     Atoms inside the unit cell: 

   Cartesian axes

     site n.  atom      mass           positions (a_0 units)
        1        Si  28.0879   tau( 1) = (    0.00000    0.00000    0.00000  )
        2        C   12.0118   tau( 2) = (    0.25000    0.25000    0.25000  )
 
     25 Sym.Ops. (with q -> -q+G )


     G cutoff =  412.4674  (   8801 G-vectors)     FFT grid: ( 30, 30, 30)
     number of k points=   27  gaussian broad. (Ry)=  0.0200     ngauss =   1
                       cart. coord. in units 2pi/a_0
        k(    1) = (   0.0000000   0.0000000   0.0000000), wk =   0.0740741
        k(    2) = (  -0.3333333   0.3333333  -0.3333333), wk =   0.0740741
        k(    3) = (  -0.6666667   0.6666667  -0.6666667), wk =   0.0740741
        k(    4) = (   0.3333333   0.3333333   0.3333333), wk =   0.0740741
        k(    5) = (   0.0000000   0.6666667   0.0000000), wk =   0.0740741
        k(    6) = (  -0.3333333   1.0000000  -0.3333333), wk =   0.0740741
        k(    7) = (   0.6666667   0.6666667   0.6666667), wk =   0.0740741
        k(    8) = (   0.3333333   1.0000000   0.3333333), wk =   0.0740741
        k(    9) = (   0.0000000   1.3333333   0.0000000), wk =   0.0740741
        k(   10) = (  -0.3333333  -0.3333333   0.3333333), wk =   0.0740741
        k(   11) = (  -0.6666667   0.0000000   0.0000000), wk =   0.0740741
        k(   12) = (  -1.0000000   0.3333333  -0.3333333), wk =   0.0740741
        k(   13) = (   0.0000000   0.0000000   0.6666667), wk =   0.0740741
        k(   14) = (  -0.3333333   0.3333333   0.3333333), wk =   0.0740741
        k(   15) = (  -0.6666667   0.6666667  -0.0000000), wk =   0.0740741
        k(   16) = (   0.3333333   0.3333333   1.0000000), wk =   0.0740741
        k(   17) = (   0.0000000   0.6666667   0.6666667), wk =   0.0740741
        k(   18) = (  -0.3333333   1.0000000   0.3333333), wk =   0.0740741
        k(   19) = (  -0.6666667  -0.6666667   0.6666667), wk =   0.0740741
        k(   20) = (  -1.0000000  -0.3333333   0.3333333), wk =   0.0740741
        k(   21) = (  -1.3333333   0.0000000   0.0000000), wk =   0.0740741
        k(   22) = (  -0.3333333  -0.3333333   1.0000000), wk =   0.0740741
        k(   23) = (  -0.6666667  -0.0000000   0.6666667), wk =   0.0740741
        k(   24) = (  -1.0000000   0.3333333   0.3333333), wk =   0.0740741
        k(   25) = (   0.0000000   0.0000000   1.3333333), wk =   0.0740741
        k(   26) = (  -0.3333333   0.3333333   1.0000000), wk =   0.0740741
        k(   27) = (  -0.6666667   0.6666667   0.6666667), wk =   0.0740741

     PseudoPot. # 1 for Si read from file:
     ./Si.pz-vbc.UPF
     MD5 check sum: 6dfa03ddd5817404712e03e4d12deb78
     Pseudo is Norm-conserving, Zval =  4.0
     Generated by new atomic code, or converted to UPF format
     Using radial grid of  431 points,  2 beta functions with: 
                l(1) =   0
                l(2) =   1

     PseudoPot. # 2 for C  read from file:
     ./C.UPF
     MD5 check sum: 4781e8ce5ee01a432381f51d0ea25c53
     Pseudo is Norm-conserving, Zval =  4.0
     Generated by new atomic code, or converted to UPF format
     Using radial grid of  461 points,  2 beta functions with: 
                l(1) =   0
                l(2) =   1
     EPW          :     0.14s CPU         0.15s WALL

     EPW          :     0.26s CPU         0.26s WALL

     No wavefunction gauge setting applied
     -------------------------------------------------------------------
     Wannierization on  3 x  3 x  3 electronic grid
     -------------------------------------------------------------------
 
     Spin CASE ( default = unpolarized )
 
     Initializing Wannier90
 
 
     Initial Wannier projections
 
     (   0.00000   0.00000   0.00000) :  l =  -3 mr =   1
     (   0.00000   0.00000   0.00000) :  l =  -3 mr =   2
     (   0.00000   0.00000   0.00000) :  l =  -3 mr =   3
     (   0.00000   0.00000   0.00000) :  l =  -3 mr =   4

      - Number of bands is (  4)
      - Number of total bands is (  4)
      - Number of excluded bands is (  0)
      - Number of wannier functions is (  4)
      - All guiding functions are given 
 
  Reading data about k-point neighbours 
 
      - All neighbours are found 
 
     AMN
      k points =    27 in    1 pools
            1 of   27 on ionode
            2 of   27 on ionode
            3 of   27 on ionode
            4 of   27 on ionode
            5 of   27 on ionode
            6 of   27 on ionode
            7 of   27 on ionode
            8 of   27 on ionode
            9 of   27 on ionode
           10 of   27 on ionode
           11 of   27 on ionode
           12 of   27 on ionode
           13 of   27 on ionode
           14 of   27 on ionode
           15 of   27 on ionode
           16 of   27 on ionode
           17 of   27 on ionode
           18 of   27 on ionode
           19 of   27 on ionode
           20 of   27 on ionode
           21 of   27 on ionode
           22 of   27 on ionode
           23 of   27 on ionode
           24 of   27 on ionode
           25 of   27 on ionode
           26 of   27 on ionode
           27 of   27 on ionode
 
     AMN calculated
 
     MMN
      k points =    27 in    1 pools
            1 of   27 on ionode
            2 of   27 on ionode
            3 of   27 on ionode
            4 of   27 on ionode
            5 of   27 on ionode
            6 of   27 on ionode
            7 of   27 on ionode
            8 of   27 on ionode
            9 of   27 on ionode
           10 of   27 on ionode
           11 of   27 on ionode
           12 of   27 on ionode
           13 of   27 on ionode
           14 of   27 on ionode
           15 of   27 on ionode
           16 of   27 on ionode
           17 of   27 on ionode
           18 of   27 on ionode
           19 of   27 on ionode
           20 of   27 on ionode
           21 of   27 on ionode
           22 of   27 on ionode
           23 of   27 on ionode
           24 of   27 on ionode
           25 of   27 on ionode
           26 of   27 on ionode
           27 of   27 on ionode
     MMN calculated
 
     Running Wannier90
 
     Wannier Function centers (cartesian, alat) and spreads (ang):
 
     (   0.16147   0.16147   0.16147) :   0.87894
     (   0.16147  -0.16147  -0.16147) :   0.87894
     (  -0.16147   0.16147  -0.16147) :   0.87894
     (  -0.16147  -0.16147   0.16147) :   0.87894
 
     -------------------------------------------------------------------
     WANNIER      :      5.04s CPU      5.08s WALL (       1 calls)
     -------------------------------------------------------------------

     Dipole matrix elements calculated
 

     Calculating kmap and kgmap
     Progress  kmap: ###########################
     Progress kgmap: ########################################
     kmaps        :      5.65s CPU      5.96s WALL (       1 calls)
     Symmetries of bravais lattice:  48
     Symmetries of crystal:          24


     ===================================================================
     irreducible q point #    1
     ===================================================================

     Symmetries of small group of q: 24
          in addition sym. q -> -q+G:
 
     Number of q in the star =    1
     List of q in the star:
          1   0.000000000   0.000000000   0.000000000
     Imposing acoustic sum rule on the dynamical matrix
 
        q(    1 ) = (   0.0000000   0.0000000   0.0000000 )


     ===================================================================
     irreducible q point #    2
     ===================================================================

     Symmetries of small group of q:  6
 
     Number of q in the star =    4
     List of q in the star:
          1  -0.333333333   0.333333333  -0.333333333
          2   0.333333333   0.333333333   0.333333333
          3   0.333333333  -0.333333333  -0.333333333
          4  -0.333333333  -0.333333333   0.333333333
     In addition there is the -q list: 
          1   0.333333333  -0.333333333   0.333333333
          2  -0.333333333  -0.333333333  -0.333333333
          3  -0.333333333   0.333333333   0.333333333
          4   0.333333333   0.333333333  -0.333333333
 
        q(    2 ) = (  -0.3333333   0.3333333  -0.3333333 )
 
        q(    3 ) = (   0.3333333  -0.3333333   0.3333333 )
        q(    4 ) = (   0.3333333   0.3333333   0.3333333 )
        q(    5 ) = (  -0.3333333  -0.3333333  -0.3333333 )
        q(    6 ) = (   0.3333333  -0.3333333  -0.3333333 )
        q(    7 ) = (  -0.3333333   0.3333333   0.3333333 )
        q(    8 ) = (  -0.3333333  -0.3333333   0.3333333 )
        q(    9 ) = (   0.3333333   0.3333333  -0.3333333 )


     ===================================================================
     irreducible q point #    3
     ===================================================================

     Symmetries of small group of q:  4
 
     Number of q in the star =    6
     List of q in the star:
          1   0.000000000   0.666666667   0.000000000
          2   0.000000000   0.000000000  -0.666666667
          3  -0.666666667   0.000000000   0.000000000
          4   0.666666667   0.000000000   0.000000000
          5   0.000000000  -0.666666667   0.000000000
          6   0.000000000   0.000000000   0.666666667
 
        q(   10 ) = (   0.0000000   0.6666667   0.0000000 )
        q(   11 ) = (   0.0000000   0.0000000  -0.6666667 )
        q(   12 ) = (  -0.6666667   0.0000000   0.0000000 )
        q(   13 ) = (   0.6666667   0.0000000   0.0000000 )
        q(   14 ) = (   0.0000000  -0.6666667   0.0000000 )
        q(   15 ) = (   0.0000000   0.0000000   0.6666667 )


     ===================================================================
     irreducible q point #    4
     ===================================================================

     Symmetries of small group of q:  2
 
     Number of q in the star =   12
     List of q in the star:
          1   0.666666667   0.000000000   0.666666667
          2  -0.666666667   0.000000000  -0.666666667
          3   0.666666667  -0.666666667   0.000000000
          4   0.000000000  -0.666666667   0.666666667
          5   0.000000000  -0.666666667  -0.666666667
          6  -0.666666667   0.000000000   0.666666667
          7   0.666666667   0.666666667   0.000000000
          8  -0.666666667  -0.666666667   0.000000000
          9  -0.666666667   0.666666667   0.000000000
         10   0.666666667   0.000000000  -0.666666667
         11   0.000000000   0.666666667   0.666666667
         12   0.000000000   0.666666667  -0.666666667
 
        q(   16 ) = (   0.6666667   0.0000000   0.6666667 )
        q(   17 ) = (  -0.6666667   0.0000000  -0.6666667 )
        q(   18 ) = (   0.6666667  -0.6666667   0.0000000 )
        q(   19 ) = (   0.0000000  -0.6666667   0.6666667 )
        q(   20 ) = (   0.0000000  -0.6666667  -0.6666667 )
        q(   21 ) = (  -0.6666667   0.0000000   0.6666667 )
        q(   22 ) = (   0.6666667   0.6666667   0.0000000 )
        q(   23 ) = (  -0.6666667  -0.6666667   0.0000000 )
        q(   24 ) = (  -0.6666667   0.6666667   0.0000000 )
        q(   25 ) = (   0.6666667   0.0000000  -0.6666667 )
        q(   26 ) = (   0.0000000   0.6666667   0.6666667 )
        q(   27 ) = (   0.0000000   0.6666667  -0.6666667 )

     Writing epmatq on .epb files


     The .epb files have been correctly written


     Writing Hamiltonian, Dynamical matrix and EP vertex in Wann rep to file


     Reading Hamiltonian, Dynamical matrix and EP vertex in Wann rep from file


     Finished reading Wann rep data from file

     ===================================================================
     Memory usage:  VmHWM =        51Mb
                   VmPeak =       285Mb
     ===================================================================
     
     Using uniform q-mesh:    6   6   6
     Size of q point mesh for interpolation:        216
     Using uniform k-mesh:    6   6   6
     Size of k point mesh for interpolation:        432
     Max number of k points per pool:              432

     Fermi energy coarse grid =   9.635395 eV

     Fermi energy is calculated from the fine k-mesh: Ef =   9.805467 eV

     ===================================================================

              ibndmin =     1  ebndmin =    -0.336
              ibndmax =     4  ebndmax =     0.691


     Number of ep-matrix elements per pool :        20736 ~=  162.00 Kb (@ 8 bytes/ DP)

     ===================================================================
     Phonon (Imaginary) Self-Energy in the Migdal Approximation
     ===================================================================


     Fermi Surface thickness =  15.000000 eV

     Golden Rule strictly enforced with T =   0.172347 eV
     Gaussian Broadening:   1.000000 eV, ngauss=   1
     DOS =  0.046846 states/spin/eV/Unit Cell at Ef=  9.805467 eV

     ismear =     1 iq =       1 coord.:   0.00000  0.00000  0.00000 wt:   0.00463
     -------------------------------------------------------------------
     lambda___(   1 )=       0.000000   gamma___=       0.000000 meV   omega=      0.0001 meV
     lambda_tr(   1 )=       0.000000   gamma_tr=       0.000000 meV   omega=      0.0001 meV
     lambda___(   2 )=       0.000000   gamma___=       0.000000 meV   omega=      0.0001 meV
     lambda_tr(   2 )=       0.000000   gamma_tr=       0.000000 meV   omega=      0.0001 meV
     lambda___(   3 )=       0.000000   gamma___=       0.000000 meV   omega=      0.0001 meV
     lambda_tr(   3 )=       0.000000   gamma_tr=       0.000000 meV   omega=      0.0001 meV
     lambda___(   4 )=       0.006036   gamma___=       0.007898 meV   omega=     94.2966 meV
     lambda_tr(   4 )=       0.027411   gamma_tr=     372.955962 meV   omega=     94.2966 meV
     lambda___(   5 )=       0.006036   gamma___=       0.007898 meV   omega=     94.2966 meV
     lambda_tr(   5 )=       0.027411   gamma_tr=     372.955962 meV   omega=     94.2966 meV
     lambda___(   6 )=       0.006036   gamma___=       0.007898 meV   omega=     94.2966 meV
     lambda_tr(   6 )=       0.027411   gamma_tr=     372.955962 meV   omega=     94.2966 meV
     lambda___( tot )=       0.018107
     lambda_tr( tot )=       0.082233
     -------------------------------------------------------------------


     Number of (k,k+q) pairs on the Fermi surface:      216 out of      216


     ===================================================================
     Electron (Imaginary) Self-Energy in the Migdal Approximation
     ===================================================================


     Fermi Surface thickness =  15.000000 eV

     Golden Rule strictly enforced with T =   0.172347 eV
     Gaussian Broadening:   1.000000 eV, ngauss=   1
 

     ismear =     1 iq =       2 coord.:   0.00000  0.00000  0.16667 wt:   0.00463
     -------------------------------------------------------------------
     lambda___(   1 )=       0.134649   gamma___=       0.005648 meV   omega=     16.8830 meV
     lambda_tr(   1 )=       0.396298   gamma_tr=    5391.917690 meV   omega=     16.8830 meV
     lambda___(   2 )=       0.134649   gamma___=       0.005648 meV   omega=     16.8830 meV
     lambda_tr(   2 )=       0.396298   gamma_tr=    5391.917690 meV   omega=     16.8830 meV
     lambda___(   3 )=      -0.135315   gamma___=      -0.021707 meV   omega=     33.0153 meV
     lambda_tr(   3 )=       0.506756   gamma_tr=    6894.845057 meV   omega=     33.0153 meV
     lambda___(   4 )=       0.051065   gamma___=       0.066852 meV   omega=     94.3163 meV
     lambda_tr(   4 )=       0.108313   gamma_tr=    1473.752712 meV   omega=     94.3163 meV
     lambda___(   5 )=       0.051065   gamma___=       0.066852 meV   omega=     94.3163 meV
     lambda_tr(   5 )=       0.108313   gamma_tr=    1473.752712 meV   omega=     94.3163 meV
     lambda___(   6 )=       0.040032   gamma___=       0.059948 meV   omega=    100.8719 meV
     lambda_tr(   6 )=       0.078674   gamma_tr=    1070.529382 meV   omega=    100.8719 meV
     lambda___( tot )=       0.276144
     lambda_tr( tot )=       1.594652
     -------------------------------------------------------------------


     Number of (k,k+q) pairs on the Fermi surface:      216 out of      216


     ismear =     1 iq =       3 coord.:   0.00000  0.00000  0.33333 wt:   0.00463
     -------------------------------------------------------------------
     lambda___(   1 )=       0.008337   gamma___=       0.001023 meV   omega=     28.8772 meV
     lambda_tr(   1 )=       0.025842   gamma_tr=     351.593540 meV   omega=     28.8772 meV
     lambda___(   2 )=       0.008337   gamma___=       0.001023 meV   omega=     28.8772 meV
     lambda_tr(   2 )=       0.025842   gamma_tr=     351.593540 meV   omega=     28.8772 meV
     lambda___(   3 )=       0.067494   gamma___=       0.038043 meV   omega=     61.8859 meV
     lambda_tr(   3 )=       0.119986   gamma_tr=    1632.565374 meV   omega=     61.8859 meV
     lambda___(   4 )=       0.039206   gamma___=       0.049773 meV   omega=     92.8772 meV
     lambda_tr(   4 )=       0.053008   gamma_tr=     721.249549 meV   omega=     92.8772 meV
     lambda___(   5 )=       0.039206   gamma___=       0.049773 meV   omega=     92.8772 meV
     lambda_tr(   5 )=       0.053008   gamma_tr=     721.249549 meV   omega=     92.8772 meV
     lambda___(   6 )=       0.053433   gamma___=       0.091179 meV   omega=    107.6788 meV
     lambda_tr(   6 )=       0.072635   gamma_tr=     988.368867 meV   omega=    107.6788 meV
     lambda___( tot )=       0.216015
     lambda_tr( tot )=       0.350321
     -------------------------------------------------------------------


     Number of (k,k+q) pairs on the Fermi surface:      216 out of      216


     ismear =     1 iq =       4 coord.:   0.00000  0.00000  0.50000 wt:   0.00463
     -------------------------------------------------------------------
     lambda___(   1 )=       0.027859   gamma___=       0.004537 meV   omega=     33.2663 meV
     lambda_tr(   1 )=       0.031367   gamma_tr=     426.773405 meV   omega=     33.2663 meV
     lambda___(   2 )=       0.027859   gamma___=       0.004537 meV   omega=     33.2663 meV
     lambda_tr(   2 )=       0.031367   gamma_tr=     426.773405 meV   omega=     33.2663 meV
     lambda___(   3 )=       0.069455   gamma___=       0.059266 meV   omega=     76.1445 meV
     lambda_tr(   3 )=       0.083650   gamma_tr=    1138.187740 meV   omega=     76.1445 meV
     lambda___(   4 )=       0.025409   gamma___=       0.031203 meV   omega=     91.3464 meV
     lambda_tr(   4 )=       0.031982   gamma_tr=     435.156677 meV   omega=     91.3464 meV
     lambda___(   5 )=       0.025409   gamma___=       0.031203 meV   omega=     91.3464 meV
     lambda_tr(   5 )=       0.031982   gamma_tr=     435.156677 meV   omega=     91.3464 meV
     lambda___(   6 )=       0.002451   gamma___=       0.004117 meV   omega=    106.8305 meV
     lambda_tr(   6 )=       0.003254   gamma_tr=      44.277317 meV   omega=    106.8305 meV
     lambda___( tot )=       0.178442
     lambda_tr( tot )=       0.213602
     -------------------------------------------------------------------


     Number of (k,k+q) pairs on the Fermi surface:      216 out of      216


     ismear =     1 iq =       5 coord.:   0.00000  0.00000  0.66667 wt:   0.00463
     -------------------------------------------------------------------
     lambda___(   1 )=       0.008337   gamma___=       0.001023 meV   omega=     28.8772 meV
     lambda_tr(   1 )=       0.031103   gamma_tr=     423.178518 meV   omega=     28.8772 meV
     lambda___(   2 )=       0.008337   gamma___=       0.001023 meV   omega=     28.8772 meV
     lambda_tr(   2 )=       0.031103   gamma_tr=     423.178518 meV   omega=     28.8772 meV
     lambda___(   3 )=       0.067494   gamma___=       0.038043 meV   omega=     61.8859 meV
     lambda_tr(   3 )=       0.102454   gamma_tr=    1394.012890 meV   omega=     61.8859 meV
     lambda___(   4 )=       0.039206   gamma___=       0.049773 meV   omega=     92.8772 meV
     lambda_tr(   4 )=       0.051488   gamma_tr=     700.566972 meV   omega=     92.8772 meV
     lambda___(   5 )=       0.039206   gamma___=       0.049773 meV   omega=     92.8772 meV
     lambda_tr(   5 )=       0.051488   gamma_tr=     700.566972 meV   omega=     92.8772 meV
     lambda___(   6 )=       0.053433   gamma___=       0.091179 meV   omega=    107.6788 meV
     lambda_tr(   6 )=       0.063047   gamma_tr=     857.909260 meV   omega=    107.6788 meV
     lambda___( tot )=       0.216014
     lambda_tr( tot )=       0.330684
     -------------------------------------------------------------------


     Number of (k,k+q) pairs on the Fermi surface:      216 out of      216


     ismear =     1 iq =       6 coord.:   0.00000  0.00000  0.83333 wt:   0.00463
     -------------------------------------------------------------------
     lambda___(   1 )=       0.134652   gamma___=       0.005649 meV   omega=     16.8830 meV
     lambda_tr(   1 )=       0.409908   gamma_tr=    5577.099068 meV   omega=     16.8830 meV
     lambda___(   2 )=       0.134652   gamma___=       0.005649 meV   omega=     16.8830 meV
     lambda_tr(   2 )=       0.409908   gamma_tr=    5577.099068 meV   omega=     16.8830 meV
     lambda___(   3 )=      -0.135303   gamma___=      -0.021705 meV   omega=     33.0153 meV
     lambda_tr(   3 )=       0.542846   gamma_tr=    7385.887806 meV   omega=     33.0153 meV
     lambda___(   4 )=       0.051065   gamma___=       0.066852 meV   omega=     94.3163 meV
     lambda_tr(   4 )=       0.115281   gamma_tr=    1568.559472 meV   omega=     94.3163 meV
     lambda___(   5 )=       0.051065   gamma___=       0.066852 meV   omega=     94.3163 meV
     lambda_tr(   5 )=       0.115281   gamma_tr=    1568.559472 meV   omega=     94.3163 meV
     lambda___(   6 )=       0.040032   gamma___=       0.059947 meV   omega=    100.8719 meV
     lambda_tr(   6 )=       0.072096   gamma_tr=     981.023174 meV   omega=    100.8719 meV
     lambda___( tot )=       0.276162
     lambda_tr( tot )=       1.665321
     -------------------------------------------------------------------


     Number of (k,k+q) pairs on the Fermi surface:      216 out of      216


     ismear =     1 iq =       7 coord.:   0.00000  0.16667  0.00000 wt:   0.00463
     -------------------------------------------------------------------
     lambda___(   1 )=       0.743714   gamma___=       0.031198 meV   omega=     16.8830 meV
     lambda_tr(   1 )=       2.976093   gamma_tr=   40491.876789 meV   omega=     16.8830 meV
     lambda___(   2 )=       0.743714   gamma___=       0.031198 meV   omega=     16.8830 meV
     lambda_tr(   2 )=       2.976093   gamma_tr=   40491.876789 meV   omega=     16.8830 meV
     lambda___(   3 )=       0.324553   gamma___=       0.052064 meV   omega=     33.0153 meV
     lambda_tr(   3 )=       1.012539   gamma_tr=   13776.465158 meV   omega=     33.0153 meV
     lambda___(   4 )=       0.005774   gamma___=       0.007559 meV   omega=     94.3163 meV
     lambda_tr(   4 )=       0.017161   gamma_tr=     233.503686 meV   omega=     94.3163 meV
     lambda___(   5 )=       0.005774   gamma___=       0.007559 meV   omega=     94.3163 meV
     lambda_tr(   5 )=       0.017161   gamma_tr=     233.503686 meV   omega=     94.3163 meV
     lambda___(   6 )=       0.021915   gamma___=       0.032818 meV   omega=    100.8719 meV
     lambda_tr(   6 )=       0.052014   gamma_tr=     707.761113 meV   omega=    100.8719 meV
     lambda___( tot )=       1.845444
     lambda_tr( tot )=       7.051062
     -------------------------------------------------------------------


     Number of (k,k+q) pairs on the Fermi surface:      216 out of      216


     ismear =     1 iq =       8 coord.:   0.00000  0.16667  0.16667 wt:   0.00463
     -------------------------------------------------------------------
     lambda___(   1 )=       0.118386   gamma___=       0.009630 meV   omega=     23.5101 meV
     lambda_tr(   1 )=       0.685940   gamma_tr=    9332.693612 meV   omega=     23.5101 meV
     lambda___(   2 )=       0.118386   gamma___=       0.009630 meV   omega=     23.5101 meV
     lambda_tr(   2 )=       0.685940   gamma_tr=    9332.693419 meV   omega=     23.5101 meV
     lambda___(   3 )=       0.100004   gamma___=       0.016527 meV   omega=     33.5101 meV
     lambda_tr(   3 )=       0.616481   gamma_tr=    8387.758578 meV   omega=     33.5101 meV
     lambda___(   4 )=       0.024964   gamma___=       0.032818 meV   omega=     94.5113 meV
     lambda_tr(   4 )=       0.064225   gamma_tr=     873.836441 meV   omega=     94.5113 meV
     lambda___(   5 )=       0.024964   gamma___=       0.032818 meV   omega=     94.5113 meV
     lambda_tr(   5 )=       0.064225   gamma_tr=     873.836440 meV   omega=     94.5113 meV
     lambda___(   6 )=       0.039357   gamma___=       0.060216 meV   omega=    101.9608 meV
     lambda_tr(   6 )=       0.077854   gamma_tr=    1059.378615 meV   omega=    101.9608 meV
     lambda___( tot )=       0.426061
     lambda_tr( tot )=       2.194664
     -------------------------------------------------------------------


     Number of (k,k+q) pairs on the Fermi surface:      216 out of      216


     ismear =     1 iq =       9 coord.:   0.00000  0.16667  0.33333 wt:   0.00463
     -------------------------------------------------------------------
     lambda___(   1 )=       0.022855   gamma___=       0.003721 meV   omega=     33.2605 meV
     lambda_tr(   1 )=      -0.015594   gamma_tr=    -212.167337 meV   omega=     33.2605 meV
     lambda___(   2 )=       0.021277   gamma___=       0.003721 meV   omega=     34.4719 meV
     lambda_tr(   2 )=      -0.014517   gamma_tr=    -197.517381 meV   omega=     34.4719 meV
     lambda___(   3 )=       0.045900   gamma___=       0.019955 meV   omega=     54.3505 meV
     lambda_tr(   3 )=       0.010187   gamma_tr=     138.601200 meV   omega=     54.3505 meV
     lambda___(   4 )=       0.008312   gamma___=       0.010626 meV   omega=     93.1982 meV
     lambda_tr(   4 )=       0.008182   gamma_tr=     111.330795 meV   omega=     93.1982 meV
     lambda___(   5 )=       0.008091   gamma___=       0.010626 meV   omega=     94.4638 meV
     lambda_tr(   5 )=       0.007964   gamma_tr=     108.367861 meV   omega=     94.4638 meV
     lambda___(   6 )=       0.011684   gamma___=       0.019468 meV   omega=    106.4036 meV
     lambda_tr(   6 )=       0.009048   gamma_tr=     123.117003 meV   omega=    106.4036 meV
     lambda___( tot )=       0.118121
     lambda_tr( tot )=       0.005269
     -------------------------------------------------------------------


     Number of (k,k+q) pairs on the Fermi surface:      216 out of      216


     ismear =     1 iq =      10 coord.:   0.00000  0.16667  0.50000 wt:   0.00463
     -------------------------------------------------------------------
     lambda___(   1 )=      -0.000510   gamma___=      -0.000106 meV   omega=     37.6310 meV
     lambda_tr(   1 )=      -0.045089   gamma_tr=    -613.478139 meV   omega=     37.6310 meV
     lambda___(   2 )=       0.013992   gamma___=       0.003684 meV   omega=     42.2956 meV
     lambda_tr(   2 )=       0.000753   gamma_tr=      10.239291 meV   omega=     42.2956 meV
     lambda___(   3 )=       0.024074   gamma___=       0.017742 meV   omega=     70.7631 meV
     lambda_tr(   3 )=       0.004732   gamma_tr=      64.380719 meV   omega=     70.7631 meV
     lambda___(   4 )=       0.002950   gamma___=       0.003607 meV   omega=     91.1506 meV
     lambda_tr(   4 )=       0.003113   gamma_tr=      42.351763 meV   omega=     91.1506 meV
     lambda___(   5 )=       0.006984   gamma___=       0.008884 meV   omega=     92.9662 meV
     lambda_tr(   5 )=       0.004542   gamma_tr=      61.798598 meV   omega=     92.9662 meV
     lambda___(   6 )=       0.002738   gamma___=       0.004454 meV   omega=    105.1421 meV
     lambda_tr(   6 )=       0.001454   gamma_tr=      19.788742 meV   omega=    105.1421 meV
     lambda___( tot )=       0.050228
     lambda_tr( tot )=      -0.030496
     -------------------------------------------------------------------


     Number of (k,k+q) pairs on the Fermi surface:      216 out of      216


     ismear =     1 iq =      11 coord.:   0.00000  0.16667  0.66667 wt:   0.00463
     -------------------------------------------------------------------
     lambda___(   1 )=       0.041700   gamma___=       0.007435 meV   omega=     34.8063 meV
     lambda_tr(   1 )=       0.057856   gamma_tr=     787.188157 meV   omega=     34.8063 meV
     lambda___(   2 )=       0.026329   gamma___=       0.007089 meV   omega=     42.7735 meV
     lambda_tr(   2 )=       0.019378   gamma_tr=     263.660412 meV   omega=     42.7735 meV
     lambda___(   3 )=       0.032470   gamma___=       0.020919 meV   omega=     66.1633 meV
     lambda_tr(   3 )=       0.023801   gamma_tr=     323.842679 meV   omega=     66.1633 meV
     lambda___(   4 )=       0.002827   gamma___=       0.003510 meV   omega=     91.8497 meV
     lambda_tr(   4 )=       0.002467   gamma_tr=      33.571960 meV   omega=     91.8497 meV
     lambda___(   5 )=       0.003525   gamma___=       0.004554 meV   omega=     93.6888 meV
     lambda_tr(   5 )=      -0.002228   gamma_tr=     -30.311392 meV   omega=     93.6888 meV
     lambda___(   6 )=       0.003345   gamma___=       0.005473 meV   omega=    105.4392 meV
     lambda_tr(   6 )=       0.001232   gamma_tr=      16.758923 meV   omega=    105.4392 meV
     lambda___( tot )=       0.110197
     lambda_tr( tot )=       0.102507
     -------------------------------------------------------------------


     Number of (k,k+q) pairs on the Fermi surface:      216 out of      216


     ismear =     1 iq =      12 coord.:   0.00000  0.16667  0.83333 wt:   0.00463
     -------------------------------------------------------------------
     lambda___(   1 )=       0.388040   gamma___=       0.036386 meV   omega=     25.2415 meV
     lambda_tr(   1 )=       0.570108   gamma_tr=    7756.773545 meV   omega=     25.2415 meV
     lambda___(   2 )=      -0.012314   gamma___=      -0.002048 meV   omega=     33.6127 meV
     lambda_tr(   2 )=       0.061789   gamma_tr=     840.695714 meV   omega=     33.6127 meV
     lambda___(   3 )=       0.085793   gamma___=       0.028198 meV   omega=     47.2577 meV
     lambda_tr(   3 )=       0.141822   gamma_tr=    1929.631774 meV   omega=     47.2577 meV
     lambda___(   4 )=      -0.002965   gamma___=      -0.003828 meV   omega=     93.6688 meV
     lambda_tr(   4 )=       0.001949   gamma_tr=      26.523335 meV   omega=     93.6688 meV
     lambda___(   5 )=       0.015513   gamma___=       0.020817 meV   omega=     95.4869 meV
     lambda_tr(   5 )=       0.015923   gamma_tr=     216.666313 meV   omega=     95.4869 meV
     lambda___(   6 )=       0.007883   gamma___=       0.012712 meV   omega=    104.6734 meV
     lambda_tr(   6 )=       0.014256   gamma_tr=     193.989372 meV   omega=    104.6734 meV
     lambda___( tot )=       0.481951
     lambda_tr( tot )=       0.805848
     -------------------------------------------------------------------


     Number of (k,k+q) pairs on the Fermi surface:      216 out of      216


     ismear =     1 iq =      13 coord.:   0.00000  0.33333  0.00000 wt:   0.00463
     -------------------------------------------------------------------
     lambda___(   1 )=       0.008337   gamma___=       0.001023 meV   omega=     28.8772 meV
     lambda_tr(   1 )=       0.029741   gamma_tr=     404.642677 meV   omega=     28.8772 meV
     lambda___(   2 )=       0.008337   gamma___=       0.001023 meV   omega=     28.8772 meV
     lambda_tr(   2 )=       0.029741   gamma_tr=     404.642677 meV   omega=     28.8772 meV
     lambda___(   3 )=       0.067494   gamma___=       0.038043 meV   omega=     61.8859 meV
     lambda_tr(   3 )=       0.113800   gamma_tr=    1548.391295 meV   omega=     61.8859 meV
     lambda___(   4 )=       0.039206   gamma___=       0.049773 meV   omega=     92.8772 meV
     lambda_tr(   4 )=       0.052504   gamma_tr=     714.381227 meV   omega=     92.8772 meV
     lambda___(   5 )=       0.039206   gamma___=       0.049773 meV   omega=     92.8772 meV
     lambda_tr(   5 )=       0.052504   gamma_tr=     714.381227 meV   omega=     92.8772 meV
     lambda___(   6 )=       0.053433   gamma___=       0.091179 meV   omega=    107.6788 meV
     lambda_tr(   6 )=       0.069637   gamma_tr=     947.578282 meV   omega=    107.6788 meV
     lambda___( tot )=       0.216015
     lambda_tr( tot )=       0.347925
     -------------------------------------------------------------------


     Number of (k,k+q) pairs on the Fermi surface:      216 out of      216


     ismear =     1 iq =      14 coord.:   0.00000  0.33333  0.16667 wt:   0.00463
     -------------------------------------------------------------------
     lambda___(   1 )=       0.017601   gamma___=       0.002866 meV   omega=     33.2605 meV
     lambda_tr(   1 )=       0.028436   gamma_tr=     386.898399 meV   omega=     33.2605 meV
     lambda___(   2 )=       0.016385   gamma___=       0.002866 meV   omega=     34.4719 meV
     lambda_tr(   2 )=       0.026473   gamma_tr=     360.183733 meV   omega=     34.4719 meV
     lambda___(   3 )=       0.049081   gamma___=       0.021338 meV   omega=     54.3505 meV
     lambda_tr(   3 )=       0.026886   gamma_tr=     365.819373 meV   omega=     54.3505 meV
     lambda___(   4 )=       0.012977   gamma___=       0.016589 meV   omega=     93.1982 meV
     lambda_tr(   4 )=       0.006843   gamma_tr=      93.100585 meV   omega=     93.1982 meV
     lambda___(   5 )=       0.012632   gamma___=       0.016589 meV   omega=     94.4638 meV
     lambda_tr(   5 )=       0.006660   gamma_tr=      90.622681 meV   omega=     94.4638 meV
     lambda___(   6 )=       0.020586   gamma___=       0.034302 meV   omega=    106.4036 meV
     lambda_tr(   6 )=       0.010557   gamma_tr=     143.658525 meV   omega=    106.4036 meV
     lambda___( tot )=       0.129263
     lambda_tr( tot )=       0.105856
     -------------------------------------------------------------------


     Number of (k,k+q) pairs on the Fermi surface:      216 out of      216


     ismear =     1 iq =      15 coord.:   0.00000  0.33333  0.33333 wt:   0.00463
     -------------------------------------------------------------------
     lambda___(   1 )=       0.000852   gamma___=       0.000203 meV   omega=     40.2853 meV
     lambda_tr(   1 )=      -0.003054   gamma_tr=     -41.547374 meV   omega=     40.2853 meV
     lambda___(   2 )=       0.000852   gamma___=       0.000203 meV   omega=     40.2853 meV
     lambda_tr(   2 )=      -0.003054   gamma_tr=     -41.547373 meV   omega=     40.2853 meV
     lambda___(   3 )=       0.014538   gamma___=       0.008317 meV   omega=     62.3477 meV
     lambda_tr(   3 )=      -0.021411   gamma_tr=    -291.329607 meV   omega=     62.3477 meV
     lambda___(   4 )=       0.004624   gamma___=       0.005806 meV   omega=     92.3659 meV
     lambda_tr(   4 )=      -0.003173   gamma_tr=     -43.168931 meV   omega=     92.3659 meV
     lambda___(   5 )=       0.004624   gamma___=       0.005806 meV   omega=     92.3659 meV
     lambda_tr(   5 )=      -0.003173   gamma_tr=     -43.168930 meV   omega=     92.3659 meV
     lambda___(   6 )=       0.017197   gamma___=       0.029405 meV   omega=    107.7874 meV
     lambda_tr(   6 )=      -0.000165   gamma_tr=      -2.251564 meV   omega=    107.7874 meV
     lambda___( tot )=       0.042686
     lambda_tr( tot )=      -0.034030
     -------------------------------------------------------------------


     Number of (k,k+q) pairs on the Fermi surface:      216 out of      216


     ismear =     1 iq =      16 coord.:   0.00000  0.33333  0.50000 wt:   0.00463
     -------------------------------------------------------------------
     lambda___(   1 )=       0.001785   gamma___=       0.000492 meV   omega=     43.2618 meV
     lambda_tr(   1 )=       0.000623   gamma_tr=       8.474949 meV   omega=     43.2618 meV
     lambda___(   2 )=       0.002691   gamma___=       0.000928 meV   omega=     48.3993 meV
     lambda_tr(   2 )=      -0.007654   gamma_tr=    -104.147337 meV   omega=     48.3993 meV
     lambda___(   3 )=       0.009716   gamma___=       0.007040 meV   omega=     70.1667 meV
     lambda_tr(   3 )=      -0.023143   gamma_tr=    -314.886902 meV   omega=     70.1667 meV
     lambda___(   4 )=       0.001273   gamma___=       0.001544 meV   omega=     90.7894 meV
     lambda_tr(   4 )=       0.000612   gamma_tr=       8.329260 meV   omega=     90.7894 meV
     lambda___(   5 )=       0.003767   gamma___=       0.004726 meV   omega=     92.3329 meV
     lambda_tr(   5 )=      -0.001750   gamma_tr=     -23.812845 meV   omega=     92.3329 meV
     lambda___(   6 )=       0.003521   gamma___=       0.005658 meV   omega=    104.4961 meV
     lambda_tr(   6 )=      -0.009666   gamma_tr=    -131.521449 meV   omega=    104.4961 meV
     lambda___( tot )=       0.022752
     lambda_tr( tot )=      -0.040978
     -------------------------------------------------------------------


     Number of (k,k+q) pairs on the Fermi surface:      216 out of      216


     ismear =     1 iq =      17 coord.:   0.00000  0.33333  0.66667 wt:   0.00463
     -------------------------------------------------------------------
     lambda___(   1 )=       0.000768   gamma___=       0.000197 meV   omega=     41.7014 meV
     lambda_tr(   1 )=      -0.000274   gamma_tr=      -3.732980 meV   omega=     41.7014 meV
     lambda___(   2 )=       0.001378   gamma___=       0.000660 meV   omega=     57.0522 meV
     lambda_tr(   2 )=      -0.001383   gamma_tr=     -18.821717 meV   omega=     57.0522 meV
     lambda___(   3 )=       0.013584   gamma___=       0.008617 meV   omega=     65.6515 meV
     lambda_tr(   3 )=      -0.005296   gamma_tr=     -72.061438 meV   omega=     65.6515 meV
     lambda___(   4 )=       0.002690   gamma___=       0.003247 meV   omega=     90.5587 meV
     lambda_tr(   4 )=       0.000667   gamma_tr=       9.068680 meV   omega=     90.5587 meV
     lambda___(   5 )=       0.002631   gamma___=       0.003247 meV   omega=     91.5742 meV
     lambda_tr(   5 )=       0.000652   gamma_tr=       8.868647 meV   omega=     91.5742 meV
     lambda___(   6 )=       0.006970   gamma___=       0.010981 meV   omega=    103.4647 meV
     lambda_tr(   6 )=       0.001064   gamma_tr=      14.471827 meV   omega=    103.4647 meV
     lambda___( tot )=       0.028022
     lambda_tr( tot )=      -0.004572
     -------------------------------------------------------------------


     Number of (k,k+q) pairs on the Fermi surface:      216 out of      216


     ismear =     1 iq =      18 coord.:   0.00000  0.33333  0.83333 wt:   0.00463
     -------------------------------------------------------------------
     lambda___(   1 )=       0.003119   gamma___=       0.000556 meV   omega=     34.8063 meV
     lambda_tr(   1 )=       0.000014   gamma_tr=       0.186895 meV   omega=     34.8063 meV
     lambda___(   2 )=       0.008203   gamma___=       0.002209 meV   omega=     42.7735 meV
     lambda_tr(   2 )=      -0.005352   gamma_tr=     -72.815910 meV   omega=     42.7735 meV
     lambda___(   3 )=       0.025857   gamma___=       0.016658 meV   omega=     66.1633 meV
     lambda_tr(   3 )=       0.021563   gamma_tr=     293.390023 meV   omega=     66.1633 meV
     lambda___(   4 )=       0.025529   gamma___=       0.031696 meV   omega=     91.8497 meV
     lambda_tr(   4 )=       0.028228   gamma_tr=     384.100218 meV   omega=     91.8497 meV
     lambda___(   5 )=       0.006713   gamma___=       0.008671 meV   omega=     93.6888 meV
     lambda_tr(   5 )=       0.004948   gamma_tr=      67.330680 meV   omega=     93.6888 meV
     lambda___(   6 )=       0.012164   gamma___=       0.019903 meV   omega=    105.4392 meV
     lambda_tr(   6 )=       0.013262   gamma_tr=     180.459204 meV   omega=    105.4392 meV
     lambda___( tot )=       0.081584
     lambda_tr( tot )=       0.062663
     -------------------------------------------------------------------


     Number of (k,k+q) pairs on the Fermi surface:      216 out of      216


     ismear =     1 iq =      19 coord.:   0.00000  0.50000  0.00000 wt:   0.00463
     -------------------------------------------------------------------
     lambda___(   1 )=      -0.042660   gamma___=      -0.006948 meV   omega=     33.2663 meV
     lambda_tr(   1 )=      -0.014049   gamma_tr=    -191.143710 meV   omega=     33.2663 meV
     lambda___(   2 )=      -0.042660   gamma___=      -0.006948 meV   omega=     33.2663 meV
     lambda_tr(   2 )=      -0.014049   gamma_tr=    -191.143710 meV   omega=     33.2663 meV
     lambda___(   3 )=       0.070900   gamma___=       0.060499 meV   omega=     76.1445 meV
     lambda_tr(   3 )=       0.141355   gamma_tr=    1923.347312 meV   omega=     76.1445 meV
     lambda___(   4 )=       0.012119   gamma___=       0.014882 meV   omega=     91.3464 meV
     lambda_tr(   4 )=       0.015163   gamma_tr=     206.312316 meV   omega=     91.3464 meV
     lambda___(   5 )=       0.012119   gamma___=       0.014882 meV   omega=     91.3464 meV
     lambda_tr(   5 )=       0.015163   gamma_tr=     206.312316 meV   omega=     91.3464 meV
     lambda___(   6 )=      -0.004289   gamma___=      -0.007204 meV   omega=    106.8305 meV
     lambda_tr(   6 )=      -0.001608   gamma_tr=     -21.877689 meV   omega=    106.8305 meV
     lambda___( tot )=       0.005528
     lambda_tr( tot )=       0.141975
     -------------------------------------------------------------------


     Number of (k,k+q) pairs on the Fermi surface:      216 out of      216


     ismear =     1 iq =      20 coord.:   0.00000  0.50000  0.16667 wt:   0.00463
     -------------------------------------------------------------------
     lambda___(   1 )=      -0.009259   gamma___=      -0.001930 meV   omega=     37.6310 meV
     lambda_tr(   1 )=      -0.064391   gamma_tr=    -876.102683 meV   omega=     37.6310 meV
     lambda___(   2 )=       0.007875   gamma___=       0.002073 meV   omega=     42.2956 meV
     lambda_tr(   2 )=       0.002320   gamma_tr=      31.562608 meV   omega=     42.2956 meV
     lambda___(   3 )=       0.024005   gamma___=       0.017690 meV   omega=     70.7631 meV
     lambda_tr(   3 )=       0.015186   gamma_tr=     206.626175 meV   omega=     70.7631 meV
     lambda___(   4 )=       0.004728   gamma___=       0.005781 meV   omega=     91.1506 meV
     lambda_tr(   4 )=       0.005094   gamma_tr=      69.308926 meV   omega=     91.1506 meV
     lambda___(   5 )=       0.010520   gamma___=       0.013381 meV   omega=     92.9662 meV
     lambda_tr(   5 )=       0.009566   gamma_tr=     130.157856 meV   omega=     92.9662 meV
     lambda___(   6 )=       0.002416   gamma___=       0.003931 meV   omega=    105.1421 meV
     lambda_tr(   6 )=       0.000485   gamma_tr=       6.603118 meV   omega=    105.1421 meV
     lambda___( tot )=       0.040284
     lambda_tr( tot )=      -0.031741
     -------------------------------------------------------------------


     Number of (k,k+q) pairs on the Fermi surface:      216 out of      216


     ismear =     1 iq =      21 coord.:   0.00000  0.50000  0.33333 wt:   0.00463
     -------------------------------------------------------------------
     lambda___(   1 )=       0.000392   gamma___=       0.000108 meV   omega=     43.2618 meV
     lambda_tr(   1 )=      -0.003267   gamma_tr=     -44.445211 meV   omega=     43.2618 meV
     lambda___(   2 )=       0.004573   gamma___=       0.001577 meV   omega=     48.3993 meV
     lambda_tr(   2 )=      -0.020464   gamma_tr=    -278.435424 meV   omega=     48.3993 meV
     lambda___(   3 )=       0.013624   gamma___=       0.009872 meV   omega=     70.1667 meV
     lambda_tr(   3 )=      -0.032443   gamma_tr=    -441.433260 meV   omega=     70.1667 meV
     lambda___(   4 )=       0.000518   gamma___=       0.000628 meV   omega=     90.7894 meV
     lambda_tr(   4 )=       0.000286   gamma_tr=       3.894394 meV   omega=     90.7894 meV
     lambda___(   5 )=       0.000250   gamma___=       0.000313 meV   omega=     92.3329 meV
     lambda_tr(   5 )=      -0.001819   gamma_tr=     -24.756506 meV   omega=     92.3329 meV
     lambda___(   6 )=       0.000015   gamma___=       0.000024 meV   omega=    104.4961 meV
     lambda_tr(   6 )=      -0.000959   gamma_tr=     -13.055512 meV   omega=    104.4961 meV
     lambda___( tot )=       0.019371
     lambda_tr( tot )=      -0.058666
     -------------------------------------------------------------------


     Number of (k,k+q) pairs on the Fermi surface:      216 out of      216


     ismear =     1 iq =      22 coord.:   0.00000  0.50000  0.50000 wt:   0.00463
     -------------------------------------------------------------------
     lambda___(   1 )=       0.000271   gamma___=       0.000080 meV   omega=     44.8240 meV
     lambda_tr(   1 )=      -0.000253   gamma_tr=      -3.448766 meV   omega=     44.8240 meV
     lambda___(   2 )=       0.000271   gamma___=       0.000080 meV   omega=     44.8240 meV
     lambda_tr(   2 )=      -0.000253   gamma_tr=      -3.448766 meV   omega=     44.8240 meV
     lambda___(   3 )=       0.004098   gamma___=       0.003612 meV   omega=     77.3886 meV
     lambda_tr(   3 )=      -0.005236   gamma_tr=     -71.245454 meV   omega=     77.3886 meV
     lambda___(   4 )=       0.000345   gamma___=       0.000417 meV   omega=     90.6706 meV
     lambda_tr(   4 )=       0.000024   gamma_tr=       0.330514 meV   omega=     90.6706 meV
     lambda___(   5 )=       0.000345   gamma___=       0.000417 meV   omega=     90.6706 meV
     lambda_tr(   5 )=       0.000024   gamma_tr=       0.330514 meV   omega=     90.6706 meV
     lambda___(   6 )=       0.000073   gamma___=       0.000117 meV   omega=    104.2867 meV
     lambda_tr(   6 )=      -0.001030   gamma_tr=     -14.010892 meV   omega=    104.2867 meV
     lambda___( tot )=       0.005403
     lambda_tr( tot )=      -0.006724
     -------------------------------------------------------------------


     Number of (k,k+q) pairs on the Fermi surface:      216 out of      216


     ismear =     1 iq =      23 coord.:   0.00000  0.50000  0.66667 wt:   0.00463
     -------------------------------------------------------------------
     lambda___(   1 )=       0.000392   gamma___=       0.000108 meV   omega=     43.2618 meV
     lambda_tr(   1 )=      -0.002669   gamma_tr=     -36.311493 meV   omega=     43.2618 meV
     lambda___(   2 )=       0.004573   gamma___=       0.001577 meV   omega=     48.3993 meV
     lambda_tr(   2 )=      -0.020179   gamma_tr=    -274.558430 meV   omega=     48.3993 meV
     lambda___(   3 )=       0.013626   gamma___=       0.009873 meV   omega=     70.1667 meV
     lambda_tr(   3 )=      -0.032798   gamma_tr=    -446.261639 meV   omega=     70.1667 meV
     lambda___(   4 )=       0.000518   gamma___=       0.000628 meV   omega=     90.7894 meV
     lambda_tr(   4 )=       0.000294   gamma_tr=       4.002832 meV   omega=     90.7894 meV
     lambda___(   5 )=       0.000250   gamma___=       0.000313 meV   omega=     92.3329 meV
     lambda_tr(   5 )=      -0.001821   gamma_tr=     -24.775907 meV   omega=     92.3329 meV
     lambda___(   6 )=       0.000015   gamma___=       0.000024 meV   omega=    104.4961 meV
     lambda_tr(   6 )=      -0.000941   gamma_tr=     -12.803951 meV   omega=    104.4961 meV
     lambda___( tot )=       0.019373
     lambda_tr( tot )=      -0.058113
     -------------------------------------------------------------------


     Number of (k,k+q) pairs on the Fermi surface:      216 out of      216


     ismear =     1 iq =      24 coord.:   0.00000  0.50000  0.83333 wt:   0.00463
     -------------------------------------------------------------------
     lambda___(   1 )=      -0.009258   gamma___=      -0.001929 meV   omega=     37.6310 meV
     lambda_tr(   1 )=      -0.070643   gamma_tr=    -961.163216 meV   omega=     37.6310 meV
     lambda___(   2 )=       0.007876   gamma___=       0.002073 meV   omega=     42.2956 meV
     lambda_tr(   2 )=      -0.007673   gamma_tr=    -104.394651 meV   omega=     42.2956 meV
     lambda___(   3 )=       0.024004   gamma___=       0.017689 meV   omega=     70.7631 meV
     lambda_tr(   3 )=       0.013199   gamma_tr=     179.590853 meV   omega=     70.7631 meV
     lambda___(   4 )=       0.004727   gamma___=       0.005780 meV   omega=     91.1506 meV
     lambda_tr(   4 )=       0.005283   gamma_tr=      71.881698 meV   omega=     91.1506 meV
     lambda___(   5 )=       0.010521   gamma___=       0.013382 meV   omega=     92.9662 meV
     lambda_tr(   5 )=       0.010704   gamma_tr=     145.652979 meV   omega=     92.9662 meV
     lambda___(   6 )=       0.002418   gamma___=       0.003934 meV   omega=    105.1421 meV
     lambda_tr(   6 )=       0.002900   gamma_tr=      39.456106 meV   omega=    105.1421 meV
     lambda___( tot )=       0.040287
     lambda_tr( tot )=      -0.046230
     -------------------------------------------------------------------


     Number of (k,k+q) pairs on the Fermi surface:      216 out of      216


     ismear =     1 iq =      25 coord.:   0.00000  0.66667  0.00000 wt:   0.00463
     -------------------------------------------------------------------
     lambda___(   1 )=       0.008337   gamma___=       0.001023 meV   omega=     28.8772 meV
     lambda_tr(   1 )=       0.030743   gamma_tr=     418.275757 meV   omega=     28.8772 meV
     lambda___(   2 )=       0.008337   gamma___=       0.001023 meV   omega=     28.8772 meV
     lambda_tr(   2 )=       0.030743   gamma_tr=     418.275757 meV   omega=     28.8772 meV
     lambda___(   3 )=       0.067494   gamma___=       0.038043 meV   omega=     61.8859 meV
     lambda_tr(   3 )=       0.113891   gamma_tr=    1549.627416 meV   omega=     61.8859 meV
     lambda___(   4 )=       0.039206   gamma___=       0.049773 meV   omega=     92.8772 meV
     lambda_tr(   4 )=       0.052920   gamma_tr=     720.046472 meV   omega=     92.8772 meV
     lambda___(   5 )=       0.039206   gamma___=       0.049773 meV   omega=     92.8772 meV
     lambda_tr(   5 )=       0.052920   gamma_tr=     720.046472 meV   omega=     92.8772 meV
     lambda___(   6 )=       0.053433   gamma___=       0.091179 meV   omega=    107.6788 meV
     lambda_tr(   6 )=       0.069116   gamma_tr=     940.488472 meV   omega=    107.6788 meV
     lambda___( tot )=       0.216014
     lambda_tr( tot )=       0.350332
     -------------------------------------------------------------------


     Number of (k,k+q) pairs on the Fermi surface:      216 out of      216


     ismear =     1 iq =      26 coord.:   0.00000  0.66667  0.16667 wt:   0.00463
     -------------------------------------------------------------------
     lambda___(   1 )=       0.003119   gamma___=       0.000556 meV   omega=     34.8063 meV
     lambda_tr(   1 )=      -0.000456   gamma_tr=      -6.204536 meV   omega=     34.8063 meV
     lambda___(   2 )=       0.008205   gamma___=       0.002209 meV   omega=     42.7735 meV
     lambda_tr(   2 )=      -0.006519   gamma_tr=     -88.698546 meV   omega=     42.7735 meV
     lambda___(   3 )=       0.025855   gamma___=       0.016657 meV   omega=     66.1633 meV
     lambda_tr(   3 )=       0.024567   gamma_tr=     334.267049 meV   omega=     66.1633 meV
     lambda___(   4 )=       0.025528   gamma___=       0.031695 meV   omega=     91.8497 meV
     lambda_tr(   4 )=       0.025085   gamma_tr=     341.326726 meV   omega=     91.8497 meV
     lambda___(   5 )=       0.006712   gamma___=       0.008671 meV   omega=     93.6888 meV
     lambda_tr(   5 )=       0.005563   gamma_tr=      75.698549 meV   omega=     93.6888 meV
     lambda___(   6 )=       0.012166   gamma___=       0.019905 meV   omega=    105.4392 meV
     lambda_tr(   6 )=       0.014216   gamma_tr=     193.442871 meV   omega=    105.4392 meV
     lambda___( tot )=       0.081586
     lambda_tr( tot )=       0.062456
     -------------------------------------------------------------------


     Number of (k,k+q) pairs on the Fermi surface:      216 out of      216


     ismear =     1 iq =      27 coord.:   0.00000  0.66667  0.33333 wt:   0.00463
     -------------------------------------------------------------------
     lambda___(   1 )=       0.000768   gamma___=       0.000197 meV   omega=     41.7014 meV
     lambda_tr(   1 )=      -0.001018   gamma_tr=     -13.846582 meV   omega=     41.7014 meV
     lambda___(   2 )=       0.001378   gamma___=       0.000660 meV   omega=     57.0522 meV
     lambda_tr(   2 )=      -0.000463   gamma_tr=      -6.296219 meV   omega=     57.0522 meV
     lambda___(   3 )=       0.013584   gamma___=       0.008617 meV   omega=     65.6515 meV
     lambda_tr(   3 )=       0.013625   gamma_tr=     185.389864 meV   omega=     65.6515 meV
     lambda___(   4 )=       0.002690   gamma___=       0.003247 meV   omega=     90.5587 meV
     lambda_tr(   4 )=      -0.000858   gamma_tr=     -11.667349 meV   omega=     90.5587 meV
     lambda___(   5 )=       0.002631   gamma___=       0.003247 meV   omega=     91.5742 meV
     lambda_tr(   5 )=      -0.000839   gamma_tr=     -11.410000 meV   omega=     91.5742 meV
     lambda___(   6 )=       0.006970   gamma___=       0.010981 meV   omega=    103.4647 meV
     lambda_tr(   6 )=       0.006522   gamma_tr=      88.752069 meV   omega=    103.4647 meV
     lambda___( tot )=       0.028022
     lambda_tr( tot )=       0.016971
     -------------------------------------------------------------------


     Number of (k,k+q) pairs on the Fermi surface:      216 out of      216


     ismear =     1 iq =      28 coord.:   0.00000  0.66667  0.50000 wt:   0.00463
     -------------------------------------------------------------------
     lambda___(   1 )=       0.001785   gamma___=       0.000492 meV   omega=     43.2618 meV
     lambda_tr(   1 )=       0.000602   gamma_tr=       8.190542 meV   omega=     43.2618 meV
     lambda___(   2 )=       0.002691   gamma___=       0.000928 meV   omega=     48.3993 meV
     lambda_tr(   2 )=      -0.007653   gamma_tr=    -104.122882 meV   omega=     48.3993 meV
     lambda___(   3 )=       0.009715   gamma___=       0.007039 meV   omega=     70.1667 meV
     lambda_tr(   3 )=      -0.021882   gamma_tr=    -297.737071 meV   omega=     70.1667 meV
     lambda___(   4 )=       0.001273   gamma___=       0.001544 meV   omega=     90.7894 meV
     lambda_tr(   4 )=       0.000737   gamma_tr=      10.030272 meV   omega=     90.7894 meV
     lambda___(   5 )=       0.003767   gamma___=       0.004727 meV   omega=     92.3329 meV
     lambda_tr(   5 )=      -0.001667   gamma_tr=     -22.678137 meV   omega=     92.3329 meV
     lambda___(   6 )=       0.003521   gamma___=       0.005659 meV   omega=    104.4961 meV
     lambda_tr(   6 )=      -0.009276   gamma_tr=    -126.221675 meV   omega=    104.4961 meV
     lambda___( tot )=       0.022752
     lambda_tr( tot )=      -0.039138
     -------------------------------------------------------------------


     Number of (k,k+q) pairs on the Fermi surface:      216 out of      216


     ismear =     1 iq =      29 coord.:   0.00000  0.66667  0.66667 wt:   0.00463
     -------------------------------------------------------------------
     lambda___(   1 )=       0.000852   gamma___=       0.000203 meV   omega=     40.2853 meV
     lambda_tr(   1 )=      -0.002715   gamma_tr=     -36.937881 meV   omega=     40.2853 meV
     lambda___(   2 )=       0.000852   gamma___=       0.000203 meV   omega=     40.2853 meV
     lambda_tr(   2 )=      -0.002715   gamma_tr=     -36.937881 meV   omega=     40.2853 meV
     lambda___(   3 )=       0.014538   gamma___=       0.008317 meV   omega=     62.3477 meV
     lambda_tr(   3 )=      -0.018823   gamma_tr=    -256.116533 meV   omega=     62.3477 meV
     lambda___(   4 )=       0.004624   gamma___=       0.005806 meV   omega=     92.3659 meV
     lambda_tr(   4 )=      -0.002184   gamma_tr=     -29.717668 meV   omega=     92.3659 meV
     lambda___(   5 )=       0.004624   gamma___=       0.005806 meV   omega=     92.3659 meV
     lambda_tr(   5 )=      -0.002184   gamma_tr=     -29.717668 meV   omega=     92.3659 meV
     lambda___(   6 )=       0.017197   gamma___=       0.029405 meV   omega=    107.7874 meV
     lambda_tr(   6 )=       0.000927   gamma_tr=      12.614641 meV   omega=    107.7874 meV
     lambda___( tot )=       0.042686
     lambda_tr( tot )=      -0.027694
     -------------------------------------------------------------------


     Number of (k,k+q) pairs on the Fermi surface:      216 out of      216


     ismear =     1 iq =      30 coord.:   0.00000  0.66667  0.83333 wt:   0.00463
     -------------------------------------------------------------------
     lambda___(   1 )=       0.017599   gamma___=       0.002865 meV   omega=     33.2605 meV
     lambda_tr(   1 )=       0.063935   gamma_tr=     869.887341 meV   omega=     33.2605 meV
     lambda___(   2 )=       0.016384   gamma___=       0.002865 meV   omega=     34.4719 meV
     lambda_tr(   2 )=       0.059520   gamma_tr=     809.823232 meV   omega=     34.4719 meV
     lambda___(   3 )=       0.049085   gamma___=       0.021339 meV   omega=     54.3505 meV
     lambda_tr(   3 )=       0.044919   gamma_tr=     611.172732 meV   omega=     54.3505 meV
     lambda___(   4 )=       0.012978   gamma___=       0.016590 meV   omega=     93.1982 meV
     lambda_tr(   4 )=       0.011991   gamma_tr=     163.150775 meV   omega=     93.1982 meV
     lambda___(   5 )=       0.012632   gamma___=       0.016590 meV   omega=     94.4638 meV
     lambda_tr(   5 )=       0.011672   gamma_tr=     158.808460 meV   omega=     94.4638 meV
     lambda___(   6 )=       0.020584   gamma___=       0.034298 meV   omega=    106.4036 meV
     lambda_tr(   6 )=       0.008138   gamma_tr=     110.732591 meV   omega=    106.4036 meV
     lambda___( tot )=       0.129262
     lambda_tr( tot )=       0.200175
     -------------------------------------------------------------------


     Number of (k,k+q) pairs on the Fermi surface:      216 out of      216


     ismear =     1 iq =      31 coord.:   0.00000  0.83333  0.00000 wt:   0.00463
     -------------------------------------------------------------------
     lambda___(   1 )=       0.743696   gamma___=       0.031197 meV   omega=     16.8830 meV
     lambda_tr(   1 )=       3.029660   gamma_tr=   41220.708780 meV   omega=     16.8830 meV
     lambda___(   2 )=       0.743696   gamma___=       0.031197 meV   omega=     16.8830 meV
     lambda_tr(   2 )=       3.029660   gamma_tr=   41220.708780 meV   omega=     16.8830 meV
     lambda___(   3 )=       0.324527   gamma___=       0.052060 meV   omega=     33.0153 meV
     lambda_tr(   3 )=       1.093797   gamma_tr=   14882.051167 meV   omega=     33.0153 meV
     lambda___(   4 )=       0.005774   gamma___=       0.007559 meV   omega=     94.3163 meV
     lambda_tr(   4 )=       0.017447   gamma_tr=     237.389426 meV   omega=     94.3163 meV
     lambda___(   5 )=       0.005774   gamma___=       0.007559 meV   omega=     94.3163 meV
     lambda_tr(   5 )=       0.017447   gamma_tr=     237.389426 meV   omega=     94.3163 meV
     lambda___(   6 )=       0.021916   gamma___=       0.032819 meV   omega=    100.8719 meV
     lambda_tr(   6 )=       0.055365   gamma_tr=     753.359834 meV   omega=    100.8719 meV
     lambda___( tot )=       1.845383
     lambda_tr( tot )=       7.243377
     -------------------------------------------------------------------


     Number of (k,k+q) pairs on the Fermi surface:      216 out of      216


     ismear =     1 iq =      32 coord.:   0.00000  0.83333  0.16667 wt:   0.00463
     -------------------------------------------------------------------
     lambda___(   1 )=       0.388026   gamma___=       0.036384 meV   omega=     25.2415 meV
     lambda_tr(   1 )=       0.577413   gamma_tr=    7856.158676 meV   omega=     25.2415 meV
     lambda___(   2 )=      -0.012318   gamma___=      -0.002048 meV   omega=     33.6127 meV
     lambda_tr(   2 )=       0.093157   gamma_tr=    1267.484334 meV   omega=     33.6127 meV
     lambda___(   3 )=       0.085797   gamma___=       0.028200 meV   omega=     47.2577 meV
     lambda_tr(   3 )=       0.149199   gamma_tr=    2029.998890 meV   omega=     47.2577 meV
     lambda___(   4 )=      -0.002964   gamma___=      -0.003828 meV   omega=     93.6688 meV
     lambda_tr(   4 )=       0.001925   gamma_tr=      26.192526 meV   omega=     93.6688 meV
     lambda___(   5 )=       0.015514   gamma___=       0.020818 meV   omega=     95.4869 meV
     lambda_tr(   5 )=       0.016947   gamma_tr=     230.592312 meV   omega=     95.4869 meV
     lambda___(   6 )=       0.007884   gamma___=       0.012712 meV   omega=    104.6734 meV
     lambda_tr(   6 )=       0.011633   gamma_tr=     158.298434 meV   omega=    104.6734 meV
     lambda___( tot )=       0.481939
     lambda_tr( tot )=       0.850273
     -------------------------------------------------------------------


     Number of (k,k+q) pairs on the Fermi surface:      216 out of      216


     ismear =     1 iq =      33 coord.:   0.00000  0.83333  0.33333 wt:   0.00463
     -------------------------------------------------------------------
     lambda___(   1 )=       0.041700   gamma___=       0.007435 meV   omega=     34.8063 meV
     lambda_tr(   1 )=       0.049190   gamma_tr=     669.267988 meV   omega=     34.8063 meV
     lambda___(   2 )=       0.026328   gamma___=       0.007089 meV   omega=     42.7735 meV
     lambda_tr(   2 )=       0.040424   gamma_tr=     550.010526 meV   omega=     42.7735 meV
     lambda___(   3 )=       0.032472   gamma___=       0.020920 meV   omega=     66.1633 meV
     lambda_tr(   3 )=       0.046295   gamma_tr=     629.901022 meV   omega=     66.1633 meV
     lambda___(   4 )=       0.002827   gamma___=       0.003510 meV   omega=     91.8497 meV
     lambda_tr(   4 )=       0.001759   gamma_tr=      23.937074 meV   omega=     91.8497 meV
     lambda___(   5 )=       0.003526   gamma___=       0.004554 meV   omega=     93.6888 meV
     lambda_tr(   5 )=      -0.002405   gamma_tr=     -32.721921 meV   omega=     93.6888 meV
     lambda___(   6 )=       0.003346   gamma___=       0.005475 meV   omega=    105.4392 meV
     lambda_tr(   6 )=       0.001839   gamma_tr=      25.019418 meV   omega=    105.4392 meV
     lambda___( tot )=       0.110200
     lambda_tr( tot )=       0.137102
     -------------------------------------------------------------------


     Number of (k,k+q) pairs on the Fermi surface:      216 out of      216


     ismear =     1 iq =      34 coord.:   0.00000  0.83333  0.50000 wt:   0.00463
     -------------------------------------------------------------------
     lambda___(   1 )=      -0.000509   gamma___=      -0.000106 meV   omega=     37.6310 meV
     lambda_tr(   1 )=      -0.040017   gamma_tr=    -544.462820 meV   omega=     37.6310 meV
     lambda___(   2 )=       0.013993   gamma___=       0.003684 meV   omega=     42.2956 meV
     lambda_tr(   2 )=      -0.004808   gamma_tr=     -65.414760 meV   omega=     42.2956 meV
     lambda___(   3 )=       0.024073   gamma___=       0.017741 meV   omega=     70.7631 meV
     lambda_tr(   3 )=      -0.007250   gamma_tr=     -98.642308 meV   omega=     70.7631 meV
     lambda___(   4 )=       0.002950   gamma___=       0.003607 meV   omega=     91.1506 meV
     lambda_tr(   4 )=       0.002887   gamma_tr=      39.280424 meV   omega=     91.1506 meV
     lambda___(   5 )=       0.006985   gamma___=       0.008884 meV   omega=     92.9662 meV
     lambda_tr(   5 )=       0.002296   gamma_tr=      31.243053 meV   omega=     92.9662 meV
     lambda___(   6 )=       0.002740   gamma___=       0.004458 meV   omega=    105.1421 meV
     lambda_tr(   6 )=       0.001144   gamma_tr=      15.573145 meV   omega=    105.1421 meV
     lambda___( tot )=       0.050231
     lambda_tr( tot )=      -0.045747
     -------------------------------------------------------------------


     Number of (k,k+q) pairs on the Fermi surface:      216 out of      216


     ismear =     1 iq =      35 coord.:   0.00000  0.83333  0.66667 wt:   0.00463
     -------------------------------------------------------------------
     lambda___(   1 )=       0.022854   gamma___=       0.003721 meV   omega=     33.2605 meV
     lambda_tr(   1 )=       0.005112   gamma_tr=      69.558174 meV   omega=     33.2605 meV
     lambda___(   2 )=       0.021276   gamma___=       0.003721 meV   omega=     34.4719 meV
     lambda_tr(   2 )=       0.004759   gamma_tr=      64.755317 meV   omega=     34.4719 meV
     lambda___(   3 )=       0.045897   gamma___=       0.019953 meV   omega=     54.3505 meV
     lambda_tr(   3 )=      -0.007774   gamma_tr=    -105.777908 meV   omega=     54.3505 meV
     lambda___(   4 )=       0.008313   gamma___=       0.010626 meV   omega=     93.1982 meV
     lambda_tr(   4 )=       0.008102   gamma_tr=     110.238357 meV   omega=     93.1982 meV
     lambda___(   5 )=       0.008092   gamma___=       0.010626 meV   omega=     94.4638 meV
     lambda_tr(   5 )=       0.007886   gamma_tr=     107.304480 meV   omega=     94.4638 meV
     lambda___(   6 )=       0.011687   gamma___=       0.019473 meV   omega=    106.4036 meV
     lambda_tr(   6 )=       0.009774   gamma_tr=     132.997296 meV   omega=    106.4036 meV
     lambda___( tot )=       0.118118
     lambda_tr( tot )=       0.027859
     -------------------------------------------------------------------


     Number of (k,k+q) pairs on the Fermi surface:      216 out of      216


     ismear =     1 iq =      36 coord.:   0.00000  0.83333  0.83333 wt:   0.00463
     -------------------------------------------------------------------
     lambda___(   1 )=       0.118386   gamma___=       0.009630 meV   omega=     23.5101 meV
     lambda_tr(   1 )=       0.685165   gamma_tr=    9322.199041 meV   omega=     23.5101 meV
     lambda___(   2 )=       0.118386   gamma___=       0.009630 meV   omega=     23.5101 meV
     lambda_tr(   2 )=       0.685165   gamma_tr=    9322.198848 meV   omega=     23.5101 meV
     lambda___(   3 )=       0.099981   gamma___=       0.016523 meV   omega=     33.5101 meV
     lambda_tr(   3 )=       0.595128   gamma_tr=    8097.231452 meV   omega=     33.5101 meV
     lambda___(   4 )=       0.024965   gamma___=       0.032819 meV   omega=     94.5113 meV
     lambda_tr(   4 )=       0.069819   gamma_tr=     950.016264 meV   omega=     94.5113 meV
     lambda___(   5 )=       0.024965   gamma___=       0.032819 meV   omega=     94.5113 meV
     lambda_tr(   5 )=       0.069819   gamma_tr=     950.016263 meV   omega=     94.5113 meV
     lambda___(   6 )=       0.039361   gamma___=       0.060223 meV   omega=    101.9608 meV
     lambda_tr(   6 )=       0.075444   gamma_tr=    1026.579477 meV   omega=    101.9608 meV
     lambda___( tot )=       0.426044
     lambda_tr( tot )=       2.180540
     -------------------------------------------------------------------


     Number of (k,k+q) pairs on the Fermi surface:      216 out of      216


     ismear =     1 iq =      37 coord.:   0.16667  0.00000  0.00000 wt:   0.00463
     -------------------------------------------------------------------
     lambda___(   1 )=       0.134649   gamma___=       0.005648 meV   omega=     16.8830 meV
     lambda_tr(   1 )=       0.363010   gamma_tr=    4939.010721 meV   omega=     16.8830 meV
     lambda___(   2 )=       0.134649   gamma___=       0.005648 meV   omega=     16.8830 meV
     lambda_tr(   2 )=       0.363010   gamma_tr=    4939.010721 meV   omega=     16.8830 meV
     lambda___(   3 )=      -0.135315   gamma___=      -0.021707 meV   omega=     33.0153 meV
     lambda_tr(   3 )=       0.394434   gamma_tr=    5366.616732 meV   omega=     33.0153 meV
     lambda___(   4 )=       0.051065   gamma___=       0.066852 meV   omega=     94.3163 meV
     lambda_tr(   4 )=       0.111536   gamma_tr=    1517.604928 meV   omega=     94.3163 meV
     lambda___(   5 )=       0.051065   gamma___=       0.066852 meV   omega=     94.3163 meV
     lambda_tr(   5 )=       0.111536   gamma_tr=    1517.604928 meV   omega=     94.3163 meV
     lambda___(   6 )=       0.040032   gamma___=       0.059948 meV   omega=    100.8719 meV
     lambda_tr(   6 )=       0.064405   gamma_tr=     876.365556 meV   omega=    100.8719 meV
     lambda___( tot )=       0.276144
     lambda_tr( tot )=       1.407932
     -------------------------------------------------------------------


     Number of (k,k+q) pairs on the Fermi surface:      216 out of      216


     ismear =     1 iq =      38 coord.:   0.16667  0.00000  0.16667 wt:   0.00463
     -------------------------------------------------------------------
     lambda___(   1 )=       0.118386   gamma___=       0.009630 meV   omega=     23.5101 meV
     lambda_tr(   1 )=       0.651954   gamma_tr=    8870.344024 meV   omega=     23.5101 meV
     lambda___(   2 )=       0.118386   gamma___=       0.009630 meV   omega=     23.5101 meV
     lambda_tr(   2 )=       0.651954   gamma_tr=    8870.343841 meV   omega=     23.5101 meV
     lambda___(   3 )=       0.099981   gamma___=       0.016523 meV   omega=     33.5101 meV
     lambda_tr(   3 )=       0.661586   gamma_tr=    9001.446344 meV   omega=     33.5101 meV
     lambda___(   4 )=       0.024965   gamma___=       0.032819 meV   omega=     94.5113 meV
     lambda_tr(   4 )=       0.069368   gamma_tr=     943.883750 meV   omega=     94.5113 meV
     lambda___(   5 )=       0.024965   gamma___=       0.032819 meV   omega=     94.5113 meV
     lambda_tr(   5 )=       0.069368   gamma_tr=     943.883749 meV   omega=     94.5113 meV
     lambda___(   6 )=       0.039361   gamma___=       0.060223 meV   omega=    101.9608 meV
     lambda_tr(   6 )=       0.082336   gamma_tr=    1120.370068 meV   omega=    101.9608 meV
     lambda___( tot )=       0.426044
     lambda_tr( tot )=       2.186568
     -------------------------------------------------------------------


     Number of (k,k+q) pairs on the Fermi surface:      216 out of      216


     ismear =     1 iq =      39 coord.:   0.16667  0.00000  0.33333 wt:   0.00463
     -------------------------------------------------------------------
     lambda___(   1 )=       0.020018   gamma___=       0.003259 meV   omega=     33.2605 meV
     lambda_tr(   1 )=       0.041256   gamma_tr=     561.320505 meV   omega=     33.2605 meV
     lambda___(   2 )=       0.018636   gamma___=       0.003259 meV   omega=     34.4719 meV
     lambda_tr(   2 )=       0.038407   gamma_tr=     522.562321 meV   omega=     34.4719 meV
     lambda___(   3 )=       0.045677   gamma___=       0.019857 meV   omega=     54.3505 meV
     lambda_tr(   3 )=       0.031914   gamma_tr=     434.232787 meV   omega=     54.3505 meV
     lambda___(   4 )=       0.012636   gamma___=       0.016153 meV   omega=     93.1982 meV
     lambda_tr(   4 )=       0.004737   gamma_tr=      64.456571 meV   omega=     93.1982 meV
     lambda___(   5 )=       0.012299   gamma___=       0.016153 meV   omega=     94.4638 meV
     lambda_tr(   5 )=       0.004611   gamma_tr=      62.741082 meV   omega=     94.4638 meV
     lambda___(   6 )=       0.022562   gamma___=       0.037593 meV   omega=    106.4036 meV
     lambda_tr(   6 )=       0.010714   gamma_tr=     145.794952 meV   omega=    106.4036 meV
     lambda___( tot )=       0.131828
     lambda_tr( tot )=       0.131640
     -------------------------------------------------------------------


     Number of (k,k+q) pairs on the Fermi surface:      216 out of      216


     ismear =     1 iq =      40 coord.:   0.16667  0.00000  0.50000 wt:   0.00463
     -------------------------------------------------------------------
     lambda___(   1 )=       0.012433   gamma___=       0.002591 meV   omega=     37.6310 meV
     lambda_tr(   1 )=       0.010765   gamma_tr=     146.468465 meV   omega=     37.6310 meV
     lambda___(   2 )=       0.027830   gamma___=       0.007327 meV   omega=     42.2956 meV
     lambda_tr(   2 )=       0.046729   gamma_tr=     635.794827 meV   omega=     42.2956 meV
     lambda___(   3 )=       0.025617   gamma___=       0.018879 meV   omega=     70.7631 meV
     lambda_tr(   3 )=       0.025732   gamma_tr=     350.119331 meV   omega=     70.7631 meV
     lambda___(   4 )=       0.008537   gamma___=       0.010438 meV   omega=     91.1506 meV
     lambda_tr(   4 )=      -0.010383   gamma_tr=    -141.279947 meV   omega=     91.1506 meV
     lambda___(   5 )=       0.007644   gamma___=       0.009723 meV   omega=     92.9662 meV
     lambda_tr(   5 )=       0.009171   gamma_tr=     124.783833 meV   omega=     92.9662 meV
[...]
      212        3     -1.9911    123.0574    379.9131      1.1240     -0.1104
      213        3     -2.9817     22.2624    307.1764      1.0650     -0.0611
      214        3     -3.4617      1.7135    259.7274      1.0411     -0.0395
      215        3     -2.2746     79.9009    392.2422      1.1218     -0.1086
      216        3     -0.6014    239.4190    201.4726      1.0169     -0.0166
  
        1        4     -0.3992    249.9639    168.1535      1.0007     -0.0007
        2        4     -0.6014    239.4190    201.4726      1.0169     -0.0166
        3        4     -1.2665    196.2186    310.5889      1.0712     -0.0665
        4        4     -1.7294    138.2661    360.5036      1.1147     -0.1029
        5        4     -1.2665    196.2183    310.5890      1.0712     -0.0665
        6        4     -0.6014    239.4184    201.4714      1.0169     -0.0166
        7        4     -0.6014    235.4232    231.8946      1.0326     -0.0316
        8        4     -1.1893    201.2012    322.6154      1.0747     -0.0695
        9        4     -1.7453    150.5563    380.2852      1.1226     -0.1092
       10        4     -2.2693     69.2932    360.1022      1.1074     -0.0970
       11        4     -1.4850    159.7733    345.1609      1.1021     -0.0926
       12        4     -0.6189    226.7042    220.4964      1.0302     -0.0293
       13        4     -1.2665    193.9629    335.9622      1.0811     -0.0750
       14        4     -1.7453    136.8289    395.0794      1.1295     -0.1147
       15        4     -3.0665     27.6188    307.3277      1.0696     -0.0651
       16        4     -3.4814      0.9251    250.5676      1.0434     -0.0416
       17        4     -2.6245     55.1828    345.2445      1.0855     -0.0787
       18        4     -1.4850    166.7345    351.9594      1.1010     -0.0917
       19        4     -1.7294    134.5986    398.9355      1.1359     -0.1197
       20        4     -2.2693     74.9597    386.2301      1.1220     -0.1087
       21        4     -3.4814      2.0970    255.8197      1.0443     -0.0424
       22        4     -4.1536     -4.9504    188.1486      1.0135     -0.0133
       23        4     -3.4814      2.0981    255.8186      1.0443     -0.0424
       24        4     -2.2693     74.9611    386.2261      1.1220     -0.1087
       25        4     -1.2665    193.9624    335.9638      1.0811     -0.0750
       26        4     -1.4850    166.7338    351.9644      1.1010     -0.0917
       27        4     -2.6245     55.1822    345.2450      1.0855     -0.0787
       28        4     -3.4814      0.9255    250.5675      1.0434     -0.0416
       29        4     -3.0665     27.6186    307.3272      1.0696     -0.0651
       30        4     -1.7453    136.8292    395.0796      1.1295     -0.1147
       31        4     -0.6014    235.4222    231.8931      1.0326     -0.0316
       32        4     -0.6189    226.7042    220.4964      1.0302     -0.0293
       33        4     -1.4850    159.7735    345.1590      1.1021     -0.0926
       34        4     -2.2693     69.2938    360.0981      1.1074     -0.0970
       35        4     -1.7453    150.5574    380.2844      1.1226     -0.1092
       36        4     -1.1893    201.2011    322.6150      1.0747     -0.0695
       37        4     -0.6014    239.4190    201.4726      1.0169     -0.0166
       38        4     -1.1893    201.2012    322.6150      1.0747     -0.0695
       39        4     -1.7453    135.4686    385.0341      1.1243     -0.1105
       40        4     -2.2693     81.3440    359.2173      1.1094     -0.0986
       41        4     -1.4850    171.2117    331.6417      1.0924     -0.0846
       42        4     -0.6189    230.9483    192.0853      1.0150     -0.0148
       43        4     -1.1893    201.2012    322.6154      1.0747     -0.0695
       44        4     -0.6014    239.4184    201.4714      1.0169     -0.0166
       45        4     -0.6189    230.9482    192.0853      1.0150     -0.0148
       46        4     -1.4850    171.2120    331.6382      1.0924     -0.0846
       47        4     -2.2693     81.3456    359.2143      1.1094     -0.0986
       48        4     -1.7453    135.4688    385.0337      1.1243     -0.1105
       49        4     -1.7453    136.8289    395.0794      1.1295     -0.1147
       50        4     -0.6189    226.7042    220.4964      1.0302     -0.0293
       51        4     -1.7453    135.4688    385.0337      1.1243     -0.1105
       52        4     -2.3570     74.7606    360.2046      1.1043     -0.0944
       53        4     -3.1301     21.8992    276.4048      1.0553     -0.0524
       54        4     -2.3570     69.1770    367.6885      1.1083     -0.0977
       55        4     -2.2693     74.9597    386.2301      1.1220     -0.1087
       56        4     -1.4850    166.7346    351.9594      1.1010     -0.0917
       57        4     -2.3570     69.1770    367.6885      1.1083     -0.0977
       58        4     -3.4814      6.4920    247.0076      1.0427     -0.0410
       59        4     -4.2518      6.2630    202.4727      1.0190     -0.0186
       60        4     -3.1301     21.1348    284.4724      1.0566     -0.0536
       61        4     -1.4850    166.7338    351.9644      1.1010     -0.0917
       62        4     -2.2693     74.9611    386.2261      1.1220     -0.1087
       63        4     -3.1301     21.1348    284.4724      1.0566     -0.0536
       64        4     -4.2518      6.2626    202.4732      1.0190     -0.0186
       65        4     -3.4814      6.4912    247.0082      1.0427     -0.0410
       66        4     -2.3570     69.1765    367.6874      1.1083     -0.0977
       67        4     -0.6189    226.7042    220.4964      1.0302     -0.0293
       68        4     -1.7453    136.8292    395.0796      1.1295     -0.1147
       69        4     -2.3570     69.1765    367.6874      1.1083     -0.0977
       70        4     -3.1301     21.8995    276.4039      1.0553     -0.0524
       71        4     -2.3570     74.7609    360.2043      1.1043     -0.0944
       72        4     -1.7453    135.4686    385.0341      1.1243     -0.1105
       73        4     -1.2665    196.2186    310.5889      1.0712     -0.0665
       74        4     -1.7453    135.4686    385.0341      1.1243     -0.1105
       75        4     -3.0665     27.6186    307.3272      1.0696     -0.0651
       76        4     -3.4814      6.4912    247.0081      1.0427     -0.0410
       77        4     -2.6245     58.6620    341.5575      1.0858     -0.0790
       78        4     -1.4850    171.2120    331.6382      1.0924     -0.0846
       79        4     -1.7453    150.5563    380.2852      1.1226     -0.1092
       80        4     -0.6189    230.9483    192.0853      1.0150     -0.0148
       81        4     -1.7453    150.5574    380.2844      1.1226     -0.1092
       82        4     -2.3570     74.7609    360.2043      1.1043     -0.0944
       83        4     -3.1301     26.1670    281.2644      1.0584     -0.0552
       84        4     -2.3570     74.7605    360.2046      1.1043     -0.0944
       85        4     -3.0665     27.6189    307.3277      1.0696     -0.0651
       86        4     -1.7453    135.4688    385.0337      1.1243     -0.1105
       87        4     -1.2665    196.2183    310.5890      1.0712     -0.0665
       88        4     -1.4850    171.2117    331.6417      1.0924     -0.0846
       89        4     -2.6245     58.6621    341.5575      1.0858     -0.0790
       90        4     -3.4814      6.4920    247.0077      1.0427     -0.0410
       91        4     -3.4814      2.0970    255.8196      1.0443     -0.0424
       92        4     -2.3570     69.1770    367.6885      1.1083     -0.0977
       93        4     -1.4850    159.7733    345.1609      1.1021     -0.0926
       94        4     -2.2693     81.3456    359.2143      1.1094     -0.0986
       95        4     -3.1301     26.1670    281.2644      1.0584     -0.0552
       96        4     -4.2518      6.2626    202.4732      1.0190     -0.0186
       97        4     -2.6245     55.1822    345.2449      1.0855     -0.0787
       98        4     -3.1301     21.1348    284.4724      1.0566     -0.0536
       99        4     -2.6245     55.1828    345.2446      1.0855     -0.0787
      100        4     -3.1301     21.8992    276.4048      1.0553     -0.0524
      101        4     -2.6245     58.6621    341.5575      1.0858     -0.0790
      102        4     -3.1301     21.8995    276.4040      1.0553     -0.0524
      103        4     -1.4850    159.7735    345.1590      1.1021     -0.0926
      104        4     -2.3570     69.1765    367.6874      1.1083     -0.0977
      105        4     -3.4814      2.0981    255.8186      1.0443     -0.0424
      106        4     -4.2518      6.2630    202.4727      1.0190     -0.0186
      107        4     -3.1301     26.1670    281.2644      1.0584     -0.0552
      108        4     -2.2693     81.3440    359.2173      1.1094     -0.0986
      109        4     -1.7294    138.2661    360.5036      1.1147     -0.1029
      110        4     -2.2693     81.3440    359.2173      1.1094     -0.0986
      111        4     -3.4814      6.4912    247.0081      1.0427     -0.0410
      112        4     -4.1536     -4.9504    188.1486      1.0135     -0.0133
      113        4     -3.4814      6.4920    247.0076      1.0427     -0.0410
      114        4     -2.2693     81.3456    359.2143      1.1094     -0.0986
      115        4     -2.2693     69.2932    360.1022      1.1074     -0.0970
      116        4     -1.4850    171.2120    331.6382      1.0924     -0.0846
      117        4     -2.3570     74.7609    360.2043      1.1043     -0.0944
      118        4     -3.4814      0.9255    250.5675      1.0434     -0.0416
      119        4     -4.2518      6.2626    202.4732      1.0190     -0.0186
      120        4     -3.1301     21.8992    276.4048      1.0553     -0.0524
      121        4     -3.4814      0.9251    250.5676      1.0434     -0.0416
      122        4     -2.3570     74.7605    360.2046      1.1043     -0.0944
      123        4     -1.4850    171.2117    331.6417      1.0924     -0.0846
      124        4     -2.2693     69.2938    360.0981      1.1074     -0.0970
      125        4     -3.1301     21.8995    276.4040      1.0553     -0.0524
      126        4     -4.2518      6.2630    202.4728      1.0190     -0.0186
      127        4     -4.1536     -4.9504    188.1486      1.0135     -0.0133
      128        4     -3.4814      6.4920    247.0077      1.0427     -0.0410
      129        4     -2.2693     81.3456    359.2143      1.1094     -0.0986
      130        4     -1.7294    138.2661    360.5036      1.1147     -0.1029
      131        4     -2.2693     81.3440    359.2173      1.1094     -0.0986
      132        4     -3.4814      6.4912    247.0082      1.0427     -0.0410
      133        4     -3.4814      0.9255    250.5675      1.0434     -0.0416
      134        4     -4.2518      6.2626    202.4732      1.0190     -0.0186
      135        4     -3.1301     21.8992    276.4048      1.0553     -0.0524
      136        4     -2.2693     69.2932    360.1022      1.1074     -0.0970
      137        4     -1.4850    171.2120    331.6382      1.0924     -0.0846
      138        4     -2.3570     74.7609    360.2043      1.1043     -0.0944
      139        4     -2.2693     69.2938    360.0981      1.1074     -0.0970
      140        4     -3.1301     21.8995    276.4039      1.0553     -0.0524
      141        4     -4.2518      6.2630    202.4727      1.0190     -0.0186
      142        4     -3.4814      0.9251    250.5676      1.0434     -0.0416
      143        4     -2.3570     74.7605    360.2046      1.1043     -0.0944
      144        4     -1.4850    171.2117    331.6417      1.0924     -0.0846
      145        4     -1.2665    196.2183    310.5890      1.0712     -0.0665
      146        4     -1.4850    171.2117    331.6417      1.0924     -0.0846
      147        4     -2.6245     58.6621    341.5575      1.0858     -0.0790
      148        4     -3.4814      6.4920    247.0076      1.0427     -0.0410
      149        4     -3.0665     27.6188    307.3276      1.0696     -0.0651
      150        4     -1.7453    135.4688    385.0337      1.1243     -0.1105
      151        4     -1.4850    159.7733    345.1609      1.1021     -0.0926
      152        4     -2.2693     81.3456    359.2143      1.1094     -0.0986
      153        4     -3.1301     26.1670    281.2644      1.0584     -0.0552
      154        4     -4.2518      6.2626    202.4732      1.0190     -0.0186
      155        4     -3.4814      2.0970    255.8196      1.0443     -0.0424
      156        4     -2.3570     69.1770    367.6885      1.1083     -0.0977
      157        4     -2.6245     55.1828    345.2445      1.0855     -0.0787
      158        4     -3.1301     21.8992    276.4049      1.0553     -0.0524
      159        4     -2.6245     58.6620    341.5575      1.0858     -0.0790
      160        4     -3.1301     21.8995    276.4040      1.0553     -0.0524
      161        4     -2.6245     55.1822    345.2449      1.0855     -0.0787
      162        4     -3.1301     21.1348    284.4724      1.0566     -0.0536
      163        4     -3.4814      2.0981    255.8186      1.0443     -0.0424
      164        4     -4.2518      6.2630    202.4728      1.0190     -0.0186
      165        4     -3.1301     26.1670    281.2644      1.0584     -0.0552
      166        4     -2.2693     81.3440    359.2173      1.1094     -0.0986
      167        4     -1.4850    159.7735    345.1590      1.1021     -0.0926
      168        4     -2.3570     69.1765    367.6874      1.1083     -0.0977
      169        4     -3.0665     27.6186    307.3272      1.0696     -0.0651
      170        4     -3.4814      6.4912    247.0082      1.0427     -0.0410
      171        4     -2.6245     58.6621    341.5575      1.0858     -0.0790
      172        4     -1.4850    171.2120    331.6382      1.0924     -0.0846
      173        4     -1.2665    196.2186    310.5889      1.0712     -0.0665
      174        4     -1.7453    135.4686    385.0341      1.1243     -0.1105
      175        4     -1.7453    150.5574    380.2844      1.1226     -0.1092
      176        4     -2.3570     74.7609    360.2043      1.1043     -0.0944
      177        4     -3.1301     26.1670    281.2644      1.0584     -0.0552
      178        4     -2.3570     74.7605    360.2046      1.1043     -0.0944
      179        4     -1.7453    150.5563    380.2852      1.1226     -0.1092
      180        4     -0.6189    230.9483    192.0853      1.0150     -0.0148
      181        4     -0.6014    239.4184    201.4714      1.0169     -0.0166
      182        4     -0.6189    230.9483    192.0853      1.0150     -0.0148
      183        4     -1.4850    171.2120    331.6382      1.0924     -0.0846
      184        4     -2.2693     81.3456    359.2143      1.1094     -0.0986
      185        4     -1.7453    135.4688    385.0337      1.1243     -0.1105
      186        4     -1.1893    201.2012    322.6154      1.0747     -0.0695
      187        4     -0.6189    226.7042    220.4964      1.0302     -0.0293
      188        4     -1.7453    135.4688    385.0337      1.1243     -0.1105
      189        4     -2.3570     74.7605    360.2046      1.1043     -0.0944
      190        4     -3.1301     21.8992    276.4048      1.0553     -0.0524
      191        4     -2.3570     69.1770    367.6885      1.1083     -0.0977
      192        4     -1.7453    136.8289    395.0794      1.1295     -0.1147
      193        4     -1.4850    166.7346    351.9594      1.1010     -0.0917
      194        4     -2.3570     69.1770    367.6885      1.1083     -0.0977
      195        4     -3.4814      6.4920    247.0076      1.0427     -0.0410
      196        4     -4.2518      6.2630    202.4727      1.0190     -0.0186
      197        4     -3.1301     21.1348    284.4724      1.0566     -0.0536
      198        4     -2.2693     74.9597    386.2301      1.1220     -0.1087
      199        4     -2.2693     74.9611    386.2261      1.1220     -0.1087
      200        4     -3.1301     21.1348    284.4724      1.0566     -0.0536
      201        4     -4.2518      6.2626    202.4732      1.0190     -0.0186
      202        4     -3.4814      6.4912    247.0082      1.0427     -0.0410
      203        4     -2.3570     69.1765    367.6874      1.1083     -0.0977
      204        4     -1.4850    166.7338    351.9644      1.1010     -0.0917
      205        4     -1.7453    136.8292    395.0796      1.1295     -0.1147
      206        4     -2.3570     69.1765    367.6874      1.1083     -0.0977
      207        4     -3.1301     21.8995    276.4040      1.0553     -0.0524
      208        4     -2.3570     74.7609    360.2043      1.1043     -0.0944
      209        4     -1.7453    135.4686    385.0341      1.1243     -0.1105
      210        4     -0.6189    226.7042    220.4964      1.0302     -0.0293
      211        4     -1.1893    201.2011    322.6150      1.0747     -0.0695
      212        4     -1.7453    135.4686    385.0341      1.1243     -0.1105
      213        4     -2.2693     81.3440    359.2173      1.1094     -0.0986
      214        4     -1.4850    171.2117    331.6417      1.0924     -0.0846
      215        4     -0.6189    230.9483    192.0853      1.0150     -0.0148
      216        4     -0.6014    239.4190    201.4726      1.0169     -0.0166
  
     ===================================================================
     Memory usage:  VmHWM =        51Mb
                   VmPeak =       286Mb
     ===================================================================


     ===================================================================
     Eliashberg Spectral Function in the Migdal Approximation
     ===================================================================

     lambda :    0.1159654
     lambda_tr :    0.2437333
 
     Estimated Allen-Dynes Tc
 
     logavg =    0.0033064 l_a2F =    0.1077864
     mu =   0.10 Tc =         0.000000000000 K
     a2F          :      0.36s CPU      0.36s WALL (       1 calls)
 
     Unfolding on the coarse grid
     elphon_wrap  :     72.75s CPU     75.07s WALL (       1 calls)
 
     INITIALIZATION: 
 
     init_vloc    :      0.03s CPU      0.03s WALL (      29 calls)
     init_us_1    :      0.84s CPU      0.85s WALL (      29 calls)
 
 
     Electron-Phonon interpolation
     ephwann      :      4.29s CPU      4.52s WALL (       1 calls)
     ep-interp    :      3.65s CPU      3.80s WALL (     216 calls)
     PH SELF-ENER :      0.44s CPU      0.44s WALL (     216 calls)
 
     Ham: step 1  :      0.00s CPU      0.00s WALL (       1 calls)
     Ham: step 2  :      0.00s CPU      0.00s WALL (       1 calls)
     ep: step 1   :      0.00s CPU      0.01s WALL (     162 calls)
     ep: step 2   :      0.03s CPU      0.06s WALL (     162 calls)
     DynW2B       :      0.01s CPU      0.01s WALL (     216 calls)
     HamW2B       :      0.96s CPU      1.02s WALL (   93744 calls)
     ephW2Bp      :      0.07s CPU      0.13s WALL (     216 calls)
 
 
     Total program execution
     EPW          :  1m22.33s CPU     1m24.94s WALL

                                                                                          
 Please consider citing:                                                                  
 S. Ponce, E. R. Margine, C. Verdi and F. Giustino, Comput. Phys. Commun. 209, 116 (2016) 
                                                                                          
 In addition, if you used anisotropic Eliashberg superconductivity please cite:           
              E. R. Margine and F. Giustino, Phys. Rev. B 87, 024505 (2013)               
              if you used transport properties (scattering rates, mobility) please cite:  
              S. Ponce, E. R. Margine and F. Giustino, Phys. Rev. B 97, 121201 (2018)     
