                                                                                      
                                       ``:oss/                                        
                           `.+s+.     .+ys--yh+     `./ss+.                           
                          -sh//yy+`   +yy   +yy    -+h+-oyy                           
                          -yh- .oyy/.-sh.   .syo-.:sy-  /yh                           
                 `.-.`    `yh+   -oyyyo.     `/syys:    oys      `.`                  
               `/+ssys+-` `sh+      `                   oys`   .:osyo`                
               -yh- ./syyooyo`                          .sys+/oyo--yh/                
               `yy+    .-:-.                             `-/+/:`  -sh-                
                /yh.                                              oys                 
          ``..---hho---------`   .---------..`      `.-----.`    -hd+---.             
       `./osmNMMMMMMMMMMMMMMMs. +NNMMMMMMMMNNmh+.   yNMMMMMNm-  oNMMMMMNmo++:`        
       +sy--/sdMMMhyyyyyyyNMMh- .oyNMMmyyyyyhNMMm+` -yMMMdyyo:` .oyyNMMNhs+syy`       
       -yy/   /MMM+.`-+/``mMMy-   `mMMh:`````.dMMN:` `MMMy-`-dhhy```mMMy:``+hs        
        -yy+` /MMMo:-mMM+`-oo/.    mMMh:     `dMMN/`  dMMm:`dMMMMy..MMMo-.+yo`        
         .sys`/MMMMNNMMMs-         mMMmyooooymMMNo:   oMMM/sMMMMMM++MMN//oh:          
          `sh+/MMMhyyMMMs- `-`     mMMMMMMMMMNmy+-`   -MMMhMMMsmMMmdMMd/yy+           
    `-/+++oyy-/MMM+.`/hh/.`mNm:`   mMMd+/////:-.`      NMMMMMd/:NMMMMMy:/yyo/:.`      
   +os+//:-..-oMMMo:--:::-/MMMo. .-mMMd+---`           hMMMMN+. oMMMMMo. `-+osyso:`   
   syo     `mNMMMMMNNNNNNNNMMMo.oNNMMMMMNNNN:`         +MMMMs:`  dMMMN/`     ``:syo   
   /yh`     :syyyyyyyyyyyyyyyy+.`+syyyyyyyyo:`         .oyys:`   .oyys:`        +yh   
   -yh-        ````````````````    `````````              ``        ``          oys   
   -+h/------------------------::::::::://////++++++++++++++++++++++///////::::/yd:   
   shdddddddddddddddddddddddddddddhhhhhhhhyyyyyssssssssssssssssyyyyyyyhhhhhhhddddh`   
                                                                                      
  S. Ponce, E. R. Margine, C. Verdi, and F. Giustino,                                 
                                                Comput. Phys. Commun. 209, 116 (2016) 
                                                                                      

     Program EPW v.4.1.0 starts on  5Feb2017 at 21:14:16 

     This program is part of the open-source Quantum ESPRESSO suite
     for quantum simulation of materials; please cite
         "P. Giannozzi et al., J. Phys.:Condens. Matter 21 395502 (2009);
          URL http://www.quantum-espresso.org", 
     in publications or presentations arising from this work. More details at
     http://www.quantum-espresso.org/quote

     Serial multi-threaded version, running on    1 processor cores

     Reading data from directory:
     ./sic.save

   Info: using nr1, nr2, nr3 values from input

   Info: using nr1, nr2, nr3 values from input

     IMPORTANT: XC functional enforced from input :
     Exchange-correlation      =  SLA  PZ   NOGX NOGC ( 1  1  0  0 0 0)
     Any further DFT definition will be discarded
     Please, verify this is what you really want

               file C.UPF: wavefunction(s)  3d renormalized

     G-vector sticks info
     --------------------
     sticks:   dense  smooth     PW     G-vecs:    dense   smooth      PW
     Sum         559     559    187                 8801     8801    1591


Possibly too few bands at point    1   0.00000   0.00000   0.00000

Possibly too few bands at point    2  -0.33333   0.33333  -0.33333

Possibly too few bands at point    3  -0.66667   0.66667  -0.66667

Possibly too few bands at point    4   0.33333   0.33333   0.33333

Possibly too few bands at point    5   0.00000   0.66667   0.00000

Possibly too few bands at point    6  -0.33333   1.00000  -0.33333

Possibly too few bands at point    7   0.66667   0.66667   0.66667

Possibly too few bands at point    8   0.33333   1.00000   0.33333

Possibly too few bands at point    9   0.00000   1.33333   0.00000

Possibly too few bands at point   10  -0.33333  -0.33333   0.33333

Possibly too few bands at point   11  -0.66667   0.00000   0.00000

Possibly too few bands at point   12  -1.00000   0.33333  -0.33333

Possibly too few bands at point   13   0.00000   0.00000   0.66667

Possibly too few bands at point   14  -0.33333   0.33333   0.33333

Possibly too few bands at point   15  -0.66667   0.66667  -0.00000

Possibly too few bands at point   16   0.33333   0.33333   1.00000

Possibly too few bands at point   17   0.00000   0.66667   0.66667

Possibly too few bands at point   18  -0.33333   1.00000   0.33333

Possibly too few bands at point   19  -0.66667  -0.66667   0.66667

Possibly too few bands at point   20  -1.00000  -0.33333   0.33333

Possibly too few bands at point   21  -1.33333   0.00000   0.00000

Possibly too few bands at point   22  -0.33333  -0.33333   1.00000

Possibly too few bands at point   23  -0.66667  -0.00000   0.66667

Possibly too few bands at point   24  -1.00000   0.33333   0.33333

Possibly too few bands at point   25   0.00000   0.00000   1.33333

Possibly too few bands at point   26  -0.33333   0.33333   1.00000

Possibly too few bands at point   27  -0.66667   0.66667   0.66667

     --                                                                         

     bravais-lattice index     =            2
     lattice parameter (a_0)   =       8.2370  a.u.
     unit-cell volume          =     139.7163 (a.u.)^3
     number of atoms/cell      =            2
     number of atomic types    =            2
     kinetic-energy cut-off    =      60.0000  Ry
     charge density cut-off    =     240.0000  Ry
     convergence threshold     =      0.0E+00
     beta                      =       0.0000
     number of iterations used =            0
     Exchange-correlation      =  SLA  PZ   NOGX NOGC ( 1  1  0  0 0 0)


     celldm(1)=    8.23700  celldm(2)=    0.00000  celldm(3)=    0.00000
     celldm(4)=    0.00000  celldm(5)=    0.00000  celldm(6)=    0.00000

     crystal axes: (cart. coord. in units of a_0)
               a(1) = ( -0.5000  0.0000  0.5000 )  
               a(2) = (  0.0000  0.5000  0.5000 )  
               a(3) = ( -0.5000  0.5000  0.0000 )  

     reciprocal axes: (cart. coord. in units 2 pi/a_0)
               b(1) = ( -1.0000 -1.0000  1.0000 )  
               b(2) = (  1.0000  1.0000  1.0000 )  
               b(3) = ( -1.0000  1.0000 -1.0000 )  


     Atoms inside the unit cell: 

   Cartesian axes

     site n.  atom      mass           positions (a_0 units)
        1        Si  28.0879   tau( 1) = (    0.00000    0.00000    0.00000  )
        2        C   12.0118   tau( 2) = (    0.25000    0.25000    0.25000  )

     25 Sym.Ops. (with q -> -q+G )


     G cutoff =  412.4674  (   8801 G-vectors)     FFT grid: ( 30, 30, 30)
     number of k points=   27  gaussian broad. (Ry)=  0.0200     ngauss =   1
                       cart. coord. in units 2pi/a_0
        k(    1) = (   0.0000000   0.0000000   0.0000000), wk =   0.0740741
        k(    2) = (  -0.3333333   0.3333333  -0.3333333), wk =   0.0740741
        k(    3) = (  -0.6666667   0.6666667  -0.6666667), wk =   0.0740741
        k(    4) = (   0.3333333   0.3333333   0.3333333), wk =   0.0740741
        k(    5) = (   0.0000000   0.6666667   0.0000000), wk =   0.0740741
        k(    6) = (  -0.3333333   1.0000000  -0.3333333), wk =   0.0740741
        k(    7) = (   0.6666667   0.6666667   0.6666667), wk =   0.0740741
        k(    8) = (   0.3333333   1.0000000   0.3333333), wk =   0.0740741
        k(    9) = (   0.0000000   1.3333333   0.0000000), wk =   0.0740741
        k(   10) = (  -0.3333333  -0.3333333   0.3333333), wk =   0.0740741
        k(   11) = (  -0.6666667   0.0000000   0.0000000), wk =   0.0740741
        k(   12) = (  -1.0000000   0.3333333  -0.3333333), wk =   0.0740741
        k(   13) = (   0.0000000   0.0000000   0.6666667), wk =   0.0740741
        k(   14) = (  -0.3333333   0.3333333   0.3333333), wk =   0.0740741
        k(   15) = (  -0.6666667   0.6666667  -0.0000000), wk =   0.0740741
        k(   16) = (   0.3333333   0.3333333   1.0000000), wk =   0.0740741
        k(   17) = (   0.0000000   0.6666667   0.6666667), wk =   0.0740741
        k(   18) = (  -0.3333333   1.0000000   0.3333333), wk =   0.0740741
        k(   19) = (  -0.6666667  -0.6666667   0.6666667), wk =   0.0740741
        k(   20) = (  -1.0000000  -0.3333333   0.3333333), wk =   0.0740741
        k(   21) = (  -1.3333333   0.0000000   0.0000000), wk =   0.0740741
        k(   22) = (  -0.3333333  -0.3333333   1.0000000), wk =   0.0740741
        k(   23) = (  -0.6666667  -0.0000000   0.6666667), wk =   0.0740741
        k(   24) = (  -1.0000000   0.3333333   0.3333333), wk =   0.0740741
        k(   25) = (   0.0000000   0.0000000   1.3333333), wk =   0.0740741
        k(   26) = (  -0.3333333   0.3333333   1.0000000), wk =   0.0740741
        k(   27) = (  -0.6666667   0.6666667   0.6666667), wk =   0.0740741

     PseudoPot. # 1 for Si read from file:
     ./Si.pz-vbc.UPF
     MD5 check sum: 6dfa03ddd5817404712e03e4d12deb78
     Pseudo is Norm-conserving, Zval =  4.0
     Generated by new atomic code, or converted to UPF format
     Using radial grid of  431 points,  2 beta functions with: 
                l(1) =   0
                l(2) =   1

     PseudoPot. # 2 for C  read from file:
     ./C.UPF
     MD5 check sum: 4781e8ce5ee01a432381f51d0ea25c53
     Pseudo is Norm-conserving, Zval =  4.0
     Generated by new atomic code, or converted to UPF format
     Using radial grid of  461 points,  2 beta functions with: 
                l(1) =   0
                l(2) =   1
     EPW          :     0.27s CPU         0.34s WALL

     EPW          :     0.49s CPU         0.56s WALL

     No wavefunction gauge setting applied
     -------------------------------------------------------------------
     Wannierization on  3 x  3 x  3 electronic grid
     -------------------------------------------------------------------

     Spin CASE ( default = unpolarized )

     Initializing Wannier90


     Initial Wannier projections

     (   0.00000   0.00000   0.00000) :  l =  -3 mr =   1
     (   0.00000   0.00000   0.00000) :  l =  -3 mr =   2
     (   0.00000   0.00000   0.00000) :  l =  -3 mr =   3
     (   0.00000   0.00000   0.00000) :  l =  -3 mr =   4

      - Number of bands is (  4)
      - Number of wannier functions is (  4)
      - All guiding functions are given 

  Reading data about k-point neighbours 

      - All neighbours are found 

     AMN
            1 of   27 on ionode
            2 of   27 on ionode
            3 of   27 on ionode
            4 of   27 on ionode
            5 of   27 on ionode
            6 of   27 on ionode
            7 of   27 on ionode
            8 of   27 on ionode
            9 of   27 on ionode
           10 of   27 on ionode
           11 of   27 on ionode
           12 of   27 on ionode
           13 of   27 on ionode
           14 of   27 on ionode
           15 of   27 on ionode
           16 of   27 on ionode
           17 of   27 on ionode
           18 of   27 on ionode
           19 of   27 on ionode
           20 of   27 on ionode
           21 of   27 on ionode
           22 of   27 on ionode
           23 of   27 on ionode
           24 of   27 on ionode
           25 of   27 on ionode
           26 of   27 on ionode
           27 of   27 on ionode

     AMN calculated

     MMN
            1 of   27 on ionode
            2 of   27 on ionode
            3 of   27 on ionode
            4 of   27 on ionode
            5 of   27 on ionode
            6 of   27 on ionode
            7 of   27 on ionode
            8 of   27 on ionode
            9 of   27 on ionode
           10 of   27 on ionode
           11 of   27 on ionode
           12 of   27 on ionode
           13 of   27 on ionode
           14 of   27 on ionode
           15 of   27 on ionode
           16 of   27 on ionode
           17 of   27 on ionode
           18 of   27 on ionode
           19 of   27 on ionode
           20 of   27 on ionode
           21 of   27 on ionode
           22 of   27 on ionode
           23 of   27 on ionode
           24 of   27 on ionode
           25 of   27 on ionode
           26 of   27 on ionode
           27 of   27 on ionode
     MMN calculated

     Running Wannier90

     Wannier Function centers (cartesian, alat) and spreads (ang):

     (   0.16147   0.16147   0.16147) :   0.87894
     (   0.16147  -0.16147  -0.16147) :   0.87894
     (  -0.16147   0.16147  -0.16147) :   0.87894
     (  -0.16147  -0.16147   0.16147) :   0.87894

     -------------------------------------------------------------------
     WANNIER      :      8.45s CPU      8.57s WALL (       1 calls)
     -------------------------------------------------------------------

     Dipole matrix elements calculated


     Calculating kmap and kgmap
     Progress  kmap: ###########################
     Progress kgmap: ########################################
     kmaps        :      1.86s CPU      2.07s WALL (       1 calls)
     Symmetries of bravais lattice:  48
     Symmetries of crystal:          24


     ===================================================================
     irreducible q point #    1
     ===================================================================

     Symmetries of small group of q: 24
          in addition sym. q -> -q+G:

     Number of q in the star =    1
     List of q in the star:
          1   0.000000000   0.000000000   0.000000000
        Imposing acoustic sum rule on the dynamical matrix

        q(    1 ) = (   0.0000000   0.0000000   0.0000000 )


     ===================================================================
     irreducible q point #    2
     ===================================================================

     Symmetries of small group of q:  6

     Number of q in the star =    4
     List of q in the star:
          1  -0.333333333   0.333333333  -0.333333333
          2   0.333333333   0.333333333   0.333333333
          3   0.333333333  -0.333333333  -0.333333333
          4  -0.333333333  -0.333333333   0.333333333
     In addition there is the -q list: 
          1   0.333333333  -0.333333333   0.333333333
          2  -0.333333333  -0.333333333  -0.333333333
          3  -0.333333333   0.333333333   0.333333333
          4   0.333333333   0.333333333  -0.333333333

        q(    2 ) = (  -0.3333333   0.3333333  -0.3333333 )

        q(    3 ) = (   0.3333333  -0.3333333   0.3333333 )
        q(    4 ) = (   0.3333333   0.3333333   0.3333333 )
        q(    5 ) = (  -0.3333333  -0.3333333  -0.3333333 )
        q(    6 ) = (   0.3333333  -0.3333333  -0.3333333 )
        q(    7 ) = (  -0.3333333   0.3333333   0.3333333 )
        q(    8 ) = (  -0.3333333  -0.3333333   0.3333333 )
        q(    9 ) = (   0.3333333   0.3333333  -0.3333333 )


     ===================================================================
     irreducible q point #    3
     ===================================================================

     Symmetries of small group of q:  4

     Number of q in the star =    6
     List of q in the star:
          1   0.000000000   0.666666667   0.000000000
          2   0.000000000   0.000000000  -0.666666667
          3  -0.666666667   0.000000000   0.000000000
          4   0.666666667   0.000000000   0.000000000
          5   0.000000000  -0.666666667   0.000000000
          6   0.000000000   0.000000000   0.666666667

        q(   10 ) = (   0.0000000   0.6666667   0.0000000 )
        q(   11 ) = (   0.0000000   0.0000000  -0.6666667 )
        q(   12 ) = (  -0.6666667   0.0000000   0.0000000 )
        q(   13 ) = (   0.6666667   0.0000000   0.0000000 )
        q(   14 ) = (   0.0000000  -0.6666667   0.0000000 )
        q(   15 ) = (   0.0000000   0.0000000   0.6666667 )


     ===================================================================
     irreducible q point #    4
     ===================================================================

     Symmetries of small group of q:  2

     Number of q in the star =   12
     List of q in the star:
          1   0.666666667   0.000000000   0.666666667
          2  -0.666666667   0.000000000  -0.666666667
          3   0.666666667  -0.666666667   0.000000000
          4   0.000000000  -0.666666667   0.666666667
          5   0.000000000  -0.666666667  -0.666666667
          6  -0.666666667   0.000000000   0.666666667
          7   0.666666667   0.666666667   0.000000000
          8  -0.666666667  -0.666666667   0.000000000
          9  -0.666666667   0.666666667   0.000000000
         10   0.666666667   0.000000000  -0.666666667
         11   0.000000000   0.666666667   0.666666667
         12   0.000000000   0.666666667  -0.666666667

        q(   16 ) = (   0.6666667   0.0000000   0.6666667 )
        q(   17 ) = (  -0.6666667   0.0000000  -0.6666667 )
        q(   18 ) = (   0.6666667  -0.6666667   0.0000000 )
        q(   19 ) = (   0.0000000  -0.6666667   0.6666667 )
        q(   20 ) = (   0.0000000  -0.6666667  -0.6666667 )
        q(   21 ) = (  -0.6666667   0.0000000   0.6666667 )
        q(   22 ) = (   0.6666667   0.6666667   0.0000000 )
        q(   23 ) = (  -0.6666667  -0.6666667   0.0000000 )
        q(   24 ) = (  -0.6666667   0.6666667   0.0000000 )
        q(   25 ) = (   0.6666667   0.0000000  -0.6666667 )
        q(   26 ) = (   0.0000000   0.6666667   0.6666667 )
        q(   27 ) = (   0.0000000   0.6666667  -0.6666667 )

     Writing epmatq on .epb files


     The .epb files have been correctly written


     Writing Hamiltonian, Dynamical matrix and EP vertex in Wann rep to file


     Reading Hamiltonian, Dynamical matrix and EP vertex in Wann rep from file


     Finished reading Wann rep data from file

     Using uniform q-mesh:    6   6   6
     Size of q point mesh for interpolation:        216
     Using uniform k-mesh:    6   6   6
     Size of k point mesh for interpolation:        432
     Max number of k points per pool:              432

     Fermi energy coarse grid =   9.635389 eV

     Fermi energy is calculated from the fine k-mesh: Ef =   9.805462 eV

     ===================================================================

              ibndmin =     1  ebndmin =    -0.336
              ibndmax =     4  ebndmax =     0.691


     Number of ep-matrix elements per pool :        20736 ~=  162.00 Kb (@ 8 bytes/ DP)

     ===================================================================
     Phonon (Imaginary) Self-Energy in the Migdal Approximation
     ===================================================================


     Fermi Surface thickness =  15.000000 eV

     Golden Rule strictly enforced with T =   0.172347 eV
     Gaussian Broadening:   1.000000 eV, ngauss=   1
     DOS =  0.046846 states/spin/eV/Unit Cell at Ef=  9.805462 eV

     ismear =     1 iq =       1 coord.:   0.00000  0.00000  0.00000 wt:   0.00463
     -------------------------------------------------------------------
     lambda(   1 )=       0.000000   gamma=       0.000000 meV   omega=      0.0001 meV
     lambda_tr(   1 )=       0.000000   gamma_tr=       0.000000 meV   omega=      0.0001 meV
     lambda(   2 )=       0.000000   gamma=       0.000000 meV   omega=      0.0002 meV
     lambda_tr(   2 )=       0.000000   gamma_tr=       0.000000 meV   omega=      0.0002 meV
     lambda(   3 )=       0.000000   gamma=       0.000000 meV   omega=      0.0002 meV
     lambda_tr(   3 )=       0.000000   gamma_tr=       0.000000 meV   omega=      0.0002 meV
     lambda(   4 )=       0.006035   gamma=       0.007898 meV   omega=     94.2972 meV
     lambda_tr(   4 )=       0.027094   gamma_tr=       0.035456 meV   omega=     94.2972 meV
     lambda(   5 )=       0.006035   gamma=       0.007898 meV   omega=     94.2972 meV
     lambda_tr(   5 )=       0.027280   gamma_tr=       0.035700 meV   omega=     94.2972 meV
     lambda(   6 )=       0.006035   gamma=       0.007898 meV   omega=     94.2972 meV
     lambda_tr(   6 )=       0.027829   gamma_tr=       0.036418 meV   omega=     94.2972 meV
     lambda( tot )=       0.018106
     lambda_tr( tot )=       0.082203
     -------------------------------------------------------------------


     Number of (k,k+q) pairs on the Fermi surface:      216 out of      216


     ===================================================================
     Electron (Imaginary) Self-Energy in the Migdal Approximation
     ===================================================================


     Fermi Surface thickness =  15.000000 eV

     Golden Rule strictly enforced with T =   0.172347 eV
     Gaussian Broadening:   1.000000 eV, ngauss=   1
     DOS =  0.046846 states/spin/eV/Unit Cell at Ef=  9.805462 eV
 

     ismear =     1 iq =       2 coord.:   0.00000  0.00000  0.16667 wt:   0.00463
     -------------------------------------------------------------------
     lambda(   1 )=      -0.048013   gamma=      -0.001844 meV   omega=     16.1523 meV
     lambda_tr(   1 )=       0.206834   gamma_tr=       0.007942 meV   omega=     16.1523 meV
     lambda(   2 )=      -0.030186   gamma=      -0.001371 meV   omega=     17.5651 meV
     lambda_tr(   2 )=       0.131088   gamma_tr=       0.005952 meV   omega=     17.5651 meV
     lambda(   3 )=       0.037737   gamma=       0.006061 meV   omega=     33.0343 meV
     lambda_tr(   3 )=       0.373376   gamma_tr=       0.059965 meV   omega=     33.0343 meV
     lambda(   4 )=       0.036004   gamma=       0.047011 meV   omega=     94.1917 meV
     lambda_tr(   4 )=       0.093435   gamma_tr=       0.122000 meV   omega=     94.1917 meV
     lambda(   5 )=       0.037789   gamma=       0.049577 meV   omega=     94.4169 meV
     lambda_tr(   5 )=       0.108509   gamma_tr=       0.142360 meV   omega=     94.4169 meV
     lambda(   6 )=       0.054485   gamma=       0.081620 meV   omega=    100.8906 meV
     lambda_tr(   6 )=       0.113664   gamma_tr=       0.170274 meV   omega=    100.8906 meV
     lambda( tot )=       0.087815
     lambda_tr( tot )=       1.026906
     -------------------------------------------------------------------


     Number of (k,k+q) pairs on the Fermi surface:      216 out of      216


     ismear =     1 iq =       3 coord.:   0.00000  0.00000  0.33333 wt:   0.00463
     -------------------------------------------------------------------
     lambda(   1 )=       0.008338   gamma=       0.001023 meV   omega=     28.8761 meV
     lambda_tr(   1 )=       0.026727   gamma_tr=       0.003280 meV   omega=     28.8761 meV
     lambda(   2 )=       0.008338   gamma=       0.001023 meV   omega=     28.8761 meV
     lambda_tr(   2 )=       0.024935   gamma_tr=       0.003060 meV   omega=     28.8761 meV
     lambda(   3 )=       0.067494   gamma=       0.038043 meV   omega=     61.8857 meV
     lambda_tr(   3 )=       0.120030   gamma_tr=       0.067654 meV   omega=     61.8857 meV
     lambda(   4 )=       0.039207   gamma=       0.049773 meV   omega=     92.8762 meV
     lambda_tr(   4 )=       0.055915   gamma_tr=       0.070983 meV   omega=     92.8762 meV
     lambda(   5 )=       0.039207   gamma=       0.049773 meV   omega=     92.8762 meV
     lambda_tr(   5 )=       0.050103   gamma_tr=       0.063606 meV   omega=     92.8762 meV
     lambda(   6 )=       0.053435   gamma=       0.091180 meV   omega=    107.6781 meV
     lambda_tr(   6 )=       0.072674   gamma_tr=       0.124010 meV   omega=    107.6781 meV
     lambda( tot )=       0.216018
     lambda_tr( tot )=       0.350383
     -------------------------------------------------------------------


     Number of (k,k+q) pairs on the Fermi surface:      216 out of      216


     ismear =     1 iq =       4 coord.:   0.00000  0.00000  0.50000 wt:   0.00463
     -------------------------------------------------------------------
     lambda(   1 )=       0.006138   gamma=       0.000957 meV   omega=     32.5419 meV
     lambda_tr(   1 )=       0.010207   gamma_tr=       0.001591 meV   omega=     32.5419 meV
     lambda(   2 )=       0.005947   gamma=       0.000979 meV   omega=     33.4448 meV
     lambda_tr(   2 )=       0.010249   gamma_tr=       0.001687 meV   omega=     33.4448 meV
     lambda(   3 )=       0.058236   gamma=       0.049185 meV   omega=     75.7545 meV
     lambda_tr(   3 )=       0.088450   gamma_tr=       0.074703 meV   omega=     75.7545 meV
     lambda(   4 )=       0.030533   gamma=       0.037441 meV   omega=     91.2800 meV
     lambda_tr(   4 )=       0.039911   gamma_tr=       0.048941 meV   omega=     91.2800 meV
     lambda(   5 )=       0.030461   gamma=       0.037618 meV   omega=     91.6046 meV
     lambda_tr(   5 )=       0.040381   gamma_tr=       0.049870 meV   omega=     91.6046 meV
     lambda(   6 )=       0.019282   gamma=       0.032554 meV   omega=    107.1065 meV
     lambda_tr(   6 )=       0.025104   gamma_tr=       0.042384 meV   omega=    107.1065 meV
     lambda( tot )=       0.150596
     lambda_tr( tot )=       0.214303
     -------------------------------------------------------------------


     Number of (k,k+q) pairs on the Fermi surface:      216 out of      216


     ismear =     1 iq =       5 coord.:   0.00000  0.00000  0.66667 wt:   0.00463
     -------------------------------------------------------------------
     lambda(   1 )=       0.008338   gamma=       0.001023 meV   omega=     28.8761 meV
     lambda_tr(   1 )=       0.030729   gamma_tr=       0.003771 meV   omega=     28.8761 meV
     lambda(   2 )=       0.008338   gamma=       0.001023 meV   omega=     28.8761 meV
     lambda_tr(   2 )=       0.031423   gamma_tr=       0.003856 meV   omega=     28.8761 meV
     lambda(   3 )=       0.067494   gamma=       0.038043 meV   omega=     61.8857 meV
     lambda_tr(   3 )=       0.102433   gamma_tr=       0.057735 meV   omega=     61.8857 meV
     lambda(   4 )=       0.039207   gamma=       0.049773 meV   omega=     92.8762 meV
     lambda_tr(   4 )=       0.049695   gamma_tr=       0.063087 meV   omega=     92.8762 meV
     lambda(   5 )=       0.039207   gamma=       0.049773 meV   omega=     92.8762 meV
     lambda_tr(   5 )=       0.053255   gamma_tr=       0.067607 meV   omega=     92.8762 meV
     lambda(   6 )=       0.053435   gamma=       0.091180 meV   omega=    107.6781 meV
     lambda_tr(   6 )=       0.063045   gamma_tr=       0.107578 meV   omega=    107.6781 meV
     lambda( tot )=       0.216018
     lambda_tr( tot )=       0.330579
     -------------------------------------------------------------------


     Number of (k,k+q) pairs on the Fermi surface:      216 out of      216


     ismear =     1 iq =       6 coord.:   0.00000  0.00000  0.83333 wt:   0.00463
     -------------------------------------------------------------------
     lambda(   1 )=      -0.048000   gamma=      -0.001843 meV   omega=     16.1523 meV
     lambda_tr(   1 )=       0.243412   gamma_tr=       0.009346 meV   omega=     16.1523 meV
     lambda(   2 )=      -0.030182   gamma=      -0.001370 meV   omega=     17.5651 meV
     lambda_tr(   2 )=       0.135773   gamma_tr=       0.006165 meV   omega=     17.5651 meV
     lambda(   3 )=       0.037733   gamma=       0.006060 meV   omega=     33.0343 meV
     lambda_tr(   3 )=       0.360998   gamma_tr=       0.057977 meV   omega=     33.0343 meV
     lambda(   4 )=       0.036004   gamma=       0.047010 meV   omega=     94.1917 meV
     lambda_tr(   4 )=       0.097606   gamma_tr=       0.127446 meV   omega=     94.1917 meV
     lambda(   5 )=       0.037788   gamma=       0.049576 meV   omega=     94.4169 meV
     lambda_tr(   5 )=       0.104360   gamma_tr=       0.136917 meV   omega=     94.4169 meV
     lambda(   6 )=       0.054485   gamma=       0.081621 meV   omega=    100.8906 meV
     lambda_tr(   6 )=       0.124912   gamma_tr=       0.187123 meV   omega=    100.8906 meV
     lambda( tot )=       0.087828
     lambda_tr( tot )=       1.067062
     -------------------------------------------------------------------


     Number of (k,k+q) pairs on the Fermi surface:      216 out of      216


     ismear =     1 iq =       7 coord.:   0.00000  0.16667  0.00000 wt:   0.00463
     -------------------------------------------------------------------
     lambda(   1 )=      -0.016023   gamma=      -0.000399 meV   omega=     12.9998 meV
     lambda_tr(   1 )=       0.516459   gamma_tr=       0.012845 meV   omega=     12.9998 meV
     lambda(   2 )=      -0.016023   gamma=      -0.000398 meV   omega=     12.9998 meV
     lambda_tr(   2 )=       0.533320   gamma_tr=       0.013264 meV   omega=     12.9998 meV
     lambda(   3 )=      -0.122669   gamma=      -0.019174 meV   omega=     32.5896 meV
     lambda_tr(   3 )=       0.544024   gamma_tr=       0.085035 meV   omega=     32.5896 meV
     lambda(   4 )=       0.047822   gamma=       0.063424 meV   omega=     94.9296 meV
     lambda_tr(   4 )=       0.104996   gamma_tr=       0.139251 meV   omega=     94.9296 meV
     lambda(   5 )=       0.047822   gamma=       0.063424 meV   omega=     94.9296 meV
     lambda_tr(   5 )=       0.122591   gamma_tr=       0.162587 meV   omega=     94.9296 meV
     lambda(   6 )=       0.067262   gamma=       0.100998 meV   omega=    101.0096 meV
     lambda_tr(   6 )=       0.123943   gamma_tr=       0.186110 meV   omega=    101.0096 meV
     lambda( tot )=       0.008190
     lambda_tr( tot )=       1.945333
     -------------------------------------------------------------------


     Number of (k,k+q) pairs on the Fermi surface:      216 out of      216


     ismear =     1 iq =       8 coord.:   0.00000  0.16667  0.16667 wt:   0.00463
     -------------------------------------------------------------------
     lambda(   1 )=       0.018138   gamma=       0.001195 meV   omega=     21.1581 meV
     lambda_tr(   1 )=       0.062658   gamma_tr=       0.004128 meV   omega=     21.1581 meV
     lambda(   2 )=      -0.017422   gamma=      -0.001341 meV   omega=     22.8691 meV
     lambda_tr(   2 )=       0.084287   gamma_tr=       0.006488 meV   omega=     22.8691 meV
     lambda(   3 )=       0.018751   gamma=       0.003227 meV   omega=     34.1944 meV
     lambda_tr(   3 )=       0.310470   gamma_tr=       0.053426 meV   omega=     34.1944 meV
     lambda(   4 )=       0.044449   gamma=       0.058578 meV   omega=     94.6292 meV
     lambda_tr(   4 )=       0.115582   gamma_tr=       0.152322 meV   omega=     94.6292 meV
     lambda(   5 )=       0.046848   gamma=       0.062307 meV   omega=     95.0632 meV
     lambda_tr(   5 )=       0.124478   gamma_tr=       0.165554 meV   omega=     95.0632 meV
     lambda(   6 )=       0.082431   gamma=       0.125649 meV   omega=    101.7710 meV
     lambda_tr(   6 )=       0.163109   gamma_tr=       0.248627 meV   omega=    101.7710 meV
     lambda( tot )=       0.193196
     lambda_tr( tot )=       0.860583
     -------------------------------------------------------------------


     Number of (k,k+q) pairs on the Fermi surface:      216 out of      216


     ismear =     1 iq =       9 coord.:   0.00000  0.16667  0.33333 wt:   0.00463
     -------------------------------------------------------------------
     lambda(   1 )=      -0.001933   gamma=      -0.000299 meV   omega=     32.3970 meV
     lambda_tr(   1 )=       0.001617   gamma_tr=       0.000250 meV   omega=     32.3970 meV
     lambda(   2 )=       0.009664   gamma=       0.001512 meV   omega=     32.6006 meV
     lambda_tr(   2 )=       0.012081   gamma_tr=       0.001890 meV   omega=     32.6006 meV
     lambda(   3 )=       0.037199   gamma=       0.017189 meV   omega=     56.0344 meV
     lambda_tr(   3 )=       0.024683   gamma_tr=       0.011406 meV   omega=     56.0344 meV
     lambda(   4 )=       0.023989   gamma=       0.030817 meV   omega=     93.4283 meV
     lambda_tr(   4 )=       0.010167   gamma_tr=       0.013061 meV   omega=     93.4283 meV
     lambda(   5 )=       0.025494   gamma=       0.034195 meV   omega=     95.4660 meV
     lambda_tr(   5 )=       0.023326   gamma_tr=       0.031287 meV   omega=     95.4660 meV
     lambda(   6 )=       0.026540   gamma=       0.043294 meV   omega=    105.2813 meV
     lambda_tr(   6 )=       0.020238   gamma_tr=       0.033013 meV   omega=    105.2813 meV
     lambda( tot )=       0.120953
     lambda_tr( tot )=       0.092112
     -------------------------------------------------------------------


     Number of (k,k+q) pairs on the Fermi surface:      216 out of      216


     ismear =     1 iq =      10 coord.:   0.00000  0.16667  0.50000 wt:   0.00463
     -------------------------------------------------------------------
     lambda(   1 )=       0.002778   gamma=       0.000558 meV   omega=     36.9315 meV
     lambda_tr(   1 )=      -0.000840   gamma_tr=      -0.000169 meV   omega=     36.9315 meV
     lambda(   2 )=       0.007632   gamma=       0.002018 meV   omega=     42.3891 meV
     lambda_tr(   2 )=       0.001899   gamma_tr=       0.000502 meV   omega=     42.3891 meV
     lambda(   3 )=       0.025104   gamma=       0.018376 meV   omega=     70.5246 meV
     lambda_tr(   3 )=       0.012838   gamma_tr=       0.009397 meV   omega=     70.5246 meV
     lambda(   4 )=       0.014042   gamma=       0.017276 meV   omega=     91.4339 meV
     lambda_tr(   4 )=       0.007072   gamma_tr=       0.008702 meV   omega=     91.4339 meV
     lambda(   5 )=       0.018359   gamma=       0.023372 meV   omega=     93.0071 meV
     lambda_tr(   5 )=       0.015476   gamma_tr=       0.019702 meV   omega=     93.0071 meV
     lambda(   6 )=       0.007965   gamma=       0.012979 meV   omega=    105.2271 meV
     lambda_tr(   6 )=       0.007247   gamma_tr=       0.011810 meV   omega=    105.2271 meV
     lambda( tot )=       0.075878
     lambda_tr( tot )=       0.043692
     -------------------------------------------------------------------


     Number of (k,k+q) pairs on the Fermi surface:      216 out of      216


     ismear =     1 iq =      11 coord.:   0.00000  0.16667  0.66667 wt:   0.00463
     -------------------------------------------------------------------
     lambda(   1 )=       0.019504   gamma=       0.003292 meV   omega=     33.8649 meV
     lambda_tr(   1 )=       0.018753   gamma_tr=       0.003165 meV   omega=     33.8649 meV
     lambda(   2 )=       0.008241   gamma=       0.002263 meV   omega=     43.2002 meV
     lambda_tr(   2 )=       0.005812   gamma_tr=       0.001596 meV   omega=     43.2002 meV
     lambda(   3 )=       0.026139   gamma=       0.017295 meV   omega=     67.0515 meV
     lambda_tr(   3 )=       0.011579   gamma_tr=       0.007661 meV   omega=     67.0515 meV
     lambda(   4 )=       0.028451   gamma=       0.035595 meV   omega=     92.1999 meV
     lambda_tr(   4 )=       0.032614   gamma_tr=       0.040803 meV   omega=     92.1999 meV
     lambda(   5 )=       0.016775   gamma=       0.021513 meV   omega=     93.3506 meV
     lambda_tr(   5 )=       0.005754   gamma_tr=       0.007379 meV   omega=     93.3506 meV
     lambda(   6 )=       0.017448   gamma=       0.028311 meV   omega=    105.0008 meV
     lambda_tr(   6 )=       0.013420   gamma_tr=       0.021775 meV   omega=    105.0008 meV
     lambda( tot )=       0.116557
     lambda_tr( tot )=       0.087932
     -------------------------------------------------------------------


     Number of (k,k+q) pairs on the Fermi surface:      216 out of      216


     ismear =     1 iq =      12 coord.:   0.00000  0.16667  0.83333 wt:   0.00463
     -------------------------------------------------------------------
     lambda(   1 )=       0.053621   gamma=       0.004459 meV   omega=     23.7707 meV
     lambda_tr(   1 )=       0.114045   gamma_tr=       0.009484 meV   omega=     23.7707 meV
     lambda(   2 )=       0.000430   gamma=       0.000066 meV   omega=     32.3608 meV
     lambda_tr(   2 )=       0.007189   gamma_tr=       0.001108 meV   omega=     32.3608 meV
     lambda(   3 )=       0.000772   gamma=       0.000266 meV   omega=     48.3490 meV
     lambda_tr(   3 )=       0.060738   gamma_tr=       0.020896 meV   omega=     48.3490 meV
     lambda(   4 )=       0.031641   gamma=       0.041193 meV   omega=     94.0537 meV
     lambda_tr(   4 )=       0.054106   gamma_tr=       0.070440 meV   omega=     94.0537 meV
     lambda(   5 )=       0.029448   gamma=       0.039654 meV   omega=     95.6544 meV
     lambda_tr(   5 )=       0.038217   gamma_tr=       0.051463 meV   omega=     95.6544 meV
     lambda(   6 )=       0.026927   gamma=       0.043203 meV   omega=    104.4132 meV
     lambda_tr(   6 )=       0.032407   gamma_tr=       0.051996 meV   omega=    104.4132 meV
     lambda( tot )=       0.142838
     lambda_tr( tot )=       0.306702
     -------------------------------------------------------------------


     Number of (k,k+q) pairs on the Fermi surface:      216 out of      216


     ismear =     1 iq =      13 coord.:   0.00000  0.33333  0.00000 wt:   0.00463
     -------------------------------------------------------------------
     lambda(   1 )=       0.008338   gamma=       0.001023 meV   omega=     28.8761 meV
     lambda_tr(   1 )=       0.028307   gamma_tr=       0.003474 meV   omega=     28.8761 meV
     lambda(   2 )=       0.008338   gamma=       0.001023 meV   omega=     28.8761 meV
     lambda_tr(   2 )=       0.031181   gamma_tr=       0.003826 meV   omega=     28.8761 meV
     lambda(   3 )=       0.067494   gamma=       0.038043 meV   omega=     61.8857 meV
     lambda_tr(   3 )=       0.113842   gamma_tr=       0.064166 meV   omega=     61.8857 meV
     lambda(   4 )=       0.039207   gamma=       0.049773 meV   omega=     92.8762 meV
     lambda_tr(   4 )=       0.054149   gamma_tr=       0.068743 meV   omega=     92.8762 meV
     lambda(   5 )=       0.039207   gamma=       0.049773 meV   omega=     92.8762 meV
     lambda_tr(   5 )=       0.050821   gamma_tr=       0.064517 meV   omega=     92.8762 meV
     lambda(   6 )=       0.053435   gamma=       0.091180 meV   omega=    107.6781 meV
     lambda_tr(   6 )=       0.069676   gamma_tr=       0.118894 meV   omega=    107.6781 meV
     lambda( tot )=       0.216018
     lambda_tr( tot )=       0.347977
     -------------------------------------------------------------------


     Number of (k,k+q) pairs on the Fermi surface:      216 out of      216


     ismear =     1 iq =      14 coord.:   0.00000  0.33333  0.16667 wt:   0.00463
     -------------------------------------------------------------------
     lambda(   1 )=       0.004355   gamma=       0.000699 meV   omega=     33.0339 meV
     lambda_tr(   1 )=       0.002417   gamma_tr=       0.000388 meV   omega=     33.0339 meV
     lambda(   2 )=       0.003304   gamma=       0.000547 meV   omega=     33.5472 meV
     lambda_tr(   2 )=       0.017560   gamma_tr=       0.002908 meV   omega=     33.5472 meV
     lambda(   3 )=       0.030143   gamma=       0.013437 meV   omega=     55.0357 meV
     lambda_tr(   3 )=       0.022879   gamma_tr=       0.010199 meV   omega=     55.0357 meV
     lambda(   4 )=       0.023171   gamma=       0.029670 meV   omega=     93.2760 meV
     lambda_tr(   4 )=       0.016366   gamma_tr=       0.020956 meV   omega=     93.2760 meV
     lambda(   5 )=       0.025554   gamma=       0.033646 meV   omega=     94.5851 meV
     lambda_tr(   5 )=       0.022313   gamma_tr=       0.029379 meV   omega=     94.5851 meV
     lambda(   6 )=       0.030673   gamma=       0.050950 meV   omega=    106.2387 meV
     lambda_tr(   6 )=       0.022244   gamma_tr=       0.036949 meV   omega=    106.2387 meV
     lambda( tot )=       0.117201
     lambda_tr( tot )=       0.103780
     -------------------------------------------------------------------


     Number of (k,k+q) pairs on the Fermi surface:      216 out of      216


     ismear =     1 iq =      15 coord.:   0.00000  0.33333  0.33333 wt:   0.00463
     -------------------------------------------------------------------
     lambda(   1 )=       0.000852   gamma=       0.000203 meV   omega=     40.2848 meV
     lambda_tr(   1 )=      -0.002978   gamma_tr=      -0.000711 meV   omega=     40.2848 meV
     lambda(   2 )=       0.000852   gamma=       0.000203 meV   omega=     40.2848 meV
     lambda_tr(   2 )=      -0.003138   gamma_tr=      -0.000750 meV   omega=     40.2848 meV
     lambda(   3 )=       0.014537   gamma=       0.008316 meV   omega=     62.3475 meV
     lambda_tr(   3 )=      -0.021745   gamma_tr=      -0.012440 meV   omega=     62.3475 meV
     lambda(   4 )=       0.004624   gamma=       0.005806 meV   omega=     92.3649 meV
     lambda_tr(   4 )=      -0.003319   gamma_tr=      -0.004168 meV   omega=     92.3649 meV
     lambda(   5 )=       0.004624   gamma=       0.005806 meV   omega=     92.3649 meV
     lambda_tr(   5 )=      -0.003057   gamma_tr=      -0.003839 meV   omega=     92.3649 meV
     lambda(   6 )=       0.017198   gamma=       0.029405 meV   omega=    107.7865 meV
     lambda_tr(   6 )=      -0.000212   gamma_tr=      -0.000362 meV   omega=    107.7865 meV
     lambda( tot )=       0.042686
     lambda_tr( tot )=      -0.034450
     -------------------------------------------------------------------


     Number of (k,k+q) pairs on the Fermi surface:      216 out of      216


     ismear =     1 iq =      16 coord.:   0.00000  0.33333  0.50000 wt:   0.00463
     -------------------------------------------------------------------
     lambda(   1 )=       0.000278   gamma=       0.000077 meV   omega=     43.4094 meV
     lambda_tr(   1 )=      -0.000925   gamma_tr=      -0.000257 meV   omega=     43.4094 meV
     lambda(   2 )=       0.002194   gamma=       0.000758 meV   omega=     48.4535 meV
     lambda_tr(   2 )=      -0.007013   gamma_tr=      -0.002423 meV   omega=     48.4535 meV
     lambda(   3 )=       0.010982   gamma=       0.007951 meV   omega=     70.1381 meV
     lambda_tr(   3 )=      -0.021163   gamma_tr=      -0.015322 meV   omega=     70.1381 meV
     lambda(   4 )=       0.000798   gamma=       0.000966 meV   omega=     90.7192 meV
     lambda_tr(   4 )=       0.000208   gamma_tr=       0.000252 meV   omega=     90.7192 meV
     lambda(   5 )=       0.002636   gamma=       0.003301 meV   omega=     92.2333 meV
     lambda_tr(   5 )=      -0.005105   gamma_tr=      -0.006392 meV   omega=     92.2333 meV
     lambda(   6 )=       0.005092   gamma=       0.008196 meV   omega=    104.5752 meV
     lambda_tr(   6 )=      -0.004123   gamma_tr=      -0.006636 meV   omega=    104.5752 meV
     lambda( tot )=       0.021979
     lambda_tr( tot )=      -0.038122
     -------------------------------------------------------------------


     Number of (k,k+q) pairs on the Fermi surface:      216 out of      216


     ismear =     1 iq =      17 coord.:   0.00000  0.33333  0.66667 wt:   0.00463
     -------------------------------------------------------------------
     lambda(   1 )=       0.000768   gamma=       0.000197 meV   omega=     41.7010 meV
     lambda_tr(   1 )=      -0.000275   gamma_tr=      -0.000070 meV   omega=     41.7010 meV
     lambda(   2 )=       0.001384   gamma=       0.000663 meV   omega=     57.0531 meV
     lambda_tr(   2 )=      -0.001411   gamma_tr=      -0.000676 meV   omega=     57.0531 meV
     lambda(   3 )=       0.013588   gamma=       0.008618 meV   omega=     65.6468 meV
     lambda_tr(   3 )=      -0.005389   gamma_tr=      -0.003418 meV   omega=     65.6468 meV
     lambda(   4 )=       0.004548   gamma=       0.005489 meV   omega=     90.5578 meV
     lambda_tr(   4 )=       0.001606   gamma_tr=       0.001938 meV   omega=     90.5578 meV
     lambda(   5 )=       0.000815   gamma=       0.001006 meV   omega=     91.5830 meV
     lambda_tr(   5 )=      -0.000273   gamma_tr=      -0.000338 meV   omega=     91.5830 meV
     lambda(   6 )=       0.006970   gamma=       0.010979 meV   omega=    103.4577 meV
     lambda_tr(   6 )=       0.001029   gamma_tr=       0.001620 meV   omega=    103.4577 meV
     lambda( tot )=       0.028073
     lambda_tr( tot )=      -0.004714
     -------------------------------------------------------------------


     Number of (k,k+q) pairs on the Fermi surface:      216 out of      216


     ismear =     1 iq =      18 coord.:   0.00000  0.33333  0.83333 wt:   0.00463
     -------------------------------------------------------------------
     lambda(   1 )=       0.007297   gamma=       0.001301 meV   omega=     34.8074 meV
     lambda_tr(   1 )=       0.005153   gamma_tr=       0.000919 meV   omega=     34.8074 meV
     lambda(   2 )=       0.003521   gamma=       0.000939 meV   omega=     42.5756 meV
     lambda_tr(   2 )=       0.011137   gamma_tr=       0.002971 meV   omega=     42.5756 meV
     lambda(   3 )=       0.030622   gamma=       0.019986 meV   omega=     66.5934 meV
     lambda_tr(   3 )=       0.020313   gamma_tr=       0.013258 meV   omega=     66.5934 meV
     lambda(   4 )=       0.023692   gamma=       0.029415 meV   omega=     91.8482 meV
     lambda_tr(   4 )=       0.028826   gamma_tr=       0.035789 meV   omega=     91.8482 meV
     lambda(   5 )=       0.014728   gamma=       0.018993 meV   omega=     93.6085 meV
     lambda_tr(   5 )=       0.006239   gamma_tr=       0.008046 meV   omega=     93.6085 meV
     lambda(   6 )=       0.013223   gamma=       0.021584 meV   omega=    105.3173 meV
     lambda_tr(   6 )=       0.013029   gamma_tr=       0.021268 meV   omega=    105.3173 meV
     lambda( tot )=       0.093083
     lambda_tr( tot )=       0.084698
     -------------------------------------------------------------------


     Number of (k,k+q) pairs on the Fermi surface:      216 out of      216


     ismear =     1 iq =      19 coord.:   0.00000  0.50000  0.00000 wt:   0.00463
     -------------------------------------------------------------------
     lambda(   1 )=      -0.008544   gamma=      -0.001249 meV   omega=     31.5176 meV
     lambda_tr(   1 )=      -0.008434   gamma_tr=      -0.001233 meV   omega=     31.5176 meV
     lambda(   2 )=      -0.008544   gamma=      -0.001249 meV   omega=     31.5176 meV
     lambda_tr(   2 )=      -0.008441   gamma_tr=      -0.001234 meV   omega=     31.5176 meV
     lambda(   3 )=       0.072366   gamma=       0.062730 meV   omega=     76.7464 meV
     lambda_tr(   3 )=       0.117539   gamma_tr=       0.101888 meV   omega=     76.7464 meV
     lambda(   4 )=       0.045197   gamma=       0.056254 meV   omega=     91.9620 meV
     lambda_tr(   4 )=       0.058473   gamma_tr=       0.072777 meV   omega=     91.9620 meV
     lambda(   5 )=       0.045197   gamma=       0.056254 meV   omega=     91.9620 meV
     lambda_tr(   5 )=       0.060328   gamma_tr=       0.075085 meV   omega=     91.9620 meV
     lambda(   6 )=       0.000402   gamma=       0.000670 meV   omega=    106.3991 meV
     lambda_tr(   6 )=       0.000682   gamma_tr=       0.001136 meV   omega=    106.3991 meV
     lambda( tot )=       0.146076
     lambda_tr( tot )=       0.220147
     -------------------------------------------------------------------


     Number of (k,k+q) pairs on the Fermi surface:      216 out of      216


     ismear =     1 iq =      20 coord.:   0.00000  0.50000  0.16667 wt:   0.00463
     -------------------------------------------------------------------
     lambda(   1 )=      -0.001292   gamma=      -0.000247 meV   omega=     36.0771 meV
     lambda_tr(   1 )=      -0.005999   gamma_tr=      -0.001149 meV   omega=     36.0771 meV
     lambda(   2 )=       0.006631   gamma=       0.001725 meV   omega=     42.0490 meV
     lambda_tr(   2 )=       0.003221   gamma_tr=       0.000838 meV   omega=     42.0490 meV
     lambda(   3 )=       0.027323   gamma=       0.020375 meV   omega=     71.1823 meV
     lambda_tr(   3 )=       0.021197   gamma_tr=       0.015806 meV   omega=     71.1823 meV
     lambda(   4 )=       0.016600   gamma=       0.020577 meV   omega=     91.7744 meV
     lambda_tr(   4 )=       0.010772   gamma_tr=       0.013352 meV   omega=     91.7744 meV
     lambda(   5 )=       0.020361   gamma=       0.025963 meV   omega=     93.0805 meV
     lambda_tr(   5 )=       0.019814   gamma_tr=       0.025264 meV   omega=     93.0805 meV
     lambda(   6 )=       0.005048   gamma=       0.008169 meV   omega=    104.8552 meV
     lambda_tr(   6 )=       0.004443   gamma_tr=       0.007190 meV   omega=    104.8552 meV
     lambda( tot )=       0.074672
     lambda_tr( tot )=       0.053448
     -------------------------------------------------------------------


     Number of (k,k+q) pairs on the Fermi surface:      216 out of      216


     ismear =     1 iq =      21 coord.:   0.00000  0.50000  0.33333 wt:   0.00463
     -------------------------------------------------------------------
     lambda(   1 )=      -0.000142   gamma=      -0.000036 meV   omega=     41.8048 meV
     lambda_tr(   1 )=      -0.001734   gamma_tr=      -0.000446 meV   omega=     41.8048 meV
     lambda(   2 )=       0.001252   gamma=       0.000439 meV   omega=     48.8021 meV
     lambda_tr(   2 )=      -0.008666   gamma_tr=      -0.003038 meV   omega=     48.8021 meV
     lambda(   3 )=       0.011213   gamma=       0.008206 meV   omega=     70.5158 meV
     lambda_tr(   3 )=      -0.021363   gamma_tr=      -0.015633 meV   omega=     70.5158 meV
     lambda(   4 )=       0.000871   gamma=       0.001072 meV   omega=     91.4697 meV
     lambda_tr(   4 )=       0.000230   gamma_tr=       0.000283 meV   omega=     91.4697 meV
     lambda(   5 )=       0.003652   gamma=       0.004587 meV   omega=     92.3810 meV
     lambda_tr(   5 )=      -0.006181   gamma_tr=      -0.007764 meV   omega=     92.3810 meV
     lambda(   6 )=       0.004440   gamma=       0.007072 meV   omega=    104.0273 meV
     lambda_tr(   6 )=      -0.001025   gamma_tr=      -0.001632 meV   omega=    104.0273 meV
     lambda( tot )=       0.021287
     lambda_tr( tot )=      -0.038740
     -------------------------------------------------------------------


     Number of (k,k+q) pairs on the Fermi surface:      216 out of      216


     ismear =     1 iq =      22 coord.:   0.00000  0.50000  0.50000 wt:   0.00463
     -------------------------------------------------------------------
     lambda(   1 )=      -0.000007   gamma=      -0.000002 meV   omega=     43.4255 meV
     lambda_tr(   1 )=      -0.000114   gamma_tr=      -0.000032 meV   omega=     43.4255 meV
     lambda(   2 )=      -0.000002   gamma=      -0.000000 meV   omega=     45.6990 meV
     lambda_tr(   2 )=      -0.000086   gamma_tr=      -0.000026 meV   omega=     45.6990 meV
     lambda(   3 )=       0.004056   gamma=       0.003554 meV   omega=     77.1674 meV
     lambda_tr(   3 )=      -0.005646   gamma_tr=      -0.004948 meV   omega=     77.1674 meV
     lambda(   4 )=       0.000198   gamma=       0.000238 meV   omega=     90.2559 meV
     lambda_tr(   4 )=      -0.000038   gamma_tr=      -0.000046 meV   omega=     90.2559 meV
     lambda(   5 )=       0.000174   gamma=       0.000214 meV   omega=     91.3516 meV
     lambda_tr(   5 )=      -0.000072   gamma_tr=      -0.000089 meV   omega=     91.3516 meV
     lambda(   6 )=       0.000807   gamma=       0.001295 meV   omega=    104.4254 meV
     lambda_tr(   6 )=       0.000107   gamma_tr=       0.000171 meV   omega=    104.4254 meV
     lambda( tot )=       0.005226
     lambda_tr( tot )=      -0.005849
     -------------------------------------------------------------------


     Number of (k,k+q) pairs on the Fermi surface:      216 out of      216


     ismear =     1 iq =      23 coord.:   0.00000  0.50000  0.66667 wt:   0.00463
     -------------------------------------------------------------------
     lambda(   1 )=      -0.000142   gamma=      -0.000037 meV   omega=     41.8048 meV
     lambda_tr(   1 )=      -0.001728   gamma_tr=      -0.000444 meV   omega=     41.8048 meV
     lambda(   2 )=       0.001253   gamma=       0.000439 meV   omega=     48.8021 meV
     lambda_tr(   2 )=      -0.008694   gamma_tr=      -0.003047 meV   omega=     48.8021 meV
     lambda(   3 )=       0.011213   gamma=       0.008206 meV   omega=     70.5158 meV
     lambda_tr(   3 )=      -0.021416   gamma_tr=      -0.015672 meV   omega=     70.5158 meV
     lambda(   4 )=       0.000871   gamma=       0.001072 meV   omega=     91.4697 meV
     lambda_tr(   4 )=       0.000370   gamma_tr=       0.000456 meV   omega=     91.4697 meV
     lambda(   5 )=       0.003653   gamma=       0.004588 meV   omega=     92.3810 meV
     lambda_tr(   5 )=      -0.006102   gamma_tr=      -0.007664 meV   omega=     92.3810 meV
     lambda(   6 )=       0.004438   gamma=       0.007069 meV   omega=    104.0273 meV
     lambda_tr(   6 )=      -0.000847   gamma_tr=      -0.001349 meV   omega=    104.0273 meV
     lambda( tot )=       0.021286
     lambda_tr( tot )=      -0.038416
     -------------------------------------------------------------------


     Number of (k,k+q) pairs on the Fermi surface:      216 out of      216


     ismear =     1 iq =      24 coord.:   0.00000  0.50000  0.83333 wt:   0.00463
     -------------------------------------------------------------------
     lambda(   1 )=      -0.001291   gamma=      -0.000247 meV   omega=     36.0771 meV
     lambda_tr(   1 )=      -0.006586   gamma_tr=      -0.001262 meV   omega=     36.0771 meV
     lambda(   2 )=       0.006632   gamma=       0.001726 meV   omega=     42.0490 meV
     lambda_tr(   2 )=      -0.001895   gamma_tr=      -0.000493 meV   omega=     42.0490 meV
     lambda(   3 )=       0.027324   gamma=       0.020376 meV   omega=     71.1823 meV
     lambda_tr(   3 )=       0.005687   gamma_tr=       0.004241 meV   omega=     71.1823 meV
     lambda(   4 )=       0.016601   gamma=       0.020578 meV   omega=     91.7744 meV
     lambda_tr(   4 )=       0.012928   gamma_tr=       0.016026 meV   omega=     91.7744 meV
     lambda(   5 )=       0.020359   gamma=       0.025960 meV   omega=     93.0805 meV
     lambda_tr(   5 )=       0.012049   gamma_tr=       0.015364 meV   omega=     93.0805 meV
     lambda(   6 )=       0.005044   gamma=       0.008162 meV   omega=    104.8552 meV
     lambda_tr(   6 )=       0.006201   gamma_tr=       0.010034 meV   omega=    104.8552 meV
     lambda( tot )=       0.074670
     lambda_tr( tot )=       0.028385
     -------------------------------------------------------------------


     Number of (k,k+q) pairs on the Fermi surface:      216 out of      216


     ismear =     1 iq =      25 coord.:   0.00000  0.66667  0.00000 wt:   0.00463
     -------------------------------------------------------------------
     lambda(   1 )=       0.008338   gamma=       0.001023 meV   omega=     28.8761 meV
     lambda_tr(   1 )=       0.032499   gamma_tr=       0.003988 meV   omega=     28.8761 meV
     lambda(   2 )=       0.008338   gamma=       0.001023 meV   omega=     28.8761 meV
     lambda_tr(   2 )=       0.028966   gamma_tr=       0.003555 meV   omega=     28.8761 meV
     lambda(   3 )=       0.067494   gamma=       0.038043 meV   omega=     61.8857 meV
     lambda_tr(   3 )=       0.113745   gamma_tr=       0.064111 meV   omega=     61.8857 meV
     lambda(   4 )=       0.039207   gamma=       0.049773 meV   omega=     92.8762 meV
     lambda_tr(   4 )=       0.050886   gamma_tr=       0.064600 meV   omega=     92.8762 meV
     lambda(   5 )=       0.039207   gamma=       0.049773 meV   omega=     92.8762 meV
     lambda_tr(   5 )=       0.054901   gamma_tr=       0.069697 meV   omega=     92.8762 meV
     lambda(   6 )=       0.053435   gamma=       0.091180 meV   omega=    107.6781 meV
     lambda_tr(   6 )=       0.069052   gamma_tr=       0.117829 meV   omega=    107.6781 meV
     lambda( tot )=       0.216018
     lambda_tr( tot )=       0.350050
     -------------------------------------------------------------------


     Number of (k,k+q) pairs on the Fermi surface:      216 out of      216


     ismear =     1 iq =      26 coord.:   0.00000  0.66667  0.16667 wt:   0.00463
     -------------------------------------------------------------------
     lambda(   1 )=       0.007299   gamma=       0.001301 meV   omega=     34.8074 meV
     lambda_tr(   1 )=       0.004086   gamma_tr=       0.000729 meV   omega=     34.8074 meV
     lambda(   2 )=       0.003512   gamma=       0.000937 meV   omega=     42.5756 meV
     lambda_tr(   2 )=      -0.003630   gamma_tr=      -0.000968 meV   omega=     42.5756 meV
     lambda(   3 )=       0.030632   gamma=       0.019992 meV   omega=     66.5934 meV
     lambda_tr(   3 )=       0.041564   gamma_tr=       0.027127 meV   omega=     66.5934 meV
     lambda(   4 )=       0.023691   gamma=       0.029414 meV   omega=     91.8482 meV
     lambda_tr(   4 )=       0.022491   gamma_tr=       0.027924 meV   omega=     91.8482 meV
     lambda(   5 )=       0.014730   gamma=       0.018996 meV   omega=     93.6085 meV
     lambda_tr(   5 )=       0.010204   gamma_tr=       0.013159 meV   omega=     93.6085 meV
     lambda(   6 )=       0.013219   gamma=       0.021578 meV   omega=    105.3173 meV
     lambda_tr(   6 )=       0.017433   gamma_tr=       0.028457 meV   omega=    105.3173 meV
     lambda( tot )=       0.093083
     lambda_tr( tot )=       0.092148
     -------------------------------------------------------------------


     Number of (k,k+q) pairs on the Fermi surface:      216 out of      216


     ismear =     1 iq =      27 coord.:   0.00000  0.66667  0.33333 wt:   0.00463
     -------------------------------------------------------------------
     lambda(   1 )=       0.000768   gamma=       0.000197 meV   omega=     41.7010 meV
     lambda_tr(   1 )=      -0.001020   gamma_tr=      -0.000261 meV   omega=     41.7010 meV
     lambda(   2 )=       0.001384   gamma=       0.000663 meV   omega=     57.0531 meV
     lambda_tr(   2 )=      -0.000458   gamma_tr=      -0.000220 meV   omega=     57.0531 meV
     lambda(   3 )=       0.013588   gamma=       0.008618 meV   omega=     65.6468 meV
     lambda_tr(   3 )=       0.013707   gamma_tr=       0.008693 meV   omega=     65.6468 meV
     lambda(   4 )=       0.004548   gamma=       0.005489 meV   omega=     90.5578 meV
     lambda_tr(   4 )=      -0.001801   gamma_tr=      -0.002174 meV   omega=     90.5578 meV
     lambda(   5 )=       0.000815   gamma=       0.001006 meV   omega=     91.5830 meV
     lambda_tr(   5 )=       0.000089   gamma_tr=       0.000110 meV   omega=     91.5830 meV
     lambda(   6 )=       0.006970   gamma=       0.010979 meV   omega=    103.4577 meV
     lambda_tr(   6 )=       0.006550   gamma_tr=       0.010318 meV   omega=    103.4577 meV
     lambda( tot )=       0.028073
     lambda_tr( tot )=       0.017066
     -------------------------------------------------------------------


     Number of (k,k+q) pairs on the Fermi surface:      216 out of      216


     ismear =     1 iq =      28 coord.:   0.00000  0.66667  0.50000 wt:   0.00463
     -------------------------------------------------------------------
     lambda(   1 )=       0.000277   gamma=       0.000077 meV   omega=     43.4094 meV
     lambda_tr(   1 )=      -0.000971   gamma_tr=      -0.000269 meV   omega=     43.4094 meV
     lambda(   2 )=       0.002194   gamma=       0.000758 meV   omega=     48.4535 meV
     lambda_tr(   2 )=      -0.006950   gamma_tr=      -0.002401 meV   omega=     48.4535 meV
     lambda(   3 )=       0.010983   gamma=       0.007952 meV   omega=     70.1381 meV
     lambda_tr(   3 )=      -0.019964   gamma_tr=      -0.014454 meV   omega=     70.1381 meV
     lambda(   4 )=       0.000798   gamma=       0.000966 meV   omega=     90.7192 meV
     lambda_tr(   4 )=       0.000219   gamma_tr=       0.000265 meV   omega=     90.7192 meV
     lambda(   5 )=       0.002637   gamma=       0.003301 meV   omega=     92.2333 meV
     lambda_tr(   5 )=      -0.005030   gamma_tr=      -0.006297 meV   omega=     92.2333 meV
     lambda(   6 )=       0.005091   gamma=       0.008195 meV   omega=    104.5752 meV
     lambda_tr(   6 )=      -0.003991   gamma_tr=      -0.006423 meV   omega=    104.5752 meV
     lambda( tot )=       0.021981
     lambda_tr( tot )=      -0.036687
     -------------------------------------------------------------------


     Number of (k,k+q) pairs on the Fermi surface:      216 out of      216


     ismear =     1 iq =      29 coord.:   0.00000  0.66667  0.66667 wt:   0.00463
     -------------------------------------------------------------------
     lambda(   1 )=       0.000852   gamma=       0.000203 meV   omega=     40.2848 meV
     lambda_tr(   1 )=      -0.002507   gamma_tr=      -0.000599 meV   omega=     40.2848 meV
     lambda(   2 )=       0.000852   gamma=       0.000203 meV   omega=     40.2848 meV
     lambda_tr(   2 )=      -0.002913   gamma_tr=      -0.000696 meV   omega=     40.2848 meV
     lambda(   3 )=       0.014537   gamma=       0.008316 meV   omega=     62.3475 meV
     lambda_tr(   3 )=      -0.018825   gamma_tr=      -0.010770 meV   omega=     62.3475 meV
     lambda(   4 )=       0.004624   gamma=       0.005806 meV   omega=     92.3649 meV
     lambda_tr(   4 )=      -0.003192   gamma_tr=      -0.004008 meV   omega=     92.3649 meV
     lambda(   5 )=       0.004624   gamma=       0.005806 meV   omega=     92.3649 meV
     lambda_tr(   5 )=      -0.001141   gamma_tr=      -0.001433 meV   omega=     92.3649 meV
     lambda(   6 )=       0.017198   gamma=       0.029405 meV   omega=    107.7865 meV
     lambda_tr(   6 )=       0.000950   gamma_tr=       0.001624 meV   omega=    107.7865 meV
     lambda( tot )=       0.042686
     lambda_tr( tot )=      -0.027629
     -------------------------------------------------------------------


     Number of (k,k+q) pairs on the Fermi surface:      216 out of      216


     ismear =     1 iq =      30 coord.:   0.00000  0.66667  0.83333 wt:   0.00463
     -------------------------------------------------------------------
     lambda(   1 )=       0.004353   gamma=       0.000699 meV   omega=     33.0339 meV
     lambda_tr(   1 )=       0.004385   gamma_tr=       0.000704 meV   omega=     33.0339 meV
     lambda(   2 )=       0.003307   gamma=       0.000548 meV   omega=     33.5472 meV
     lambda_tr(   2 )=       0.013921   gamma_tr=       0.002306 meV   omega=     33.5472 meV
     lambda(   3 )=       0.030139   gamma=       0.013435 meV   omega=     55.0357 meV
     lambda_tr(   3 )=       0.032448   gamma_tr=       0.014464 meV   omega=     55.0357 meV
     lambda(   4 )=       0.023172   gamma=       0.029670 meV   omega=     93.2760 meV
     lambda_tr(   4 )=       0.020446   gamma_tr=       0.026180 meV   omega=     93.2760 meV
     lambda(   5 )=       0.025554   gamma=       0.033645 meV   omega=     94.5851 meV
     lambda_tr(   5 )=       0.038231   gamma_tr=       0.050337 meV   omega=     94.5851 meV
     lambda(   6 )=       0.030673   gamma=       0.050950 meV   omega=    106.2387 meV
     lambda_tr(   6 )=       0.009157   gamma_tr=       0.015210 meV   omega=    106.2387 meV
     lambda( tot )=       0.117198
     lambda_tr( tot )=       0.118586
     -------------------------------------------------------------------


     Number of (k,k+q) pairs on the Fermi surface:      216 out of      216


     ismear =     1 iq =      31 coord.:   0.00000  0.83333  0.00000 wt:   0.00463
     -------------------------------------------------------------------
     lambda(   1 )=      -0.015929   gamma=      -0.000396 meV   omega=     12.9998 meV
     lambda_tr(   1 )=       0.552308   gamma_tr=       0.013736 meV   omega=     12.9998 meV
     lambda(   2 )=      -0.015929   gamma=      -0.000396 meV   omega=     12.9998 meV
     lambda_tr(   2 )=       0.559543   gamma_tr=       0.013916 meV   omega=     12.9998 meV
     lambda(   3 )=      -0.122664   gamma=      -0.019173 meV   omega=     32.5896 meV
     lambda_tr(   3 )=       0.608641   gamma_tr=       0.095135 meV   omega=     32.5896 meV
     lambda(   4 )=       0.047824   gamma=       0.063427 meV   omega=     94.9296 meV
     lambda_tr(   4 )=       0.120041   gamma_tr=       0.159205 meV   omega=     94.9296 meV
     lambda(   5 )=       0.047824   gamma=       0.063427 meV   omega=     94.9296 meV
     lambda_tr(   5 )=       0.112530   gamma_tr=       0.149243 meV   omega=     94.9296 meV
     lambda(   6 )=       0.067263   gamma=       0.101000 meV   omega=    101.0096 meV
     lambda_tr(   6 )=       0.131253   gamma_tr=       0.197087 meV   omega=    101.0096 meV
     lambda( tot )=       0.008390
     lambda_tr( tot )=       2.084316
     -------------------------------------------------------------------


     Number of (k,k+q) pairs on the Fermi surface:      216 out of      216


     ismear =     1 iq =      32 coord.:   0.00000  0.83333  0.16667 wt:   0.00463
     -------------------------------------------------------------------
     lambda(   1 )=       0.053628   gamma=       0.004460 meV   omega=     23.7707 meV
     lambda_tr(   1 )=       0.108210   gamma_tr=       0.008999 meV   omega=     23.7707 meV
     lambda(   2 )=       0.000423   gamma=       0.000065 meV   omega=     32.3608 meV
     lambda_tr(   2 )=       0.010414   gamma_tr=       0.001605 meV   omega=     32.3608 meV
     lambda(   3 )=       0.000770   gamma=       0.000265 meV   omega=     48.3490 meV
     lambda_tr(   3 )=       0.067279   gamma_tr=       0.023146 meV   omega=     48.3490 meV
     lambda(   4 )=       0.031640   gamma=       0.041192 meV   omega=     94.0537 meV
     lambda_tr(   4 )=       0.052610   gamma_tr=       0.068493 meV   omega=     94.0537 meV
     lambda(   5 )=       0.029445   gamma=       0.039650 meV   omega=     95.6544 meV
     lambda_tr(   5 )=       0.045331   gamma_tr=       0.061041 meV   omega=     95.6544 meV
     lambda(   6 )=       0.026927   gamma=       0.043204 meV   omega=    104.4132 meV
     lambda_tr(   6 )=       0.029742   gamma_tr=       0.047720 meV   omega=    104.4132 meV
     lambda( tot )=       0.142834
     lambda_tr( tot )=       0.313586
     -------------------------------------------------------------------


     Number of (k,k+q) pairs on the Fermi surface:      216 out of      216


     ismear =     1 iq =      33 coord.:   0.00000  0.83333  0.33333 wt:   0.00463
     -------------------------------------------------------------------
     lambda(   1 )=       0.019503   gamma=       0.003292 meV   omega=     33.8649 meV
     lambda_tr(   1 )=       0.014115   gamma_tr=       0.002382 meV   omega=     33.8649 meV
     lambda(   2 )=       0.008250   gamma=       0.002266 meV   omega=     43.2002 meV
     lambda_tr(   2 )=       0.010908   gamma_tr=       0.002996 meV   omega=     43.2002 meV
     lambda(   3 )=       0.026130   gamma=       0.017289 meV   omega=     67.0515 meV
     lambda_tr(   3 )=       0.035849   gamma_tr=       0.023720 meV   omega=     67.0515 meV
     lambda(   4 )=       0.028450   gamma=       0.035593 meV   omega=     92.1999 meV
     lambda_tr(   4 )=       0.026832   gamma_tr=       0.033569 meV   omega=     92.1999 meV
     lambda(   5 )=       0.016769   gamma=       0.021506 meV   omega=     93.3506 meV
     lambda_tr(   5 )=       0.012792   gamma_tr=       0.016405 meV   omega=     93.3506 meV
     lambda(   6 )=       0.017446   gamma=       0.028308 meV   omega=    105.0008 meV
     lambda_tr(   6 )=       0.019571   gamma_tr=       0.031755 meV   omega=    105.0008 meV
     lambda( tot )=       0.116548
     lambda_tr( tot )=       0.120066
     -------------------------------------------------------------------


     Number of (k,k+q) pairs on the Fermi surface:      216 out of      216


     ismear =     1 iq =      34 coord.:   0.00000  0.83333  0.50000 wt:   0.00463
     -------------------------------------------------------------------
     lambda(   1 )=       0.002777   gamma=       0.000557 meV   omega=     36.9315 meV
     lambda_tr(   1 )=       0.000114   gamma_tr=       0.000023 meV   omega=     36.9315 meV
     lambda(   2 )=       0.007636   gamma=       0.002019 meV   omega=     42.3891 meV
     lambda_tr(   2 )=      -0.001093   gamma_tr=      -0.000289 meV   omega=     42.3891 meV
     lambda(   3 )=       0.025106   gamma=       0.018378 meV   omega=     70.5246 meV
     lambda_tr(   3 )=      -0.000303   gamma_tr=      -0.000222 meV   omega=     70.5246 meV
     lambda(   4 )=       0.014042   gamma=       0.017277 meV   omega=     91.4339 meV
     lambda_tr(   4 )=       0.006752   gamma_tr=       0.008308 meV   omega=     91.4339 meV
     lambda(   5 )=       0.018356   gamma=       0.023369 meV   omega=     93.0071 meV
     lambda_tr(   5 )=       0.008874   gamma_tr=       0.011297 meV   omega=     93.0071 meV
     lambda(   6 )=       0.007960   gamma=       0.012972 meV   omega=    105.2271 meV
     lambda_tr(   6 )=       0.006132   gamma_tr=       0.009992 meV   omega=    105.2271 meV
     lambda( tot )=       0.075878
     lambda_tr( tot )=       0.020475
     -------------------------------------------------------------------


     Number of (k,k+q) pairs on the Fermi surface:      216 out of      216


     ismear =     1 iq =      35 coord.:   0.00000  0.83333  0.66667 wt:   0.00463
     -------------------------------------------------------------------
     lambda(   1 )=      -0.001933   gamma=      -0.000299 meV   omega=     32.3970 meV
     lambda_tr(   1 )=       0.010572   gamma_tr=       0.001633 meV   omega=     32.3970 meV
     lambda(   2 )=       0.009663   gamma=       0.001511 meV   omega=     32.6006 meV
     lambda_tr(   2 )=       0.014207   gamma_tr=       0.002222 meV   omega=     32.6006 meV
     lambda(   3 )=       0.037201   gamma=       0.017191 meV   omega=     56.0344 meV
     lambda_tr(   3 )=       0.019313   gamma_tr=       0.008924 meV   omega=     56.0344 meV
     lambda(   4 )=       0.023991   gamma=       0.030819 meV   omega=     93.4283 meV
     lambda_tr(   4 )=       0.019262   gamma_tr=       0.024744 meV   omega=     93.4283 meV
     lambda(   5 )=       0.025495   gamma=       0.034196 meV   omega=     95.4660 meV
     lambda_tr(   5 )=       0.020650   gamma_tr=       0.027697 meV   omega=     95.4660 meV
     lambda(   6 )=       0.026535   gamma=       0.043286 meV   omega=    105.2813 meV
     lambda_tr(   6 )=       0.018442   gamma_tr=       0.030084 meV   omega=    105.2813 meV
     lambda( tot )=       0.120952
     lambda_tr( tot )=       0.102446
     -------------------------------------------------------------------


     Number of (k,k+q) pairs on the Fermi surface:      216 out of      216


     ismear =     1 iq =      36 coord.:   0.00000  0.83333  0.83333 wt:   0.00463
     -------------------------------------------------------------------
     lambda(   1 )=       0.018143   gamma=       0.001195 meV   omega=     21.1581 meV
     lambda_tr(   1 )=       0.062347   gamma_tr=       0.004108 meV   omega=     21.1581 meV
     lambda(   2 )=      -0.017439   gamma=      -0.001342 meV   omega=     22.8691 meV
     lambda_tr(   2 )=       0.084059   gamma_tr=       0.006470 meV   omega=     22.8691 meV
     lambda(   3 )=       0.018762   gamma=       0.003229 meV   omega=     34.1944 meV
     lambda_tr(   3 )=       0.264572   gamma_tr=       0.045528 meV   omega=     34.1944 meV
     lambda(   4 )=       0.044450   gamma=       0.058579 meV   omega=     94.6292 meV
     lambda_tr(   4 )=       0.120656   gamma_tr=       0.159009 meV   omega=     94.6292 meV
     lambda(   5 )=       0.046851   gamma=       0.062311 meV   omega=     95.0632 meV
     lambda_tr(   5 )=       0.126752   gamma_tr=       0.168579 meV   omega=     95.0632 meV
     lambda(   6 )=       0.082427   gamma=       0.125644 meV   omega=    101.7710 meV
     lambda_tr(   6 )=       0.146531   gamma_tr=       0.223357 meV   omega=    101.7710 meV
     lambda( tot )=       0.193193
     lambda_tr( tot )=       0.804917
     -------------------------------------------------------------------


     Number of (k,k+q) pairs on the Fermi surface:      216 out of      216


     ismear =     1 iq =      37 coord.:   0.16667  0.00000  0.00000 wt:   0.00463
     -------------------------------------------------------------------
     lambda(   1 )=      -0.048014   gamma=      -0.001844 meV   omega=     16.1523 meV
     lambda_tr(   1 )=       0.233470   gamma_tr=       0.008964 meV   omega=     16.1523 meV
     lambda(   2 )=      -0.030186   gamma=      -0.001371 meV   omega=     17.5651 meV
     lambda_tr(   2 )=       0.117117   gamma_tr=       0.005318 meV   omega=     17.5651 meV
     lambda(   3 )=       0.037737   gamma=       0.006061 meV   omega=     33.0343 meV
     lambda_tr(   3 )=       0.295005   gamma_tr=       0.047379 meV   omega=     33.0343 meV
     lambda(   4 )=       0.036004   gamma=       0.047011 meV   omega=     94.1917 meV
     lambda_tr(   4 )=       0.104744   gamma_tr=       0.136766 meV   omega=     94.1917 meV
     lambda(   5 )=       0.037789   gamma=       0.049577 meV   omega=     94.4169 meV
     lambda_tr(   5 )=       0.092304   gamma_tr=       0.121100 meV   omega=     94.4169 meV
     lambda(   6 )=       0.054485   gamma=       0.081620 meV   omega=    100.8906 meV
     lambda_tr(   6 )=       0.105081   gamma_tr=       0.157415 meV   omega=    100.8906 meV
     lambda( tot )=       0.087814
     lambda_tr( tot )=       0.947721
     -------------------------------------------------------------------


     Number of (k,k+q) pairs on the Fermi surface:      216 out of      216


     ismear =     1 iq =      38 coord.:   0.16667  0.00000  0.16667 wt:   0.00463
     -------------------------------------------------------------------
     lambda(   1 )=       0.018143   gamma=       0.001195 meV   omega=     21.1581 meV
     lambda_tr(   1 )=       0.060538   gamma_tr=       0.003988 meV   omega=     21.1581 meV
     lambda(   2 )=      -0.017439   gamma=      -0.001342 meV   omega=     22.8691 meV
     lambda_tr(   2 )=       0.085273   gamma_tr=       0.006563 meV   omega=     22.8691 meV
     lambda(   3 )=       0.018762   gamma=       0.003229 meV   omega=     34.1944 meV
     lambda_tr(   3 )=       0.294953   gamma_tr=       0.050756 meV   omega=     34.1944 meV
     lambda(   4 )=       0.044450   gamma=       0.058579 meV   omega=     94.6292 meV
     lambda_tr(   4 )=       0.124394   gamma_tr=       0.163936 meV   omega=     94.6292 meV
     lambda(   5 )=       0.046851   gamma=       0.062311 meV   omega=     95.0632 meV
     lambda_tr(   5 )=       0.122326   gamma_tr=       0.162692 meV   omega=     95.0632 meV
     lambda(   6 )=       0.082427   gamma=       0.125644 meV   omega=    101.7710 meV
     lambda_tr(   6 )=       0.156355   gamma_tr=       0.238332 meV   omega=    101.7710 meV
     lambda( tot )=       0.193193
     lambda_tr( tot )=       0.843839
     -------------------------------------------------------------------


     Number of (k,k+q) pairs on the Fermi surface:      216 out of      216


     ismear =     1 iq =      39 coord.:   0.16667  0.00000  0.33333 wt:   0.00463
     -------------------------------------------------------------------
     lambda(   1 )=       0.003349   gamma=       0.000530 meV   omega=     32.7964 meV
     lambda_tr(   1 )=       0.000541   gamma_tr=       0.000086 meV   omega=     32.7964 meV
     lambda(   2 )=       0.008367   gamma=       0.001450 meV   omega=     34.3108 meV
     lambda_tr(   2 )=       0.016099   gamma_tr=       0.002789 meV   omega=     34.3108 meV
     lambda(   3 )=       0.028473   gamma=       0.012634 meV   omega=     54.9088 meV
     lambda_tr(   3 )=       0.023377   gamma_tr=       0.010373 meV   omega=     54.9088 meV
     lambda(   4 )=       0.023111   gamma=       0.029594 meV   omega=     93.2786 meV
     lambda_tr(   4 )=       0.007147   gamma_tr=       0.009151 meV   omega=     93.2786 meV
     lambda(   5 )=       0.026061   gamma=       0.034257 meV   omega=     94.5085 meV
     lambda_tr(   5 )=       0.028304   gamma_tr=       0.037206 meV   omega=     94.5085 meV
     lambda(   6 )=       0.031479   gamma=       0.052251 meV   omega=    106.1999 meV
     lambda_tr(   6 )=       0.018065   gamma_tr=       0.029986 meV   omega=    106.1999 meV
     lambda( tot )=       0.120840
     lambda_tr( tot )=       0.093532
     -------------------------------------------------------------------


     Number of (k,k+q) pairs on the Fermi surface:      216 out of      216


     ismear =     1 iq =      40 coord.:   0.16667  0.00000  0.50000 wt:   0.00463
     -------------------------------------------------------------------
     lambda(   1 )=       0.001424   gamma=       0.000292 meV   omega=     37.3447 meV
     lambda_tr(   1 )=      -0.004901   gamma_tr=      -0.001006 meV   omega=     37.3447 meV
     lambda(   2 )=       0.011943   gamma=       0.003174 meV   omega=     42.4959 meV
     lambda_tr(   2 )=       0.018108   gamma_tr=       0.004813 meV   omega=     42.4959 meV
     lambda(   3 )=       0.023875   gamma=       0.017700 meV   omega=     70.9744 meV
     lambda_tr(   3 )=       0.024483   gamma_tr=       0.018151 meV   omega=     70.9744 meV
     lambda(   4 )=       0.013205   gamma=       0.016177 meV   omega=     91.2374 meV
     lambda_tr(   4 )=       0.000008   gamma_tr=       0.000009 meV   omega=     91.2374 meV
     lambda(   5 )=       0.017595   gamma=       0.022304 meV   omega=     92.8078 meV
     lambda_tr(   5 )=       0.023026   gamma_tr=       0.029189 meV   omega=     92.8078 meV
     lambda(   6 )=       0.009499   gamma=       0.015438 meV   omega=    105.0822 meV
     lambda_tr(   6 )=       0.010373   gamma_tr=       0.016857 meV   omega=    105.0822 meV
     lambda( tot )=       0.077541
     lambda_tr( tot )=       0.071097
     -------------------------------------------------------------------


     Number of (k,k+q) pairs on the Fermi surface:      216 out of      216


     ismear =     1 iq =      41 coord.:   0.16667  0.00000  0.66667 wt:   0.00463
     -------------------------------------------------------------------
     lambda(   1 )=       0.006748   gamma=       0.001170 meV   omega=     34.3300 meV
     lambda_tr(   1 )=       0.004645   gamma_tr=       0.000806 meV   omega=     34.3300 meV
     lambda(   2 )=       0.006674   gamma=       0.001804 meV   omega=     42.8554 meV
     lambda_tr(   2 )=       0.014234   gamma_tr=       0.003847 meV   omega=     42.8554 meV
     lambda(   3 )=       0.029685   gamma=       0.019079 meV   omega=     66.0846 meV
     lambda_tr(   3 )=       0.048950   gamma_tr=       0.031461 meV   omega=     66.0846 meV
     lambda(   4 )=       0.022339   gamma=       0.027833 meV   omega=     92.0110 meV
     lambda_tr(   4 )=       0.021313   gamma_tr=       0.026555 meV   omega=     92.0110 meV
     lambda(   5 )=       0.012992   gamma=       0.016779 meV   omega=     93.6776 meV
     lambda_tr(   5 )=       0.010087   gamma_tr=       0.013027 meV   omega=     93.6776 meV
     lambda(   6 )=       0.014067   gamma=       0.023033 meV   omega=    105.4774 meV
     lambda_tr(   6 )=       0.020971   gamma_tr=       0.034338 meV   omega=    105.4774 meV
     lambda( tot )=       0.092505
     lambda_tr( tot )=       0.120200
     -------------------------------------------------------------------


     Number of (k,k+q) pairs on the Fermi surface:      216 out of      216


[...]
      204        3     -3.4617     25.2688    246.3420      1.0373     -0.0360
      205        3     -1.9911    122.8666    360.0525      1.1162     -0.1041
      206        3     -4.4503     16.4292    187.9805      1.0185     -0.0182
      207        3     -5.2372     -1.6503    171.1614      1.0168     -0.0166
      208        3     -4.4503     15.8231    188.9670      1.0191     -0.0187
      209        3     -1.9911    123.0553    357.6860      1.1148     -0.1030
      210        3     -2.2746     97.2978    350.6997      1.1037     -0.0939
      211        3     -1.1893    203.6252    288.9790      1.0631     -0.0594
      212        3     -1.9911    123.0553    357.6860      1.1148     -0.1030
      213        3     -2.9817     42.2122    291.9783      1.0605     -0.0570
      214        3     -3.4617     26.2302    244.7479      1.0374     -0.0360
      215        3     -2.2746     96.5879    352.9157      1.1055     -0.0954
      216        3     -0.6014    229.5138    181.0069      1.0140     -0.0138
  
        1        4     -0.3992    234.5307    146.4711      0.9989      0.0011
        2        4     -0.6014    229.5138    181.0069      1.0140     -0.0138
        3        4     -1.2665    189.3172    293.2394      1.0692     -0.0647
        4        4     -1.7294    141.1292    332.2064      1.1039     -0.0941
        5        4     -1.2665    189.3180    293.2433      1.0692     -0.0647
        6        4     -0.6014    229.5161    181.0097      1.0140     -0.0138
        7        4     -0.6014    229.2716    183.9825      1.0157     -0.0154
        8        4     -1.1893    203.6254    288.9795      1.0631     -0.0594
        9        4     -1.7453    148.6763    348.1125      1.1093     -0.0985
       10        4     -2.2693     91.5129    333.2866      1.0981     -0.0893
       11        4     -1.4850    166.7518    318.6868      1.0891     -0.0818
       12        4     -0.6189    224.0071    185.5393      1.0175     -0.0172
       13        4     -1.2665    189.3790    294.9344      1.0694     -0.0649
       14        4     -1.7453    147.3230    350.5216      1.1102     -0.0993
       15        4     -3.0665     37.8574    275.6620      1.0562     -0.0532
       16        4     -3.4814     26.5783    225.1821      1.0333     -0.0323
       17        4     -2.6245     63.2601    314.8187      1.0738     -0.0687
       18        4     -1.4850    167.2743    322.6779      1.0906     -0.0831
       19        4     -1.7294    140.9788    331.1508      1.1038     -0.0940
       20        4     -2.2693     91.2671    336.7768      1.0998     -0.0907
       21        4     -3.4814     27.7358    225.0060      1.0320     -0.0310
       22        4     -4.1536     22.1189    174.4292      1.0098     -0.0097
       23        4     -3.4814     27.7346    225.0063      1.0320     -0.0310
       24        4     -2.2693     91.2665    336.7802      1.0998     -0.0907
       25        4     -1.2665    189.3795    294.9380      1.0694     -0.0649
       26        4     -1.4850    167.2746    322.6779      1.0906     -0.0831
       27        4     -2.6245     63.2607    314.8203      1.0738     -0.0687
       28        4     -3.4814     26.5776    225.1810      1.0333     -0.0323
       29        4     -3.0665     37.8579    275.6611      1.0562     -0.0532
       30        4     -1.7453    147.3228    350.5235      1.1102     -0.0993
       31        4     -0.6014    229.2738    183.9869      1.0157     -0.0154
       32        4     -0.6189    224.0072    185.5403      1.0175     -0.0172
       33        4     -1.4850    166.7527    318.6860      1.0891     -0.0818
       34        4     -2.2693     91.5131    333.2906      1.0981     -0.0893
       35        4     -1.7453    148.6765    348.1126      1.1093     -0.0985
       36        4     -1.1893    203.6252    288.9790      1.0631     -0.0594
       37        4     -0.6014    229.5138    181.0069      1.0140     -0.0138
       38        4     -1.1893    203.6252    288.9791      1.0631     -0.0594
       39        4     -1.7453    147.8046    350.5920      1.1101     -0.0992
       40        4     -2.2693     89.5240    336.5585      1.1000     -0.0909
       41        4     -1.4850    167.8136    320.5086      1.0896     -0.0823
       42        4     -0.6189    224.3166    182.0101      1.0154     -0.0152
       43        4     -1.1893    203.6254    288.9795      1.0631     -0.0594
       44        4     -0.6014    229.5161    181.0097      1.0140     -0.0138
       45        4     -0.6189    224.3166    182.0101      1.0154     -0.0152
       46        4     -1.4850    167.8134    320.5099      1.0896     -0.0823
       47        4     -2.2693     89.5224    336.5629      1.1000     -0.0909
       48        4     -1.7453    147.8039    350.5937      1.1101     -0.0992
       49        4     -1.7453    147.3230    350.5217      1.1102     -0.0993
       50        4     -0.6189    224.0071    185.5393      1.0175     -0.0172
       51        4     -1.7453    147.8039    350.5938      1.1101     -0.0992
       52        4     -2.3570     83.4198    335.1619      1.0948     -0.0866
       53        4     -3.1301     42.0100    255.8096      1.0491     -0.0468
       54        4     -2.3570     82.9322    337.0732      1.0955     -0.0871
       55        4     -2.2693     91.2671    336.7768      1.0998     -0.0907
       56        4     -1.4850    167.2743    322.6779      1.0906     -0.0831
       57        4     -2.3570     82.9322    337.0732      1.0955     -0.0871
       58        4     -3.4814     24.4927    222.4999      1.0318     -0.0309
       59        4     -4.2518     34.3608    176.0024      1.0135     -0.0134
       60        4     -3.1301     42.9074    257.5934      1.0487     -0.0464
       61        4     -1.4850    167.2746    322.6779      1.0906     -0.0831
       62        4     -2.2693     91.2666    336.7803      1.0998     -0.0907
       63        4     -3.1301     42.9074    257.5935      1.0487     -0.0464
       64        4     -4.2518     34.3611    176.0009      1.0135     -0.0134
       65        4     -3.4814     24.4936    222.5003      1.0318     -0.0309
       66        4     -2.3570     82.9334    337.0751      1.0955     -0.0871
       67        4     -0.6189    224.0072    185.5403      1.0175     -0.0172
       68        4     -1.7453    147.3228    350.5235      1.1102     -0.0993
       69        4     -2.3570     82.9334    337.0751      1.0955     -0.0871
       70        4     -3.1301     42.0109    255.8113      1.0491     -0.0468
       71        4     -2.3570     83.4203    335.1611      1.0948     -0.0866
       72        4     -1.7453    147.8046    350.5920      1.1101     -0.0992
       73        4     -1.2665    189.3172    293.2394      1.0692     -0.0647
       74        4     -1.7453    147.8046    350.5920      1.1101     -0.0992
       75        4     -3.0665     37.8579    275.6611      1.0562     -0.0532
       76        4     -3.4814     24.4936    222.5003      1.0318     -0.0309
       77        4     -2.6245     62.9245    315.2636      1.0743     -0.0692
       78        4     -1.4850    167.8134    320.5098      1.0896     -0.0823
       79        4     -1.7453    148.6763    348.1126      1.1093     -0.0985
       80        4     -0.6189    224.3166    182.0101      1.0154     -0.0152
       81        4     -1.7453    148.6765    348.1126      1.1093     -0.0985
       82        4     -2.3570     83.4203    335.1611      1.0948     -0.0866
       83        4     -3.1301     40.3001    255.3181      1.0495     -0.0472
       84        4     -2.3570     83.4198    335.1619      1.0948     -0.0866
       85        4     -3.0665     37.8574    275.6621      1.0562     -0.0532
       86        4     -1.7453    147.8040    350.5938      1.1101     -0.0992
       87        4     -1.2665    189.3180    293.2433      1.0692     -0.0647
       88        4     -1.4850    167.8136    320.5086      1.0896     -0.0823
       89        4     -2.6245     62.9245    315.2637      1.0743     -0.0692
       90        4     -3.4814     24.4927    222.4999      1.0318     -0.0309
       91        4     -3.4814     27.7358    225.0060      1.0320     -0.0310
       92        4     -2.3570     82.9322    337.0732      1.0955     -0.0871
       93        4     -1.4850    166.7518    318.6869      1.0891     -0.0818
       94        4     -2.2693     89.5223    336.5629      1.1000     -0.0909
       95        4     -3.1301     40.3001    255.3181      1.0495     -0.0472
       96        4     -4.2518     34.3610    176.0009      1.0135     -0.0134
       97        4     -2.6245     63.2607    314.8202      1.0738     -0.0687
       98        4     -3.1301     42.9074    257.5935      1.0487     -0.0464
       99        4     -2.6245     63.2602    314.8188      1.0738     -0.0687
      100        4     -3.1301     42.0100    255.8096      1.0491     -0.0468
      101        4     -2.6245     62.9245    315.2637      1.0743     -0.0692
      102        4     -3.1301     42.0109    255.8114      1.0491     -0.0468
      103        4     -1.4850    166.7527    318.6860      1.0891     -0.0818
      104        4     -2.3570     82.9334    337.0751      1.0955     -0.0871
      105        4     -3.4814     27.7346    225.0063      1.0320     -0.0310
      106        4     -4.2518     34.3608    176.0024      1.0135     -0.0134
      107        4     -3.1301     40.3001    255.3181      1.0495     -0.0472
      108        4     -2.2693     89.5240    336.5586      1.1000     -0.0909
      109        4     -1.7294    141.1292    332.2064      1.1039     -0.0941
      110        4     -2.2693     89.5240    336.5585      1.1000     -0.0909
      111        4     -3.4814     24.4936    222.5003      1.0318     -0.0309
      112        4     -4.1536     22.1189    174.4292      1.0098     -0.0097
      113        4     -3.4814     24.4927    222.4998      1.0318     -0.0309
      114        4     -2.2693     89.5223    336.5628      1.1000     -0.0909
      115        4     -2.2693     91.5129    333.2866      1.0981     -0.0893
      116        4     -1.4850    167.8134    320.5098      1.0896     -0.0823
      117        4     -2.3570     83.4203    335.1611      1.0948     -0.0866
      118        4     -3.4814     26.5776    225.1810      1.0333     -0.0323
      119        4     -4.2518     34.3611    176.0009      1.0135     -0.0134
      120        4     -3.1301     42.0100    255.8095      1.0491     -0.0468
      121        4     -3.4814     26.5783    225.1821      1.0333     -0.0323
      122        4     -2.3570     83.4198    335.1619      1.0948     -0.0866
      123        4     -1.4850    167.8136    320.5086      1.0896     -0.0823
      124        4     -2.2693     91.5131    333.2906      1.0981     -0.0893
      125        4     -3.1301     42.0109    255.8114      1.0491     -0.0468
      126        4     -4.2518     34.3608    176.0024      1.0135     -0.0134
      127        4     -4.1536     22.1189    174.4292      1.0098     -0.0097
      128        4     -3.4814     24.4927    222.4999      1.0318     -0.0309
      129        4     -2.2693     89.5223    336.5629      1.1000     -0.0909
      130        4     -1.7294    141.1292    332.2064      1.1039     -0.0941
      131        4     -2.2693     89.5240    336.5586      1.1000     -0.0909
      132        4     -3.4814     24.4936    222.5003      1.0318     -0.0309
      133        4     -3.4814     26.5776    225.1810      1.0333     -0.0323
      134        4     -4.2518     34.3610    176.0009      1.0135     -0.0134
      135        4     -3.1301     42.0100    255.8096      1.0491     -0.0468
      136        4     -2.2693     91.5129    333.2866      1.0981     -0.0893
      137        4     -1.4850    167.8134    320.5099      1.0896     -0.0823
      138        4     -2.3570     83.4203    335.1611      1.0948     -0.0866
      139        4     -2.2693     91.5131    333.2906      1.0981     -0.0893
      140        4     -3.1301     42.0109    255.8114      1.0491     -0.0468
      141        4     -4.2518     34.3608    176.0024      1.0135     -0.0134
      142        4     -3.4814     26.5783    225.1821      1.0333     -0.0323
      143        4     -2.3570     83.4198    335.1619      1.0948     -0.0866
      144        4     -1.4850    167.8136    320.5086      1.0896     -0.0823
      145        4     -1.2665    189.3180    293.2433      1.0692     -0.0647
      146        4     -1.4850    167.8136    320.5086      1.0896     -0.0823
      147        4     -2.6245     62.9245    315.2636      1.0743     -0.0692
      148        4     -3.4814     24.4927    222.4998      1.0318     -0.0309
      149        4     -3.0665     37.8574    275.6620      1.0562     -0.0532
      150        4     -1.7453    147.8039    350.5937      1.1101     -0.0992
      151        4     -1.4850    166.7518    318.6869      1.0891     -0.0818
      152        4     -2.2693     89.5223    336.5628      1.1000     -0.0909
      153        4     -3.1301     40.3001    255.3181      1.0495     -0.0472
      154        4     -4.2518     34.3611    176.0009      1.0135     -0.0134
      155        4     -3.4814     27.7358    225.0060      1.0320     -0.0310
      156        4     -2.3570     82.9322    337.0732      1.0955     -0.0871
      157        4     -2.6245     63.2601    314.8187      1.0738     -0.0687
      158        4     -3.1301     42.0100    255.8096      1.0491     -0.0468
      159        4     -2.6245     62.9245    315.2636      1.0743     -0.0692
      160        4     -3.1301     42.0109    255.8114      1.0491     -0.0468
      161        4     -2.6245     63.2607    314.8202      1.0738     -0.0687
      162        4     -3.1301     42.9074    257.5934      1.0487     -0.0464
      163        4     -3.4814     27.7346    225.0063      1.0320     -0.0310
      164        4     -4.2518     34.3608    176.0024      1.0135     -0.0134
      165        4     -3.1301     40.3001    255.3181      1.0495     -0.0472
      166        4     -2.2693     89.5240    336.5586      1.1000     -0.0909
      167        4     -1.4850    166.7527    318.6860      1.0891     -0.0818
      168        4     -2.3570     82.9334    337.0751      1.0955     -0.0871
      169        4     -3.0665     37.8579    275.6611      1.0562     -0.0532
      170        4     -3.4814     24.4936    222.5003      1.0318     -0.0309
      171        4     -2.6245     62.9245    315.2637      1.0743     -0.0692
      172        4     -1.4850    167.8134    320.5098      1.0896     -0.0823
      173        4     -1.2665    189.3172    293.2394      1.0692     -0.0647
      174        4     -1.7453    147.8046    350.5920      1.1101     -0.0992
      175        4     -1.7453    148.6765    348.1126      1.1093     -0.0985
      176        4     -2.3570     83.4203    335.1611      1.0948     -0.0866
      177        4     -3.1301     40.3001    255.3181      1.0495     -0.0472
      178        4     -2.3570     83.4198    335.1619      1.0948     -0.0866
      179        4     -1.7453    148.6763    348.1126      1.1093     -0.0985
      180        4     -0.6189    224.3166    182.0101      1.0154     -0.0152
      181        4     -0.6014    229.5161    181.0097      1.0140     -0.0138
      182        4     -0.6189    224.3165    182.0101      1.0154     -0.0152
      183        4     -1.4850    167.8134    320.5098      1.0896     -0.0823
      184        4     -2.2693     89.5223    336.5628      1.1000     -0.0909
      185        4     -1.7453    147.8039    350.5937      1.1101     -0.0992
      186        4     -1.1893    203.6254    288.9795      1.0631     -0.0594
      187        4     -0.6189    224.0071    185.5393      1.0175     -0.0172
      188        4     -1.7453    147.8039    350.5937      1.1101     -0.0992
      189        4     -2.3570     83.4198    335.1618      1.0948     -0.0866
      190        4     -3.1301     42.0100    255.8095      1.0491     -0.0468
      191        4     -2.3570     82.9322    337.0732      1.0955     -0.0871
      192        4     -1.7453    147.3230    350.5216      1.1102     -0.0993
      193        4     -1.4850    167.2743    322.6779      1.0906     -0.0831
      194        4     -2.3570     82.9322    337.0732      1.0955     -0.0871
      195        4     -3.4814     24.4927    222.4999      1.0318     -0.0309
      196        4     -4.2518     34.3608    176.0024      1.0135     -0.0134
      197        4     -3.1301     42.9074    257.5934      1.0487     -0.0464
      198        4     -2.2693     91.2671    336.7768      1.0998     -0.0907
      199        4     -2.2693     91.2665    336.7802      1.0998     -0.0907
      200        4     -3.1301     42.9074    257.5935      1.0487     -0.0464
      201        4     -4.2518     34.3610    176.0009      1.0135     -0.0134
      202        4     -3.4814     24.4936    222.5003      1.0318     -0.0309
      203        4     -2.3570     82.9334    337.0751      1.0955     -0.0871
      204        4     -1.4850    167.2746    322.6779      1.0906     -0.0831
      205        4     -1.7453    147.3228    350.5235      1.1102     -0.0993
      206        4     -2.3570     82.9334    337.0751      1.0955     -0.0871
      207        4     -3.1301     42.0109    255.8114      1.0491     -0.0468
      208        4     -2.3570     83.4203    335.1611      1.0948     -0.0866
      209        4     -1.7453    147.8046    350.5920      1.1101     -0.0992
      210        4     -0.6189    224.0072    185.5403      1.0175     -0.0172
      211        4     -1.1893    203.6252    288.9790      1.0631     -0.0594
      212        4     -1.7453    147.8046    350.5920      1.1101     -0.0992
      213        4     -2.2693     89.5240    336.5586      1.1000     -0.0909
      214        4     -1.4850    167.8136    320.5086      1.0896     -0.0823
      215        4     -0.6189    224.3166    182.0101      1.0154     -0.0152
      216        4     -0.6014    229.5138    181.0069      1.0140     -0.0138
  

     ===================================================================
     Eliashberg Spectral Function in the Migdal Approximation
     ===================================================================

     lambda :    0.0786445
     lambda_tr :    0.1292684
 
     Estimated Allen-Dynes Tc
 
     logavg =    0.0058075 l_a2F =    0.0837777
     a2F          :      0.11s CPU      0.12s WALL (       1 calls)

     Unfolding on the coarse grid
     elphon_wrap  :     59.52s CPU     63.33s WALL (       1 calls)

     INITIALIZATION: 

     init_vloc    :      0.09s CPU      0.09s WALL (      29 calls)
     init_us_1    :      1.39s CPU      1.39s WALL (      29 calls)


     Electron-Phonon interpolation
     ephwann      :      5.29s CPU      5.50s WALL (       1 calls)
     ep-interp    :      4.98s CPU      5.06s WALL (     216 calls)
     PH SELF-ENER :      0.47s CPU      0.47s WALL (     216 calls)

     Ham: step 1  :      0.00s CPU      0.00s WALL (       1 calls)
     Ham: step 2  :      0.00s CPU      0.00s WALL (       1 calls)
     ep: step 1   :      0.00s CPU      0.00s WALL (     162 calls)
     ep: step 2   :      0.07s CPU      0.16s WALL (     162 calls)
     DynW2B       :      0.01s CPU      0.01s WALL (     216 calls)
     HamW2B       :      1.47s CPU      1.57s WALL (   93744 calls)
     ephW2Bp      :      0.09s CPU      0.09s WALL (     216 calls)


     Total program execution
     EPW          :  1m13.75s CPU     1m17.96s WALL

                                                                                          
 Please consider citing:                                                                  
 S. Ponce, E. R. Margine, C. Verdi and F. Giustino, Comput. Phys. Commun. 209, 116 (2016) 
                                                                                          
