                                                                                      
                                       ``:oss/                                        
                           `.+s+.     .+ys--yh+     `./ss+.                           
                          -sh//yy+`   +yy   +yy    -+h+-oyy                           
                          -yh- .oyy/.-sh.   .syo-.:sy-  /yh                           
                 `.-.`    `yh+   -oyyyo.     `/syys:    oys      `.`                  
               `/+ssys+-` `sh+      `                   oys`   .:osyo`                
               -yh- ./syyooyo`                          .sys+/oyo--yh/                
               `yy+    .-:-.                             `-/+/:`  -sh-                
                /yh.                                              oys                 
          ``..---hho---------`   .---------..`      `.-----.`    -hd+---.             
       `./osmNMMMMMMMMMMMMMMMs. +NNMMMMMMMMNNmh+.   yNMMMMMNm-  oNMMMMMNmo++:`        
       +sy--/sdMMMhyyyyyyyNMMh- .oyNMMmyyyyyhNMMm+` -yMMMdyyo:` .oyyNMMNhs+syy`       
       -yy/   /MMM+.`-+/``mMMy-   `mMMh:`````.dMMN:` `MMMy-`-dhhy```mMMy:``+hs        
        -yy+` /MMMo:-mMM+`-oo/.    mMMh:     `dMMN/`  dMMm:`dMMMMy..MMMo-.+yo`        
         .sys`/MMMMNNMMMs-         mMMmyooooymMMNo:   oMMM/sMMMMMM++MMN//oh:          
          `sh+/MMMhyyMMMs- `-`     mMMMMMMMMMNmy+-`   -MMMhMMMsmMMmdMMd/yy+           
    `-/+++oyy-/MMM+.`/hh/.`mNm:`   mMMd+/////:-.`      NMMMMMd/:NMMMMMy:/yyo/:.`      
   +os+//:-..-oMMMo:--:::-/MMMo. .-mMMd+---`           hMMMMN+. oMMMMMo. `-+osyso:`   
   syo     `mNMMMMMNNNNNNNNMMMo.oNNMMMMMNNNN:`         +MMMMs:`  dMMMN/`     ``:syo   
   /yh`     :syyyyyyyyyyyyyyyy+.`+syyyyyyyyo:`         .oyys:`   .oyys:`        +yh   
   -yh-        ````````````````    `````````              ``        ``          oys   
   -+h/------------------------::::::::://////++++++++++++++++++++++///////::::/yd:   
   shdddddddddddddddddddddddddddddhhhhhhhhyyyyyssssssssssssssssyyyyyyyhhhhhhhddddh`   
                                                                                      
  S. Ponce, E. R. Margine, C. Verdi, and F. Giustino,                                 
                                                Comput. Phys. Commun. 209, 116 (2016) 
                                                                                      

     Program EPW v.5.2.0 starts on 22Apr2020 at 17:59:26 

     This program is part of the open-source Quantum ESPRESSO suite
     for quantum simulation of materials; please cite
         "P. Giannozzi et al., J. Phys.:Condens. Matter 21 395502 (2009);
         "P. Giannozzi et al., J. Phys.:Condens. Matter 29 465901 (2017);
          URL http://www.quantum-espresso.org", 
     in publications or presentations arising from this work. More details at
     http://www.quantum-espresso.org/quote

     Parallel version (MPI), running on     4 processors

     MPI processes distributed on     1 nodes
     K-points division:     npool     =       4
     Fft bands division:     nmany     =       1

     Reading xml data from directory:

     ./sic.save/

     IMPORTANT: XC functional enforced from input :
     Exchange-correlation= PZ
                           (   1   1   0   0   0   0   0)
     Any further DFT definition will be discarded
     Please, verify this is what you really want

               file C.UPF: wavefunction(s)  3d renormalized
 
     G-vector sticks info
     --------------------
     sticks:   dense  smooth     PW     G-vecs:    dense   smooth      PW
     Sum         187     187     73                 1687     1687     387
 
     Reading collected, re-writing distributed wavefunctions

     --                                                                         

     bravais-lattice index     =            2
     lattice parameter (a_0)   =       8.2370  a.u.
     unit-cell volume          =     139.7163 (a.u.)^3
     number of atoms/cell      =            2
     number of atomic types    =            2
     kinetic-energy cut-off    =      20.0000  Ry
     charge density cut-off    =      80.0000  Ry
     Exchange-correlation= PZ
                           (   1   1   0   0   0   0   0)


     celldm(1)=    8.23700  celldm(2)=    0.00000  celldm(3)=    0.00000
     celldm(4)=    0.00000  celldm(5)=    0.00000  celldm(6)=    0.00000

     crystal axes: (cart. coord. in units of a_0)
               a(1) = ( -0.5000  0.0000  0.5000 )  
               a(2) = (  0.0000  0.5000  0.5000 )  
               a(3) = ( -0.5000  0.5000  0.0000 )  

     reciprocal axes: (cart. coord. in units 2 pi/a_0)
               b(1) = ( -1.0000 -1.0000  1.0000 )  
               b(2) = (  1.0000  1.0000  1.0000 )  
               b(3) = ( -1.0000  1.0000 -1.0000 )  


     Atoms inside the unit cell: 

   Cartesian axes

     site n.  atom      mass           positions (a_0 units)
        1        Si  28.0855   tau( 1) = (    0.00000    0.00000    0.00000  )
        2        C   12.0108   tau( 2) = (    0.25000    0.25000    0.25000  )
 
     25 Sym.Ops. (with q -> -q+G )


     G cutoff =  137.4891  (   1687 G-vectors)     FFT grid: ( 18, 18, 18)
     number of k points=   27
                       cart. coord. in units 2pi/a_0
        k(    1) = (   0.0000000   0.0000000   0.0000000), wk =   0.0740741
        k(    2) = (  -0.3333333   0.3333333  -0.3333333), wk =   0.0740741
        k(    3) = (  -0.6666667   0.6666667  -0.6666667), wk =   0.0740741
        k(    4) = (   0.3333333   0.3333333   0.3333333), wk =   0.0740741
        k(    5) = (   0.0000000   0.6666667   0.0000000), wk =   0.0740741
        k(    6) = (  -0.3333333   1.0000000  -0.3333333), wk =   0.0740741
        k(    7) = (   0.6666667   0.6666667   0.6666667), wk =   0.0740741
        k(    8) = (   0.3333333   1.0000000   0.3333333), wk =   0.0740741
        k(    9) = (   0.0000000   1.3333333   0.0000000), wk =   0.0740741
        k(   10) = (  -0.3333333  -0.3333333   0.3333333), wk =   0.0740741
        k(   11) = (  -0.6666667   0.0000000   0.0000000), wk =   0.0740741
        k(   12) = (  -1.0000000   0.3333333  -0.3333333), wk =   0.0740741
        k(   13) = (   0.0000000   0.0000000   0.6666667), wk =   0.0740741
        k(   14) = (  -0.3333333   0.3333333   0.3333333), wk =   0.0740741
        k(   15) = (  -0.6666667   0.6666667  -0.0000000), wk =   0.0740741
        k(   16) = (   0.3333333   0.3333333   1.0000000), wk =   0.0740741
        k(   17) = (   0.0000000   0.6666667   0.6666667), wk =   0.0740741
        k(   18) = (  -0.3333333   1.0000000   0.3333333), wk =   0.0740741
        k(   19) = (  -0.6666667  -0.6666667   0.6666667), wk =   0.0740741
        k(   20) = (  -1.0000000  -0.3333333   0.3333333), wk =   0.0740741
        k(   21) = (  -1.3333333   0.0000000   0.0000000), wk =   0.0740741
        k(   22) = (  -0.3333333  -0.3333333   1.0000000), wk =   0.0740741
        k(   23) = (  -0.6666667  -0.0000000   0.6666667), wk =   0.0740741
        k(   24) = (  -1.0000000   0.3333333   0.3333333), wk =   0.0740741
        k(   25) = (   0.0000000   0.0000000   1.3333333), wk =   0.0740741
        k(   26) = (  -0.3333333   0.3333333   1.0000000), wk =   0.0740741
        k(   27) = (  -0.6666667   0.6666667   0.6666667), wk =   0.0740741

     PseudoPot. # 1 for Si read from file:
     ../../pseudo/Si.pz-vbc.UPF
     MD5 check sum: 9f25e6ff280f3123e9b3a84715b2e9c9
     Pseudo is Norm-conserving, Zval =  4.0
     Generated by new atomic code, or converted to UPF format
     Using radial grid of  431 points,  2 beta functions with: 
                l(1) =   0
                l(2) =   1

     PseudoPot. # 2 for C  read from file:
     ../../pseudo/C.UPF
     MD5 check sum: 4781e8ce5ee01a432381f51d0ea25c53
     Pseudo is Norm-conserving, Zval =  4.0
     Generated by new atomic code, or converted to UPF format
     Using radial grid of  461 points,  2 beta functions with: 
                l(1) =   0
                l(2) =   1
     EPW          :      0.10s CPU      0.11s WALL

     EPW          :      0.10s CPU      0.11s WALL

     -------------------------------------------------------------------
     Wannierization on  3 x  3 x  3 electronic grid
     -------------------------------------------------------------------
 
     Spin CASE ( default = unpolarized )
 
     Initializing Wannier90
 
 
     Initial Wannier projections
 
     (   0.00000   0.00000   0.00000) :  l =  -3 mr =   1
     (   0.00000   0.00000   0.00000) :  l =  -3 mr =   2
     (   0.00000   0.00000   0.00000) :  l =  -3 mr =   3
     (   0.00000   0.00000   0.00000) :  l =  -3 mr =   4

      - Number of bands is (  8)
      - Number of total bands is (  8)
      - Number of excluded bands is (  0)
      - Number of wannier functions is (  4)
      - All guiding functions are given 
 
  Reading data about k-point neighbours 
 
      - All neighbours are found 
 
     AMN
      k points =    27 in    4 pools
            1 of    7 on ionode
            2 of    7 on ionode
            3 of    7 on ionode
            4 of    7 on ionode
            5 of    7 on ionode
            6 of    7 on ionode
            7 of    7 on ionode
 
     AMN calculated
 
     MMN
      k points =    27 in    4 pools
            1 of    7 on ionode
            2 of    7 on ionode
            3 of    7 on ionode
            4 of    7 on ionode
            5 of    7 on ionode
            6 of    7 on ionode
            7 of    7 on ionode
     MMN calculated
 
     Running Wannier90
 
     Wannier Function centers (cartesian, alat) and spreads (ang):
 
     (   0.16068   0.16068   0.16068) :   0.89056
     (   0.16068  -0.16068  -0.16068) :   0.89056
     (  -0.16068   0.16068  -0.16068) :   0.89056
     (  -0.16068  -0.16068   0.16068) :   0.89056
 
     -------------------------------------------------------------------
     WANNIER      :      0.42s CPU      0.53s WALL (       1 calls)
     -------------------------------------------------------------------

     Dipole matrix elements calculated
 

     Calculating kgmap

     Progress kgmap: ########################################
     kmaps        :      0.00s CPU      0.03s WALL (       1 calls)
     Symmetries of Bravais lattice:  48
     Symmetries of crystal:          24


     ===================================================================
     irreducible q point #    1
     ===================================================================

     Symmetries of small group of q: 24
          in addition sym. q -> -q+G:
 
     Number of q in the star =    1
     List of q in the star:
          1   0.000000000   0.000000000   0.000000000
     Imposing acoustic sum rule on the dynamical matrix
     Read dielectric tensor and effective charges
 
        q(    1 ) = (   0.0000000   0.0000000   0.0000000 )


     ===================================================================
     irreducible q point #    2
     ===================================================================

     Symmetries of small group of q:  6
 
     Number of q in the star =    4
     List of q in the star:
          1  -0.333333333   0.333333333  -0.333333333
          2   0.333333333   0.333333333   0.333333333
          3   0.333333333  -0.333333333  -0.333333333
          4  -0.333333333  -0.333333333   0.333333333
     In addition there is the -q list: 
          1   0.333333333  -0.333333333   0.333333333
          2  -0.333333333  -0.333333333  -0.333333333
          3  -0.333333333   0.333333333   0.333333333
          4   0.333333333   0.333333333  -0.333333333
 
        q(    2 ) = (  -0.3333333   0.3333333  -0.3333333 )
 
        q(    3 ) = (   0.3333333  -0.3333333   0.3333333 )
        q(    4 ) = (   0.3333333   0.3333333   0.3333333 )
        q(    5 ) = (  -0.3333333  -0.3333333  -0.3333333 )
        q(    6 ) = (   0.3333333  -0.3333333  -0.3333333 )
        q(    7 ) = (  -0.3333333   0.3333333   0.3333333 )
        q(    8 ) = (  -0.3333333  -0.3333333   0.3333333 )
        q(    9 ) = (   0.3333333   0.3333333  -0.3333333 )


     ===================================================================
     irreducible q point #    3
     ===================================================================

     Symmetries of small group of q:  4
 
     Number of q in the star =    6
     List of q in the star:
          1   0.000000000   0.666666667   0.000000000
          2   0.000000000   0.000000000  -0.666666667
          3  -0.666666667   0.000000000   0.000000000
          4   0.666666667   0.000000000   0.000000000
          5   0.000000000  -0.666666667   0.000000000
          6   0.000000000   0.000000000   0.666666667
 
        q(   10 ) = (   0.0000000   0.6666667   0.0000000 )
        q(   11 ) = (   0.0000000   0.0000000  -0.6666667 )
        q(   12 ) = (  -0.6666667   0.0000000   0.0000000 )
        q(   13 ) = (   0.6666667   0.0000000   0.0000000 )
        q(   14 ) = (   0.0000000  -0.6666667   0.0000000 )
        q(   15 ) = (   0.0000000   0.0000000   0.6666667 )


     ===================================================================
     irreducible q point #    4
     ===================================================================

     Symmetries of small group of q:  2
 
     Number of q in the star =   12
     List of q in the star:
          1   0.666666667   0.000000000   0.666666667
          2  -0.666666667   0.000000000  -0.666666667
          3   0.666666667  -0.666666667   0.000000000
          4   0.000000000  -0.666666667   0.666666667
          5   0.000000000  -0.666666667  -0.666666667
          6  -0.666666667   0.000000000   0.666666667
          7   0.666666667   0.666666667   0.000000000
          8  -0.666666667  -0.666666667   0.000000000
          9  -0.666666667   0.666666667   0.000000000
         10   0.666666667   0.000000000  -0.666666667
         11   0.000000000   0.666666667   0.666666667
         12   0.000000000   0.666666667  -0.666666667
 
        q(   16 ) = (   0.6666667   0.0000000   0.6666667 )
        q(   17 ) = (  -0.6666667   0.0000000  -0.6666667 )
        q(   18 ) = (   0.6666667  -0.6666667   0.0000000 )
        q(   19 ) = (   0.0000000  -0.6666667   0.6666667 )
        q(   20 ) = (   0.0000000  -0.6666667  -0.6666667 )
        q(   21 ) = (  -0.6666667   0.0000000   0.6666667 )
        q(   22 ) = (   0.6666667   0.6666667   0.0000000 )
        q(   23 ) = (  -0.6666667  -0.6666667   0.0000000 )
        q(   24 ) = (  -0.6666667   0.6666667   0.0000000 )
        q(   25 ) = (   0.6666667   0.0000000  -0.6666667 )
        q(   26 ) = (   0.0000000   0.6666667   0.6666667 )
        q(   27 ) = (   0.0000000   0.6666667  -0.6666667 )

     Writing epmatq on .epb files


     The .epb files have been correctly written


     Band disentanglement is used: nbndsub =    4

     Computes the analytic long-range interaction for polar materials [lpolar]
      
     Use zone-centred Wigner-Seitz cells 
     Number of WS vectors for electrons       43
     Number of WS vectors for phonons       43
     Number of WS vectors for electron-phonon       43
     Maximum number of cores for efficient parallelization      258
     Results may improve by using use_ws == .TRUE. 

     Writing Hamiltonian, Dynamical matrix and EP vertex in Wann rep to file

     ===================================================================
     Memory usage:  VmHWM =       179Mb
                   VmPeak =      2723Mb
     ===================================================================
     
     Using uniform q-mesh:    6   6   6
     Size of q point mesh for interpolation:        216
     Using uniform k-mesh:    6   6   6
     Size of k point mesh for interpolation:        432
     Max number of k points per pool:              108

     Fermi energy coarse grid =  10.054850 eV

     Fermi energy is calculated from the fine k-mesh: Ef =  10.139036 eV

     ===================================================================

              ibndmin =     2  ebndmin =     0.602
              ibndmax =     4  ebndmax =     0.739


     Number of ep-matrix elements per pool :         2916 ~=   22.78 Kb (@ 8 bytes/ DP)
     Number selected, total            100            100
     Number selected, total            200            200
     We only need to compute      216 q-points
      

     ===================================================================
     Electron (Imaginary) Self-Energy in the Migdal Approximation
     ===================================================================


     Fermi Surface thickness =   2.000000 eV

     Golden Rule strictly enforced with T =   0.025852 eV
     Gaussian Broadening:   0.100000 eV, ngauss=   1
 
     Progression iq (fine) =        100/       216
     Progression iq (fine) =        200/       216
     Average over degenerate eigenstates is performed
     WARNING: only the eigenstates within the Fermi window are meaningful

     ik =       1 coord.:    0.0000000   0.0000000   0.0000000
     -------------------------------------------------------------------
     E(   2 )=  -0.0842 eV   Re[Sigma]=      66.268191 meV Im[Sigma]=       4.277624 meV     Z=       0.923227 lam=       0.083158
     E(   3 )=  -0.0842 eV   Re[Sigma]=      66.268191 meV Im[Sigma]=       4.277624 meV     Z=       0.923227 lam=       0.083158
     E(   4 )=  -0.0842 eV   Re[Sigma]=      66.268191 meV Im[Sigma]=       4.277624 meV     Z=       0.923227 lam=       0.083158
     -------------------------------------------------------------------


     ik =       2 coord.:    0.0000000   0.0000000   0.1666667
     -------------------------------------------------------------------
     E(   2 )=  -2.1472 eV   Re[Sigma]=     -61.220154 meV Im[Sigma]=      60.263404 meV     Z=       0.876314 lam=       0.141144
     E(   3 )=  -0.3746 eV   Re[Sigma]=      82.349409 meV Im[Sigma]=      52.081409 meV     Z=       0.971265 lam=       0.029585
     E(   4 )=  -0.3746 eV   Re[Sigma]=      82.349409 meV Im[Sigma]=      52.081409 meV     Z=       0.971265 lam=       0.029585
     -------------------------------------------------------------------


     ik =       3 coord.:    0.0000000   0.0000000   0.3333333
     -------------------------------------------------------------------
     E(   2 )=  -6.8685 eV   Re[Sigma]=       0.240517 meV Im[Sigma]=      10.691741 meV     Z=       0.997048 lam=       0.002961
     E(   3 )=  -1.1730 eV   Re[Sigma]=      43.930279 meV Im[Sigma]=      85.863739 meV     Z=       1.085376 lam=      -0.078661
     E(   4 )=  -1.1730 eV   Re[Sigma]=      43.930279 meV Im[Sigma]=      85.863739 meV     Z=       1.085376 lam=      -0.078661
     -------------------------------------------------------------------


     ik =       4 coord.:    0.0000000   0.0000000   0.5000000
     -------------------------------------------------------------------
     E(   2 )=  -9.4227 eV   Re[Sigma]=      -6.806023 meV Im[Sigma]=       6.716643 meV     Z=       1.006640 lam=      -0.006596
     E(   3 )=  -1.6810 eV   Re[Sigma]=      23.064779 meV Im[Sigma]=      79.526794 meV     Z=       0.880307 lam=       0.135968
     E(   4 )=  -1.6810 eV   Re[Sigma]=      23.064779 meV Im[Sigma]=      79.526794 meV     Z=       0.880307 lam=       0.135968
     -------------------------------------------------------------------


     ik =       5 coord.:    0.0000000   0.0000000   0.6666667
     -------------------------------------------------------------------
     E(   2 )=  -6.8685 eV   Re[Sigma]=       0.240502 meV Im[Sigma]=      10.691790 meV     Z=       0.997049 lam=       0.002960
     E(   3 )=  -1.1730 eV   Re[Sigma]=      43.930361 meV Im[Sigma]=      85.864736 meV     Z=       1.085376 lam=      -0.078660
     E(   4 )=  -1.1730 eV   Re[Sigma]=      43.930361 meV Im[Sigma]=      85.864736 meV     Z=       1.085376 lam=      -0.078660
     -------------------------------------------------------------------


     ik =       6 coord.:    0.0000000   0.0000000   0.8333333
     -------------------------------------------------------------------
     E(   2 )=  -2.1472 eV   Re[Sigma]=     -61.220689 meV Im[Sigma]=      60.262188 meV     Z=       0.876311 lam=       0.141148
     E(   3 )=  -0.3746 eV   Re[Sigma]=      82.350433 meV Im[Sigma]=      52.083275 meV     Z=       0.971270 lam=       0.029580
     E(   4 )=  -0.3746 eV   Re[Sigma]=      82.350433 meV Im[Sigma]=      52.083275 meV     Z=       0.971270 lam=       0.029580
     -------------------------------------------------------------------


     ik =       7 coord.:    0.0000000   0.1666667   0.0000000
     -------------------------------------------------------------------
     E(   2 )=  -2.1472 eV   Re[Sigma]=     -63.080594 meV Im[Sigma]=      61.256867 meV     Z=       0.877452 lam=       0.139663
     E(   3 )=  -0.3746 eV   Re[Sigma]=      80.960549 meV Im[Sigma]=      53.873375 meV     Z=       0.980711 lam=       0.019669
     E(   4 )=  -0.3746 eV   Re[Sigma]=      80.960549 meV Im[Sigma]=      53.873375 meV     Z=       0.980711 lam=       0.019669
     -------------------------------------------------------------------


     ik =       8 coord.:    0.0000000   0.1666667   0.1666667
     -------------------------------------------------------------------
     E(   2 )=  -1.7072 eV   Re[Sigma]=      33.028294 meV Im[Sigma]=     114.438721 meV     Z=       0.972266 lam=       0.028525
     E(   3 )=  -1.0239 eV   Re[Sigma]=      65.264481 meV Im[Sigma]=      30.075340 meV     Z=       0.892455 lam=       0.120504
     E(   4 )=  -1.0239 eV   Re[Sigma]=      65.264481 meV Im[Sigma]=      30.075340 meV     Z=       0.892455 lam=       0.120504
     -------------------------------------------------------------------


     ik =       9 coord.:    0.0000000   0.1666667   0.3333333
     -------------------------------------------------------------------
     E(   2 )=  -5.3050 eV   Re[Sigma]=      11.138598 meV Im[Sigma]=      46.863911 meV     Z=       1.057489 lam=      -0.054364
     E(   3 )=  -1.9550 eV   Re[Sigma]=     -30.728514 meV Im[Sigma]=      74.141727 meV     Z=       0.892442 lam=       0.120521
     E(   4 )=  -1.7220 eV   Re[Sigma]=      25.138100 meV Im[Sigma]=     114.846004 meV     Z=       1.057543 lam=      -0.054412
     -------------------------------------------------------------------


     ik =      10 coord.:    0.0000000   0.1666667   0.5000000
     -------------------------------------------------------------------
     E(   2 )=  -8.6498 eV   Re[Sigma]=       0.000000 meV Im[Sigma]=       0.000000 meV     Z=       1.000000 lam=       0.000000
     E(   3 )=  -3.0372 eV   Re[Sigma]=       0.000000 meV Im[Sigma]=       0.000000 meV     Z=       1.000000 lam=       0.000000
     E(   4 )=  -2.2836 eV   Re[Sigma]=       0.000000 meV Im[Sigma]=       0.000000 meV     Z=       1.000000 lam=       0.000000
     -------------------------------------------------------------------


     ik =      11 coord.:    0.0000000   0.1666667   0.6666667
     -------------------------------------------------------------------
     E(   2 )=  -7.7841 eV   Re[Sigma]=      10.726854 meV Im[Sigma]=      51.540479 meV     Z=       1.112390 lam=      -0.101035
     E(   3 )=  -3.5170 eV   Re[Sigma]=       6.594523 meV Im[Sigma]=      40.274777 meV     Z=       1.047039 lam=      -0.044926
     E(   4 )=  -1.4636 eV   Re[Sigma]=      44.097126 meV Im[Sigma]=      57.815513 meV     Z=       0.900414 lam=       0.110601
     -------------------------------------------------------------------


     ik =      12 coord.:    0.0000000   0.1666667   0.8333333
     -------------------------------------------------------------------
     E(   2 )=  -4.2102 eV   Re[Sigma]=      -6.627047 meV Im[Sigma]=      23.284008 meV     Z=       0.995659 lam=       0.004360
     E(   3 )=  -2.2152 eV   Re[Sigma]=     -48.953964 meV Im[Sigma]=      64.776810 meV     Z=       1.034429 lam=      -0.033283
     E(   4 )=  -0.4858 eV   Re[Sigma]=      47.706203 meV Im[Sigma]=     135.986101 meV     Z=       2.006866 lam=      -0.501711
     -------------------------------------------------------------------


     ik =      13 coord.:    0.0000000   0.3333333   0.0000000
     -------------------------------------------------------------------
     E(   2 )=  -6.8685 eV   Re[Sigma]=      -0.028556 meV Im[Sigma]=      10.691741 meV     Z=       0.997185 lam=       0.002823
     E(   3 )=  -1.1730 eV   Re[Sigma]=      43.306974 meV Im[Sigma]=      85.714454 meV     Z=       1.086306 lam=      -0.079449
     E(   4 )=  -1.1730 eV   Re[Sigma]=      43.306974 meV Im[Sigma]=      85.714454 meV     Z=       1.086306 lam=      -0.079449
     -------------------------------------------------------------------


     ik =      14 coord.:    0.0000000   0.3333333   0.1666667
     -------------------------------------------------------------------
     E(   2 )=  -5.3050 eV   Re[Sigma]=      11.080148 meV Im[Sigma]=      44.953716 meV     Z=       1.045895 lam=      -0.043881
     E(   3 )=  -1.9550 eV   Re[Sigma]=     -30.424665 meV Im[Sigma]=      73.512640 meV     Z=       0.885656 lam=       0.129106
     E(   4 )=  -1.7220 eV   Re[Sigma]=      26.929297 meV Im[Sigma]=     116.839795 meV     Z=       1.081645 lam=      -0.075482
     -------------------------------------------------------------------


     ik =      15 coord.:    0.0000000   0.3333333   0.3333333
     -------------------------------------------------------------------
     E(   2 )=  -5.7377 eV   Re[Sigma]=       0.000000 meV Im[Sigma]=       0.000000 meV     Z=       1.000000 lam=       0.000000
     E(   3 )=  -3.1516 eV   Re[Sigma]=       0.000000 meV Im[Sigma]=       0.000000 meV     Z=       1.000000 lam=       0.000000
     E(   4 )=  -3.1516 eV   Re[Sigma]=       0.000000 meV Im[Sigma]=       0.000000 meV     Z=       1.000000 lam=       0.000000
     -------------------------------------------------------------------


     ik =      16 coord.:    0.0000000   0.3333333   0.5000000
     -------------------------------------------------------------------
     E(   2 )=  -7.6363 eV   Re[Sigma]=       0.000000 meV Im[Sigma]=       0.000000 meV     Z=       1.000000 lam=       0.000000
     E(   3 )=  -4.8087 eV   Re[Sigma]=       0.000000 meV Im[Sigma]=       0.000000 meV     Z=       1.000000 lam=       0.000000
     E(   4 )=  -3.6130 eV   Re[Sigma]=       0.000000 meV Im[Sigma]=       0.000000 meV     Z=       1.000000 lam=       0.000000
     -------------------------------------------------------------------


     ik =      17 coord.:    0.0000000   0.3333333   0.6666667
     -------------------------------------------------------------------
     E(   2 )=  -7.7256 eV   Re[Sigma]=       0.000000 meV Im[Sigma]=       0.000000 meV     Z=       1.000000 lam=       0.000000
     E(   3 )=  -6.3198 eV   Re[Sigma]=       0.000000 meV Im[Sigma]=       0.000000 meV     Z=       1.000000 lam=       0.000000
     E(   4 )=  -2.7070 eV   Re[Sigma]=       0.000000 meV Im[Sigma]=       0.000000 meV     Z=       1.000000 lam=       0.000000
     -------------------------------------------------------------------


     ik =      18 coord.:    0.0000000   0.3333333   0.8333333
     -------------------------------------------------------------------
     E(   2 )=  -7.7841 eV   Re[Sigma]=      10.321461 meV Im[Sigma]=      48.396758 meV     Z=       1.098242 lam=      -0.089454
     E(   3 )=  -3.5170 eV   Re[Sigma]=       6.978842 meV Im[Sigma]=      40.433796 meV     Z=       1.049672 lam=      -0.047321
     E(   4 )=  -1.4636 eV   Re[Sigma]=      44.640073 meV Im[Sigma]=      57.030398 meV     Z=       0.893474 lam=       0.119226
     -------------------------------------------------------------------


     ik =      19 coord.:    0.0000000   0.5000000   0.0000000
     -------------------------------------------------------------------
     E(   2 )=  -9.4227 eV   Re[Sigma]=      -6.746642 meV Im[Sigma]=       6.652674 meV     Z=       1.006288 lam=      -0.006248
     E(   3 )=  -1.6810 eV   Re[Sigma]=      23.809050 meV Im[Sigma]=      78.210140 meV     Z=       0.884328 lam=       0.130802
     E(   4 )=  -1.6810 eV   Re[Sigma]=      23.809050 meV Im[Sigma]=      78.210140 meV     Z=       0.884328 lam=       0.130802
     -------------------------------------------------------------------


     ik =      20 coord.:    0.0000000   0.5000000   0.1666667
     -------------------------------------------------------------------
     E(   2 )=  -8.6498 eV   Re[Sigma]=       0.000000 meV Im[Sigma]=       0.000000 meV     Z=       1.000000 lam=       0.000000
     E(   3 )=  -3.0372 eV   Re[Sigma]=       0.000000 meV Im[Sigma]=       0.000000 meV     Z=       1.000000 lam=       0.000000
     E(   4 )=  -2.2836 eV   Re[Sigma]=       0.000000 meV Im[Sigma]=       0.000000 meV     Z=       1.000000 lam=       0.000000
     -------------------------------------------------------------------


     ik =      21 coord.:    0.0000000   0.5000000   0.3333333
     -------------------------------------------------------------------
     E(   2 )=  -7.6363 eV   Re[Sigma]=       0.000000 meV Im[Sigma]=       0.000000 meV     Z=       1.000000 lam=       0.000000
     E(   3 )=  -4.8087 eV   Re[Sigma]=       0.000000 meV Im[Sigma]=       0.000000 meV     Z=       1.000000 lam=       0.000000
     E(   4 )=  -3.6130 eV   Re[Sigma]=       0.000000 meV Im[Sigma]=       0.000000 meV     Z=       1.000000 lam=       0.000000
     -------------------------------------------------------------------


     ik =      22 coord.:    0.0000000   0.5000000   0.5000000
     -------------------------------------------------------------------
     E(   2 )=  -8.1432 eV   Re[Sigma]=       0.000000 meV Im[Sigma]=       0.000000 meV     Z=       1.000000 lam=       0.000000
     E(   3 )=  -4.3397 eV   Re[Sigma]=       0.000000 meV Im[Sigma]=       0.000000 meV     Z=       1.000000 lam=       0.000000
     E(   4 )=  -4.3397 eV   Re[Sigma]=       0.000000 meV Im[Sigma]=       0.000000 meV     Z=       1.000000 lam=       0.000000
     -------------------------------------------------------------------


     ik =      23 coord.:    0.0000000   0.5000000   0.6666667
     -------------------------------------------------------------------
     E(   2 )=  -7.6363 eV   Re[Sigma]=       0.000000 meV Im[Sigma]=       0.000000 meV     Z=       1.000000 lam=       0.000000
     E(   3 )=  -4.8087 eV   Re[Sigma]=       0.000000 meV Im[Sigma]=       0.000000 meV     Z=       1.000000 lam=       0.000000
     E(   4 )=  -3.6130 eV   Re[Sigma]=       0.000000 meV Im[Sigma]=       0.000000 meV     Z=       1.000000 lam=       0.000000
     -------------------------------------------------------------------


     ik =      24 coord.:    0.0000000   0.5000000   0.8333333
     -------------------------------------------------------------------
     E(   2 )=  -8.6498 eV   Re[Sigma]=       0.000000 meV Im[Sigma]=       0.000000 meV     Z=       1.000000 lam=       0.000000
     E(   3 )=  -3.0372 eV   Re[Sigma]=       0.000000 meV Im[Sigma]=       0.000000 meV     Z=       1.000000 lam=       0.000000
     E(   4 )=  -2.2836 eV   Re[Sigma]=       0.000000 meV Im[Sigma]=       0.000000 meV     Z=       1.000000 lam=       0.000000
     -------------------------------------------------------------------


     ik =      25 coord.:    0.0000000   0.6666667   0.0000000
     -------------------------------------------------------------------
     E(   2 )=  -6.8685 eV   Re[Sigma]=      -0.028491 meV Im[Sigma]=      10.691790 meV     Z=       0.997186 lam=       0.002822
     E(   3 )=  -1.1730 eV   Re[Sigma]=      43.307460 meV Im[Sigma]=      85.715043 meV     Z=       1.086304 lam=      -0.079447
     E(   4 )=  -1.1730 eV   Re[Sigma]=      43.307460 meV Im[Sigma]=      85.715043 meV     Z=       1.086304 lam=      -0.079447
     -------------------------------------------------------------------


     ik =      26 coord.:    0.0000000   0.6666667   0.1666667
     -------------------------------------------------------------------
     E(   2 )=  -7.7841 eV   Re[Sigma]=      10.321582 meV Im[Sigma]=      48.397001 meV     Z=       1.098243 lam=      -0.089455
     E(   3 )=  -3.5170 eV   Re[Sigma]=       6.979079 meV Im[Sigma]=      40.434685 meV     Z=       1.049673 lam=      -0.047323
     E(   4 )=  -1.4636 eV   Re[Sigma]=      44.639336 meV Im[Sigma]=      57.032170 meV     Z=       0.893482 lam=       0.119217
     -------------------------------------------------------------------


     ik =      27 coord.:    0.0000000   0.6666667   0.3333333
     -------------------------------------------------------------------
     E(   2 )=  -7.7256 eV   Re[Sigma]=       0.000000 meV Im[Sigma]=       0.000000 meV     Z=       1.000000 lam=       0.000000
     E(   3 )=  -6.3198 eV   Re[Sigma]=       0.000000 meV Im[Sigma]=       0.000000 meV     Z=       1.000000 lam=       0.000000
     E(   4 )=  -2.7070 eV   Re[Sigma]=       0.000000 meV Im[Sigma]=       0.000000 meV     Z=       1.000000 lam=       0.000000
     -------------------------------------------------------------------


     ik =      28 coord.:    0.0000000   0.6666667   0.5000000
     -------------------------------------------------------------------
     E(   2 )=  -7.6363 eV   Re[Sigma]=       0.000000 meV Im[Sigma]=       0.000000 meV     Z=       1.000000 lam=       0.000000
     E(   3 )=  -4.8087 eV   Re[Sigma]=       0.000000 meV Im[Sigma]=       0.000000 meV     Z=       1.000000 lam=       0.000000
     E(   4 )=  -3.6130 eV   Re[Sigma]=       0.000000 meV Im[Sigma]=       0.000000 meV     Z=       1.000000 lam=       0.000000
     -------------------------------------------------------------------


     ik =      29 coord.:    0.0000000   0.6666667   0.6666667
     -------------------------------------------------------------------
     E(   2 )=  -5.7377 eV   Re[Sigma]=       0.000000 meV Im[Sigma]=       0.000000 meV     Z=       1.000000 lam=       0.000000
     E(   3 )=  -3.1516 eV   Re[Sigma]=       0.000000 meV Im[Sigma]=       0.000000 meV     Z=       1.000000 lam=       0.000000
     E(   4 )=  -3.1516 eV   Re[Sigma]=       0.000000 meV Im[Sigma]=       0.000000 meV     Z=       1.000000 lam=       0.000000
     -------------------------------------------------------------------


     ik =      30 coord.:    0.0000000   0.6666667   0.8333333
     -------------------------------------------------------------------
     E(   2 )=  -5.3050 eV   Re[Sigma]=      11.080020 meV Im[Sigma]=      44.953008 meV     Z=       1.045893 lam=      -0.043879
     E(   3 )=  -1.9550 eV   Re[Sigma]=     -30.425533 meV Im[Sigma]=      73.511906 meV     Z=       0.885653 lam=       0.129111
     E(   4 )=  -1.7220 eV   Re[Sigma]=      26.928619 meV Im[Sigma]=     116.841615 meV     Z=       1.081659 lam=      -0.075494
     -------------------------------------------------------------------


     ik =      31 coord.:    0.0000000   0.8333333   0.0000000
     -------------------------------------------------------------------
     E(   2 )=  -2.1472 eV   Re[Sigma]=     -63.080683 meV Im[Sigma]=      61.256723 meV     Z=       0.877454 lam=       0.139661
     E(   3 )=  -0.3746 eV   Re[Sigma]=      80.960289 meV Im[Sigma]=      53.875356 meV     Z=       0.980722 lam=       0.019657
     E(   4 )=  -0.3746 eV   Re[Sigma]=      80.960289 meV Im[Sigma]=      53.875356 meV     Z=       0.980722 lam=       0.019657
     -------------------------------------------------------------------


     ik =      32 coord.:    0.0000000   0.8333333   0.1666667
     -------------------------------------------------------------------
     E(   2 )=  -4.2102 eV   Re[Sigma]=      -6.627003 meV Im[Sigma]=      23.283982 meV     Z=       0.995659 lam=       0.004360
     E(   3 )=  -2.2152 eV   Re[Sigma]=     -48.953786 meV Im[Sigma]=      64.776601 meV     Z=       1.034429 lam=      -0.033284
     E(   4 )=  -0.4858 eV   Re[Sigma]=      47.706221 meV Im[Sigma]=     135.984286 meV     Z=       2.006833 lam=      -0.501702
     -------------------------------------------------------------------


     ik =      33 coord.:    0.0000000   0.8333333   0.3333333
     -------------------------------------------------------------------
     E(   2 )=  -7.7841 eV   Re[Sigma]=      10.727008 meV Im[Sigma]=      51.540566 meV     Z=       1.112388 lam=      -0.101033
     E(   3 )=  -3.5170 eV   Re[Sigma]=       6.594754 meV Im[Sigma]=      40.274365 meV     Z=       1.047038 lam=      -0.044924
     E(   4 )=  -1.4636 eV   Re[Sigma]=      44.097586 meV Im[Sigma]=      57.813354 meV     Z=       0.900405 lam=       0.110611
     -------------------------------------------------------------------


     ik =      34 coord.:    0.0000000   0.8333333   0.5000000
     -------------------------------------------------------------------
     E(   2 )=  -8.6498 eV   Re[Sigma]=       0.000000 meV Im[Sigma]=       0.000000 meV     Z=       1.000000 lam=       0.000000
     E(   3 )=  -3.0372 eV   Re[Sigma]=       0.000000 meV Im[Sigma]=       0.000000 meV     Z=       1.000000 lam=       0.000000
     E(   4 )=  -2.2836 eV   Re[Sigma]=       0.000000 meV Im[Sigma]=       0.000000 meV     Z=       1.000000 lam=       0.000000
     -------------------------------------------------------------------


     ik =      35 coord.:    0.0000000   0.8333333   0.6666667
     -------------------------------------------------------------------
     E(   2 )=  -5.3050 eV   Re[Sigma]=      11.138714 meV Im[Sigma]=      46.862918 meV     Z=       1.057484 lam=      -0.054359
     E(   3 )=  -1.9550 eV   Re[Sigma]=     -30.729067 meV Im[Sigma]=      74.142338 meV     Z=       0.892439 lam=       0.120525
     E(   4 )=  -1.7220 eV   Re[Sigma]=      25.138258 meV Im[Sigma]=     114.846570 meV     Z=       1.057545 lam=      -0.054414
     -------------------------------------------------------------------


     ik =      36 coord.:    0.0000000   0.8333333   0.8333333
     -------------------------------------------------------------------
     E(   2 )=  -1.7072 eV   Re[Sigma]=      33.027630 meV Im[Sigma]=     114.437728 meV     Z=       0.972265 lam=       0.028526
     E(   3 )=  -1.0239 eV   Re[Sigma]=      65.264218 meV Im[Sigma]=      30.075356 meV     Z=       0.892456 lam=       0.120503
     E(   4 )=  -1.0239 eV   Re[Sigma]=      65.264218 meV Im[Sigma]=      30.075356 meV     Z=       0.892456 lam=       0.120503
     -------------------------------------------------------------------


     ik =      37 coord.:    0.1666667   0.0000000   0.0000000
     -------------------------------------------------------------------
     E(   2 )=  -2.1472 eV   Re[Sigma]=     -61.220156 meV Im[Sigma]=      60.263405 meV     Z=       0.876314 lam=       0.141144
     E(   3 )=  -0.3746 eV   Re[Sigma]=      82.349408 meV Im[Sigma]=      52.081407 meV     Z=       0.971265 lam=       0.029585
     E(   4 )=  -0.3746 eV   Re[Sigma]=      82.349408 meV Im[Sigma]=      52.081407 meV     Z=       0.971265 lam=       0.029585
     -------------------------------------------------------------------


     ik =      38 coord.:    0.1666667   0.0000000   0.1666667
     -------------------------------------------------------------------
     E(   2 )=  -1.7072 eV   Re[Sigma]=      33.027630 meV Im[Sigma]=     114.437728 meV     Z=       0.972265 lam=       0.028526
     E(   3 )=  -1.0239 eV   Re[Sigma]=      65.264219 meV Im[Sigma]=      30.075357 meV     Z=       0.892456 lam=       0.120503
     E(   4 )=  -1.0239 eV   Re[Sigma]=      65.264219 meV Im[Sigma]=      30.075357 meV     Z=       0.892456 lam=       0.120503
     -------------------------------------------------------------------


     ik =      39 coord.:    0.1666667   0.0000000   0.3333333
     -------------------------------------------------------------------
     E(   2 )=  -5.3050 eV   Re[Sigma]=      11.206679 meV Im[Sigma]=      45.747977 meV     Z=       1.050110 lam=      -0.047719
     E(   3 )=  -1.9550 eV   Re[Sigma]=     -31.332192 meV Im[Sigma]=      74.265010 meV     Z=       0.885056 lam=       0.129872
     E(   4 )=  -1.7220 eV   Re[Sigma]=      27.343075 meV Im[Sigma]=     117.189836 meV     Z=       1.078457 lam=      -0.072749
     -------------------------------------------------------------------


     ik =      40 coord.:    0.1666667   0.0000000   0.5000000
     -------------------------------------------------------------------
     E(   2 )=  -8.6498 eV   Re[Sigma]=       0.000000 meV Im[Sigma]=       0.000000 meV     Z=       1.000000 lam=       0.000000
     E(   3 )=  -3.0372 eV   Re[Sigma]=       0.000000 meV Im[Sigma]=       0.000000 meV     Z=       1.000000 lam=       0.000000
     E(   4 )=  -2.2836 eV   Re[Sigma]=       0.000000 meV Im[Sigma]=       0.000000 meV     Z=       1.000000 lam=       0.000000
     -------------------------------------------------------------------


     ik =      41 coord.:    0.1666667   0.0000000   0.6666667
     -------------------------------------------------------------------
     E(   2 )=  -7.7841 eV   Re[Sigma]=      10.826917 meV Im[Sigma]=      50.499635 meV     Z=       1.107298 lam=      -0.096900
     E(   3 )=  -3.5170 eV   Re[Sigma]=       6.870391 meV Im[Sigma]=      40.191753 meV     Z=       1.047356 lam=      -0.045215
     E(   4 )=  -1.4636 eV   Re[Sigma]=      45.213042 meV Im[Sigma]=      58.297822 meV     Z=       0.891655 lam=       0.121511
     -------------------------------------------------------------------


     ik =      42 coord.:    0.1666667   0.0000000   0.8333333
     -------------------------------------------------------------------
     E(   2 )=  -4.2102 eV   Re[Sigma]=      -6.347785 meV Im[Sigma]=      23.182969 meV     Z=       0.995593 lam=       0.004427
     E(   3 )=  -2.2152 eV   Re[Sigma]=     -49.090050 meV Im[Sigma]=      63.915428 meV     Z=       1.030921 lam=      -0.029993
     E(   4 )=  -0.4858 eV   Re[Sigma]=      49.402266 meV Im[Sigma]=     137.926686 meV     Z=       2.060662 lam=      -0.514719
     -------------------------------------------------------------------


     ik =      43 coord.:    0.1666667   0.1666667   0.0000000
     -------------------------------------------------------------------
     E(   2 )=  -1.7072 eV   Re[Sigma]=      33.028293 meV Im[Sigma]=     114.438722 meV     Z=       0.972266 lam=       0.028525
     E(   3 )=  -1.0239 eV   Re[Sigma]=      65.264481 meV Im[Sigma]=      30.075339 meV     Z=       0.892455 lam=       0.120504
     E(   4 )=  -1.0239 eV   Re[Sigma]=      65.264481 meV Im[Sigma]=      30.075339 meV     Z=       0.892455 lam=       0.120504
     -------------------------------------------------------------------


     ik =      44 coord.:    0.1666667   0.1666667   0.1666667
     -------------------------------------------------------------------
     E(   2 )=  -2.1472 eV   Re[Sigma]=     -61.220688 meV Im[Sigma]=      60.262186 meV     Z=       0.876311 lam=       0.141148
     E(   3 )=  -0.3746 eV   Re[Sigma]=      82.350434 meV Im[Sigma]=      52.083275 meV     Z=       0.971270 lam=       0.029580
     E(   4 )=  -0.3746 eV   Re[Sigma]=      82.350434 meV Im[Sigma]=      52.083275 meV     Z=       0.971270 lam=       0.029580
     -------------------------------------------------------------------


     ik =      45 coord.:    0.1666667   0.1666667   0.3333333
     -------------------------------------------------------------------
     E(   2 )=  -4.2102 eV   Re[Sigma]=      -6.347785 meV Im[Sigma]=      23.182968 meV     Z=       0.995593 lam=       0.004427
     E(   3 )=  -2.2152 eV   Re[Sigma]=     -49.090049 meV Im[Sigma]=      63.915429 meV     Z=       1.030921 lam=      -0.029993
     E(   4 )=  -0.4858 eV   Re[Sigma]=      49.402267 meV Im[Sigma]=     137.926689 meV     Z=       2.060662 lam=      -0.514719
     -------------------------------------------------------------------


     ik =      46 coord.:    0.1666667   0.1666667   0.5000000
     -------------------------------------------------------------------
     E(   2 )=  -7.7841 eV   Re[Sigma]=      10.826858 meV Im[Sigma]=      50.499560 meV     Z=       1.107297 lam=      -0.096900
     E(   3 )=  -3.5170 eV   Re[Sigma]=       6.870193 meV Im[Sigma]=      40.190966 meV     Z=       1.047354 lam=      -0.045213
     E(   4 )=  -1.4636 eV   Re[Sigma]=      45.213105 meV Im[Sigma]=      58.297230 meV     Z=       0.891654 lam=       0.121511
     -------------------------------------------------------------------


     ik =      47 coord.:    0.1666667   0.1666667   0.6666667
     -------------------------------------------------------------------
     E(   2 )=  -8.6498 eV   Re[Sigma]=       0.000000 meV Im[Sigma]=       0.000000 meV     Z=       1.000000 lam=       0.000000
     E(   3 )=  -3.0372 eV   Re[Sigma]=       0.000000 meV Im[Sigma]=       0.000000 meV     Z=       1.000000 lam=       0.000000
     E(   4 )=  -2.2836 eV   Re[Sigma]=       0.000000 meV Im[Sigma]=       0.000000 meV     Z=       1.000000 lam=       0.000000
     -------------------------------------------------------------------


     ik =      48 coord.:    0.1666667   0.1666667   0.8333333
     -------------------------------------------------------------------
     E(   2 )=  -5.3050 eV   Re[Sigma]=      11.206534 meV Im[Sigma]=      45.747139 meV     Z=       1.050106 lam=      -0.047716
     E(   3 )=  -1.9550 eV   Re[Sigma]=     -31.333025 meV Im[Sigma]=      74.264900 meV     Z=       0.885053 lam=       0.129876
     E(   4 )=  -1.7220 eV   Re[Sigma]=      27.343323 meV Im[Sigma]=     117.191441 meV     Z=       1.078463 lam=      -0.072755
     -------------------------------------------------------------------


     ik =      49 coord.:    0.1666667   0.3333333   0.0000000
     -------------------------------------------------------------------
     E(   2 )=  -5.3050 eV   Re[Sigma]=      11.080148 meV Im[Sigma]=      44.953715 meV     Z=       1.045895 lam=      -0.043881
     E(   3 )=  -1.9550 eV   Re[Sigma]=     -30.424667 meV Im[Sigma]=      73.512639 meV     Z=       0.885656 lam=       0.129106
     E(   4 )=  -1.7220 eV   Re[Sigma]=      26.929296 meV Im[Sigma]=     116.839795 meV     Z=       1.081645 lam=      -0.075482
     -------------------------------------------------------------------


     ik =      50 coord.:    0.1666667   0.3333333   0.1666667
     -------------------------------------------------------------------
     E(   2 )=  -4.2102 eV   Re[Sigma]=      -6.627047 meV Im[Sigma]=      23.284009 meV     Z=       0.995659 lam=       0.004360
     E(   3 )=  -2.2152 eV   Re[Sigma]=     -48.953964 meV Im[Sigma]=      64.776809 meV     Z=       1.034429 lam=      -0.033283
     E(   4 )=  -0.4858 eV   Re[Sigma]=      47.706204 meV Im[Sigma]=     135.986102 meV     Z=       2.006866 lam=      -0.501711
     -------------------------------------------------------------------


     ik =      51 coord.:    0.1666667   0.3333333   0.3333333
     -------------------------------------------------------------------
     E(   2 )=  -5.3050 eV   Re[Sigma]=      11.206534 meV Im[Sigma]=      45.747138 meV     Z=       1.050106 lam=      -0.047716
     E(   3 )=  -1.9550 eV   Re[Sigma]=     -31.333027 meV Im[Sigma]=      74.264901 meV     Z=       0.885053 lam=       0.129876
     E(   4 )=  -1.7220 eV   Re[Sigma]=      27.343324 meV Im[Sigma]=     117.191447 meV     Z=       1.078463 lam=      -0.072755
     -------------------------------------------------------------------


     ik =      52 coord.:    0.1666667   0.3333333   0.5000000
     -------------------------------------------------------------------
     E(   2 )=  -6.8089 eV   Re[Sigma]=       0.000000 meV Im[Sigma]=       0.000000 meV     Z=       1.000000 lam=       0.000000
     E(   3 )=  -4.5766 eV   Re[Sigma]=       0.000000 meV Im[Sigma]=       0.000000 meV     Z=       1.000000 lam=       0.000000
     E(   4 )=  -2.4092 eV   Re[Sigma]=       0.000000 meV Im[Sigma]=       0.000000 meV     Z=       1.000000 lam=       0.000000
     -------------------------------------------------------------------


     ik =      53 coord.:    0.1666667   0.3333333   0.6666667
     -------------------------------------------------------------------
     E(   2 )=  -8.1181 eV   Re[Sigma]=       0.000000 meV Im[Sigma]=       0.000000 meV     Z=       1.000000 lam=       0.000000
     E(   3 )=  -5.4137 eV   Re[Sigma]=       0.000000 meV Im[Sigma]=       0.000000 meV     Z=       1.000000 lam=       0.000000
     E(   4 )=  -3.2174 eV   Re[Sigma]=       0.000000 meV Im[Sigma]=       0.000000 meV     Z=       1.000000 lam=       0.000000
     -------------------------------------------------------------------


     ik =      54 coord.:    0.1666667   0.3333333   0.8333333
     -------------------------------------------------------------------
     E(   2 )=  -6.8089 eV   Re[Sigma]=       0.000000 meV Im[Sigma]=       0.000000 meV     Z=       1.000000 lam=       0.000000
     E(   3 )=  -4.5766 eV   Re[Sigma]=       0.000000 meV Im[Sigma]=       0.000000 meV     Z=       1.000000 lam=       0.000000
     E(   4 )=  -2.4092 eV   Re[Sigma]=       0.000000 meV Im[Sigma]=       0.000000 meV     Z=       1.000000 lam=       0.000000
     -------------------------------------------------------------------


     ik =      55 coord.:    0.1666667   0.5000000   0.0000000
     -------------------------------------------------------------------
     E(   2 )=  -8.6498 eV   Re[Sigma]=       0.000000 meV Im[Sigma]=       0.000000 meV     Z=       1.000000 lam=       0.000000
     E(   3 )=  -3.0372 eV   Re[Sigma]=       0.000000 meV Im[Sigma]=       0.000000 meV     Z=       1.000000 lam=       0.000000
     E(   4 )=  -2.2836 eV   Re[Sigma]=       0.000000 meV Im[Sigma]=       0.000000 meV     Z=       1.000000 lam=       0.000000
     -------------------------------------------------------------------


     ik =      56 coord.:    0.1666667   0.5000000   0.1666667
     -------------------------------------------------------------------
     E(   2 )=  -7.7841 eV   Re[Sigma]=      10.321461 meV Im[Sigma]=      48.396758 meV     Z=       1.098242 lam=      -0.089454
     E(   3 )=  -3.5170 eV   Re[Sigma]=       6.978842 meV Im[Sigma]=      40.433795 meV     Z=       1.049672 lam=      -0.047321
     E(   4 )=  -1.4636 eV   Re[Sigma]=      44.640072 meV Im[Sigma]=      57.030397 meV     Z=       0.893474 lam=       0.119226
     -------------------------------------------------------------------


     ik =      57 coord.:    0.1666667   0.5000000   0.3333333
     -------------------------------------------------------------------
     E(   2 )=  -6.8089 eV   Re[Sigma]=       0.000000 meV Im[Sigma]=       0.000000 meV     Z=       1.000000 lam=       0.000000
     E(   3 )=  -4.5766 eV   Re[Sigma]=       0.000000 meV Im[Sigma]=       0.000000 meV     Z=       1.000000 lam=       0.000000
     E(   4 )=  -2.4092 eV   Re[Sigma]=       0.000000 meV Im[Sigma]=       0.000000 meV     Z=       1.000000 lam=       0.000000
     -------------------------------------------------------------------


     ik =      58 coord.:    0.1666667   0.5000000   0.5000000
     -------------------------------------------------------------------
     E(   2 )=  -7.6363 eV   Re[Sigma]=       0.000000 meV Im[Sigma]=       0.000000 meV     Z=       1.000000 lam=       0.000000
     E(   3 )=  -4.8087 eV   Re[Sigma]=       0.000000 meV Im[Sigma]=       0.000000 meV     Z=       1.000000 lam=       0.000000
     E(   4 )=  -3.6130 eV   Re[Sigma]=       0.000000 meV Im[Sigma]=       0.000000 meV     Z=       1.000000 lam=       0.000000
     -------------------------------------------------------------------


     ik =      59 coord.:    0.1666667   0.5000000   0.6666667
     -------------------------------------------------------------------
     E(   2 )=  -7.8765 eV   Re[Sigma]=       0.000000 meV Im[Sigma]=       0.000000 meV     Z=       1.000000 lam=       0.000000
     E(   3 )=  -5.6007 eV   Re[Sigma]=       0.000000 meV Im[Sigma]=       0.000000 meV     Z=       1.000000 lam=       0.000000
     E(   4 )=  -4.3908 eV   Re[Sigma]=       0.000000 meV Im[Sigma]=       0.000000 meV     Z=       1.000000 lam=       0.000000
     -------------------------------------------------------------------


     ik =      60 coord.:    0.1666667   0.5000000   0.8333333
     -------------------------------------------------------------------
     E(   2 )=  -8.1181 eV   Re[Sigma]=       0.000000 meV Im[Sigma]=       0.000000 meV     Z=       1.000000 lam=       0.000000
     E(   3 )=  -5.4137 eV   Re[Sigma]=       0.000000 meV Im[Sigma]=       0.000000 meV     Z=       1.000000 lam=       0.000000
     E(   4 )=  -3.2174 eV   Re[Sigma]=       0.000000 meV Im[Sigma]=       0.000000 meV     Z=       1.000000 lam=       0.000000
     -------------------------------------------------------------------


     ik =      61 coord.:    0.1666667   0.6666667   0.0000000
     -------------------------------------------------------------------
     E(   2 )=  -7.7841 eV   Re[Sigma]=      10.321582 meV Im[Sigma]=      48.397000 meV     Z=       1.098243 lam=      -0.089455
     E(   3 )=  -3.5170 eV   Re[Sigma]=       6.979078 meV Im[Sigma]=      40.434684 meV     Z=       1.049673 lam=      -0.047323
     E(   4 )=  -1.4636 eV   Re[Sigma]=      44.639335 meV Im[Sigma]=      57.032170 meV     Z=       0.893482 lam=       0.119217
     -------------------------------------------------------------------


     ik =      62 coord.:    0.1666667   0.6666667   0.1666667
     -------------------------------------------------------------------
     E(   2 )=  -8.6498 eV   Re[Sigma]=       0.000000 meV Im[Sigma]=       0.000000 meV     Z=       1.000000 lam=       0.000000
     E(   3 )=  -3.0372 eV   Re[Sigma]=       0.000000 meV Im[Sigma]=       0.000000 meV     Z=       1.000000 lam=       0.000000
     E(   4 )=  -2.2836 eV   Re[Sigma]=       0.000000 meV Im[Sigma]=       0.000000 meV     Z=       1.000000 lam=       0.000000
     -------------------------------------------------------------------


     ik =      63 coord.:    0.1666667   0.6666667   0.3333333
     -------------------------------------------------------------------
     E(   2 )=  -8.1181 eV   Re[Sigma]=       0.000000 meV Im[Sigma]=       0.000000 meV     Z=       1.000000 lam=       0.000000
     E(   3 )=  -5.4137 eV   Re[Sigma]=       0.000000 meV Im[Sigma]=       0.000000 meV     Z=       1.000000 lam=       0.000000
     E(   4 )=  -3.2174 eV   Re[Sigma]=       0.000000 meV Im[Sigma]=       0.000000 meV     Z=       1.000000 lam=       0.000000
     -------------------------------------------------------------------


     ik =      64 coord.:    0.1666667   0.6666667   0.5000000
     -------------------------------------------------------------------
     E(   2 )=  -7.8765 eV   Re[Sigma]=       0.000000 meV Im[Sigma]=       0.000000 meV     Z=       1.000000 lam=       0.000000
     E(   3 )=  -5.6007 eV   Re[Sigma]=       0.000000 meV Im[Sigma]=       0.000000 meV     Z=       1.000000 lam=       0.000000
     E(   4 )=  -4.3908 eV   Re[Sigma]=       0.000000 meV Im[Sigma]=       0.000000 meV     Z=       1.000000 lam=       0.000000
     -------------------------------------------------------------------


     ik =      65 coord.:    0.1666667   0.6666667   0.6666667
     -------------------------------------------------------------------
     E(   2 )=  -7.6363 eV   Re[Sigma]=       0.000000 meV Im[Sigma]=       0.000000 meV     Z=       1.000000 lam=       0.000000
     E(   3 )=  -4.8087 eV   Re[Sigma]=       0.000000 meV Im[Sigma]=       0.000000 meV     Z=       1.000000 lam=       0.000000
     E(   4 )=  -3.6130 eV   Re[Sigma]=       0.000000 meV Im[Sigma]=       0.000000 meV     Z=       1.000000 lam=       0.000000
     -------------------------------------------------------------------


     ik =      66 coord.:    0.1666667   0.6666667   0.8333333
     -------------------------------------------------------------------
     E(   2 )=  -6.8089 eV   Re[Sigma]=       0.000000 meV Im[Sigma]=       0.000000 meV     Z=       1.000000 lam=       0.000000
     E(   3 )=  -4.5766 eV   Re[Sigma]=       0.000000 meV Im[Sigma]=       0.000000 meV     Z=       1.000000 lam=       0.000000
     E(   4 )=  -2.4092 eV   Re[Sigma]=       0.000000 meV Im[Sigma]=       0.000000 meV     Z=       1.000000 lam=       0.000000
     -------------------------------------------------------------------


     ik =      67 coord.:    0.1666667   0.8333333   0.0000000
     -------------------------------------------------------------------
     E(   2 )=  -4.2102 eV   Re[Sigma]=      -6.627003 meV Im[Sigma]=      23.283983 meV     Z=       0.995659 lam=       0.004360
     E(   3 )=  -2.2152 eV   Re[Sigma]=     -48.953785 meV Im[Sigma]=      64.776599 meV     Z=       1.034429 lam=      -0.033283
     E(   4 )=  -0.4858 eV   Re[Sigma]=      47.706220 meV Im[Sigma]=     135.984283 meV     Z=       2.006833 lam=      -0.501702
     -------------------------------------------------------------------


     ik =      68 coord.:    0.1666667   0.8333333   0.1666667
     -------------------------------------------------------------------
     E(   2 )=  -5.3050 eV   Re[Sigma]=      11.080021 meV Im[Sigma]=      44.953008 meV     Z=       1.045893 lam=      -0.043879
     E(   3 )=  -1.9550 eV   Re[Sigma]=     -30.425534 meV Im[Sigma]=      73.511908 meV     Z=       0.885653 lam=       0.129111
     E(   4 )=  -1.7220 eV   Re[Sigma]=      26.928618 meV Im[Sigma]=     116.841613 meV     Z=       1.081659 lam=      -0.075494
     -------------------------------------------------------------------


     ik =      69 coord.:    0.1666667   0.8333333   0.3333333
     -------------------------------------------------------------------
     E(   2 )=  -6.8089 eV   Re[Sigma]=       0.000000 meV Im[Sigma]=       0.000000 meV     Z=       1.000000 lam=       0.000000
     E(   3 )=  -4.5766 eV   Re[Sigma]=       0.000000 meV Im[Sigma]=       0.000000 meV     Z=       1.000000 lam=       0.000000
     E(   4 )=  -2.4092 eV   Re[Sigma]=       0.000000 meV Im[Sigma]=       0.000000 meV     Z=       1.000000 lam=       0.000000
     -------------------------------------------------------------------


     ik =      70 coord.:    0.1666667   0.8333333   0.5000000
     -------------------------------------------------------------------
     E(   2 )=  -8.1181 eV   Re[Sigma]=       0.000000 meV Im[Sigma]=       0.000000 meV     Z=       1.000000 lam=       0.000000
     E(   3 )=  -5.4137 eV   Re[Sigma]=       0.000000 meV Im[Sigma]=       0.000000 meV     Z=       1.000000 lam=       0.000000
     E(   4 )=  -3.2174 eV   Re[Sigma]=       0.000000 meV Im[Sigma]=       0.000000 meV     Z=       1.000000 lam=       0.000000
     -------------------------------------------------------------------


     ik =      71 coord.:    0.1666667   0.8333333   0.6666667
     -------------------------------------------------------------------
     E(   2 )=  -6.8089 eV   Re[Sigma]=       0.000000 meV Im[Sigma]=       0.000000 meV     Z=       1.000000 lam=       0.000000
     E(   3 )=  -4.5766 eV   Re[Sigma]=       0.000000 meV Im[Sigma]=       0.000000 meV     Z=       1.000000 lam=       0.000000
     E(   4 )=  -2.4092 eV   Re[Sigma]=       0.000000 meV Im[Sigma]=       0.000000 meV     Z=       1.000000 lam=       0.000000
     -------------------------------------------------------------------


     ik =      72 coord.:    0.1666667   0.8333333   0.8333333
     -------------------------------------------------------------------
     E(   2 )=  -5.3050 eV   Re[Sigma]=      11.206679 meV Im[Sigma]=      45.747976 meV     Z=       1.050110 lam=      -0.047719
     E(   3 )=  -1.9550 eV   Re[Sigma]=     -31.332195 meV Im[Sigma]=      74.265011 meV     Z=       0.885056 lam=       0.129872
     E(   4 )=  -1.7220 eV   Re[Sigma]=      27.343074 meV Im[Sigma]=     117.189832 meV     Z=       1.078457 lam=      -0.072749
     -------------------------------------------------------------------


     ik =      73 coord.:    0.3333333   0.0000000   0.0000000
     -------------------------------------------------------------------
     E(   2 )=  -6.8685 eV   Re[Sigma]=       0.240517 meV Im[Sigma]=      10.691741 meV     Z=       0.997048 lam=       0.002961
     E(   3 )=  -1.1730 eV   Re[Sigma]=      43.930279 meV Im[Sigma]=      85.863738 meV     Z=       1.085376 lam=      -0.078661
     E(   4 )=  -1.1730 eV   Re[Sigma]=      43.930279 meV Im[Sigma]=      85.863738 meV     Z=       1.085376 lam=      -0.078661
     -------------------------------------------------------------------


     ik =      74 coord.:    0.3333333   0.0000000   0.1666667
     -------------------------------------------------------------------
     E(   2 )=  -5.3050 eV   Re[Sigma]=      11.206679 meV Im[Sigma]=      45.747977 meV     Z=       1.050110 lam=      -0.047719
     E(   3 )=  -1.9550 eV   Re[Sigma]=     -31.332191 meV Im[Sigma]=      74.265008 meV     Z=       0.885056 lam=       0.129872
     E(   4 )=  -1.7220 eV   Re[Sigma]=      27.343076 meV Im[Sigma]=     117.189835 meV     Z=       1.078457 lam=      -0.072749
     -------------------------------------------------------------------


     ik =      75 coord.:    0.3333333   0.0000000   0.3333333
     -------------------------------------------------------------------
     E(   2 )=  -5.7377 eV   Re[Sigma]=       0.000000 meV Im[Sigma]=       0.000000 meV     Z=       1.000000 lam=       0.000000
     E(   3 )=  -3.1516 eV   Re[Sigma]=       0.000000 meV Im[Sigma]=       0.000000 meV     Z=       1.000000 lam=       0.000000
     E(   4 )=  -3.1516 eV   Re[Sigma]=       0.000000 meV Im[Sigma]=       0.000000 meV     Z=       1.000000 lam=       0.000000
     -------------------------------------------------------------------


     ik =      76 coord.:    0.3333333   0.0000000   0.5000000
     -------------------------------------------------------------------
     E(   2 )=  -7.6363 eV   Re[Sigma]=       0.000000 meV Im[Sigma]=       0.000000 meV     Z=       1.000000 lam=       0.000000
     E(   3 )=  -4.8087 eV   Re[Sigma]=       0.000000 meV Im[Sigma]=       0.000000 meV     Z=       1.000000 lam=       0.000000
     E(   4 )=  -3.6130 eV   Re[Sigma]=       0.000000 meV Im[Sigma]=       0.000000 meV     Z=       1.000000 lam=       0.000000
     -------------------------------------------------------------------


     ik =      77 coord.:    0.3333333   0.0000000   0.6666667
     -------------------------------------------------------------------
     E(   2 )=  -7.7256 eV   Re[Sigma]=       0.000000 meV Im[Sigma]=       0.000000 meV     Z=       1.000000 lam=       0.000000
     E(   3 )=  -6.3198 eV   Re[Sigma]=       0.000000 meV Im[Sigma]=       0.000000 meV     Z=       1.000000 lam=       0.000000
     E(   4 )=  -2.7070 eV   Re[Sigma]=       0.000000 meV Im[Sigma]=       0.000000 meV     Z=       1.000000 lam=       0.000000
     -------------------------------------------------------------------


     ik =      78 coord.:    0.3333333   0.0000000   0.8333333
     -------------------------------------------------------------------
     E(   2 )=  -7.7841 eV   Re[Sigma]=      10.826857 meV Im[Sigma]=      50.499559 meV     Z=       1.107297 lam=      -0.096900
     E(   3 )=  -3.5170 eV   Re[Sigma]=       6.870193 meV Im[Sigma]=      40.190966 meV     Z=       1.047354 lam=      -0.045213
     E(   4 )=  -1.4636 eV   Re[Sigma]=      45.213104 meV Im[Sigma]=      58.297229 meV     Z=       0.891654 lam=       0.121511
     -------------------------------------------------------------------


     ik =      79 coord.:    0.3333333   0.1666667   0.0000000
     -------------------------------------------------------------------
     E(   2 )=  -5.3050 eV   Re[Sigma]=      11.138598 meV Im[Sigma]=      46.863911 meV     Z=       1.057489 lam=      -0.054364
     E(   3 )=  -1.9550 eV   Re[Sigma]=     -30.728514 meV Im[Sigma]=      74.141724 meV     Z=       0.892442 lam=       0.120521
     E(   4 )=  -1.7220 eV   Re[Sigma]=      25.138099 meV Im[Sigma]=     114.846003 meV     Z=       1.057543 lam=      -0.054412
     -------------------------------------------------------------------


     ik =      80 coord.:    0.3333333   0.1666667   0.1666667
     -------------------------------------------------------------------
     E(   2 )=  -4.2102 eV   Re[Sigma]=      -6.347785 meV Im[Sigma]=      23.182969 meV     Z=       0.995593 lam=       0.004427
     E(   3 )=  -2.2152 eV   Re[Sigma]=     -49.090049 meV Im[Sigma]=      63.915426 meV     Z=       1.030921 lam=      -0.029993
     E(   4 )=  -0.4858 eV   Re[Sigma]=      49.402268 meV Im[Sigma]=     137.926690 meV     Z=       2.060662 lam=      -0.514719
     -------------------------------------------------------------------


     ik =      81 coord.:    0.3333333   0.1666667   0.3333333
     -------------------------------------------------------------------
     E(   2 )=  -5.3050 eV   Re[Sigma]=      11.138713 meV Im[Sigma]=      46.862917 meV     Z=       1.057484 lam=      -0.054359
     E(   3 )=  -1.9550 eV   Re[Sigma]=     -30.729069 meV Im[Sigma]=      74.142342 meV     Z=       0.892439 lam=       0.120525
     E(   4 )=  -1.7220 eV   Re[Sigma]=      25.138258 meV Im[Sigma]=     114.846568 meV     Z=       1.057545 lam=      -0.054414
     -------------------------------------------------------------------


     ik =      82 coord.:    0.3333333   0.1666667   0.5000000
     -------------------------------------------------------------------
     E(   2 )=  -6.8089 eV   Re[Sigma]=       0.000000 meV Im[Sigma]=       0.000000 meV     Z=       1.000000 lam=       0.000000
     E(   3 )=  -4.5766 eV   Re[Sigma]=       0.000000 meV Im[Sigma]=       0.000000 meV     Z=       1.000000 lam=       0.000000
     E(   4 )=  -2.4092 eV   Re[Sigma]=       0.000000 meV Im[Sigma]=       0.000000 meV     Z=       1.000000 lam=       0.000000
     -------------------------------------------------------------------


     ik =      83 coord.:    0.3333333   0.1666667   0.6666667
     -------------------------------------------------------------------
     E(   2 )=  -8.1181 eV   Re[Sigma]=       0.000000 meV Im[Sigma]=       0.000000 meV     Z=       1.000000 lam=       0.000000
     E(   3 )=  -5.4137 eV   Re[Sigma]=       0.000000 meV Im[Sigma]=       0.000000 meV     Z=       1.000000 lam=       0.000000
     E(   4 )=  -3.2174 eV   Re[Sigma]=       0.000000 meV Im[Sigma]=       0.000000 meV     Z=       1.000000 lam=       0.000000
     -------------------------------------------------------------------


     ik =      84 coord.:    0.3333333   0.1666667   0.8333333
     -------------------------------------------------------------------
     E(   2 )=  -6.8089 eV   Re[Sigma]=       0.000000 meV Im[Sigma]=       0.000000 meV     Z=       1.000000 lam=       0.000000
     E(   3 )=  -4.5766 eV   Re[Sigma]=       0.000000 meV Im[Sigma]=       0.000000 meV     Z=       1.000000 lam=       0.000000
     E(   4 )=  -2.4092 eV   Re[Sigma]=       0.000000 meV Im[Sigma]=       0.000000 meV     Z=       1.000000 lam=       0.000000
     -------------------------------------------------------------------


     ik =      85 coord.:    0.3333333   0.3333333   0.0000000
     -------------------------------------------------------------------
     E(   2 )=  -5.7377 eV   Re[Sigma]=       0.000000 meV Im[Sigma]=       0.000000 meV     Z=       1.000000 lam=       0.000000
     E(   3 )=  -3.1516 eV   Re[Sigma]=       0.000000 meV Im[Sigma]=       0.000000 meV     Z=       1.000000 lam=       0.000000
     E(   4 )=  -3.1516 eV   Re[Sigma]=       0.000000 meV Im[Sigma]=       0.000000 meV     Z=       1.000000 lam=       0.000000
     -------------------------------------------------------------------


     ik =      86 coord.:    0.3333333   0.3333333   0.1666667
     -------------------------------------------------------------------
     E(   2 )=  -5.3050 eV   Re[Sigma]=      11.206533 meV Im[Sigma]=      45.747138 meV     Z=       1.050106 lam=      -0.047716
     E(   3 )=  -1.9550 eV   Re[Sigma]=     -31.333026 meV Im[Sigma]=      74.264900 meV     Z=       0.885053 lam=       0.129876
     E(   4 )=  -1.7220 eV   Re[Sigma]=      27.343324 meV Im[Sigma]=     117.191445 meV     Z=       1.078463 lam=      -0.072755
     -------------------------------------------------------------------


     ik =      87 coord.:    0.3333333   0.3333333   0.3333333
     -------------------------------------------------------------------
     E(   2 )=  -6.8685 eV   Re[Sigma]=       0.240502 meV Im[Sigma]=      10.691790 meV     Z=       0.997049 lam=       0.002960
     E(   3 )=  -1.1730 eV   Re[Sigma]=      43.930362 meV Im[Sigma]=      85.864737 meV     Z=       1.085376 lam=      -0.078660
     E(   4 )=  -1.1730 eV   Re[Sigma]=      43.930362 meV Im[Sigma]=      85.864737 meV     Z=       1.085376 lam=      -0.078660
     -------------------------------------------------------------------


     ik =      88 coord.:    0.3333333   0.3333333   0.5000000
     -------------------------------------------------------------------
     E(   2 )=  -7.7841 eV   Re[Sigma]=      10.826917 meV Im[Sigma]=      50.499636 meV     Z=       1.107298 lam=      -0.096900
     E(   3 )=  -3.5170 eV   Re[Sigma]=       6.870391 meV Im[Sigma]=      40.191755 meV     Z=       1.047356 lam=      -0.045215
     E(   4 )=  -1.4636 eV   Re[Sigma]=      45.213043 meV Im[Sigma]=      58.297823 meV     Z=       0.891655 lam=       0.121511
     -------------------------------------------------------------------


     ik =      89 coord.:    0.3333333   0.3333333   0.6666667
     -------------------------------------------------------------------
     E(   2 )=  -7.7256 eV   Re[Sigma]=       0.000000 meV Im[Sigma]=       0.000000 meV     Z=       1.000000 lam=       0.000000
     E(   3 )=  -6.3198 eV   Re[Sigma]=       0.000000 meV Im[Sigma]=       0.000000 meV     Z=       1.000000 lam=       0.000000
     E(   4 )=  -2.7070 eV   Re[Sigma]=       0.000000 meV Im[Sigma]=       0.000000 meV     Z=       1.000000 lam=       0.000000
     -------------------------------------------------------------------


     ik =      90 coord.:    0.3333333   0.3333333   0.8333333
     -------------------------------------------------------------------
     E(   2 )=  -7.6363 eV   Re[Sigma]=       0.000000 meV Im[Sigma]=       0.000000 meV     Z=       1.000000 lam=       0.000000
     E(   3 )=  -4.8087 eV   Re[Sigma]=       0.000000 meV Im[Sigma]=       0.000000 meV     Z=       1.000000 lam=       0.000000
     E(   4 )=  -3.6130 eV   Re[Sigma]=       0.000000 meV Im[Sigma]=       0.000000 meV     Z=       1.000000 lam=       0.000000
     -------------------------------------------------------------------


     ik =      91 coord.:    0.3333333   0.5000000   0.0000000
     -------------------------------------------------------------------
     E(   2 )=  -7.6363 eV   Re[Sigma]=       0.000000 meV Im[Sigma]=       0.000000 meV     Z=       1.000000 lam=       0.000000
     E(   3 )=  -4.8087 eV   Re[Sigma]=       0.000000 meV Im[Sigma]=       0.000000 meV     Z=       1.000000 lam=       0.000000
     E(   4 )=  -3.6130 eV   Re[Sigma]=       0.000000 meV Im[Sigma]=       0.000000 meV     Z=       1.000000 lam=       0.000000
     -------------------------------------------------------------------


     ik =      92 coord.:    0.3333333   0.5000000   0.1666667
     -------------------------------------------------------------------
     E(   2 )=  -6.8089 eV   Re[Sigma]=       0.000000 meV Im[Sigma]=       0.000000 meV     Z=       1.000000 lam=       0.000000
     E(   3 )=  -4.5766 eV   Re[Sigma]=       0.000000 meV Im[Sigma]=       0.000000 meV     Z=       1.000000 lam=       0.000000
     E(   4 )=  -2.4092 eV   Re[Sigma]=       0.000000 meV Im[Sigma]=       0.000000 meV     Z=       1.000000 lam=       0.000000
     -------------------------------------------------------------------


     ik =      93 coord.:    0.3333333   0.5000000   0.3333333
     -------------------------------------------------------------------
     E(   2 )=  -7.7841 eV   Re[Sigma]=      10.726854 meV Im[Sigma]=      51.540478 meV     Z=       1.112390 lam=      -0.101034
     E(   3 )=  -3.5170 eV   Re[Sigma]=       6.594523 meV Im[Sigma]=      40.274778 meV     Z=       1.047039 lam=      -0.044926
     E(   4 )=  -1.4636 eV   Re[Sigma]=      44.097127 meV Im[Sigma]=      57.815513 meV     Z=       0.900414 lam=       0.110601
     -------------------------------------------------------------------


     ik =      94 coord.:    0.3333333   0.5000000   0.5000000
     -------------------------------------------------------------------
     E(   2 )=  -8.6498 eV   Re[Sigma]=       0.000000 meV Im[Sigma]=       0.000000 meV     Z=       1.000000 lam=       0.000000
     E(   3 )=  -3.0372 eV   Re[Sigma]=       0.000000 meV Im[Sigma]=       0.000000 meV     Z=       1.000000 lam=       0.000000
     E(   4 )=  -2.2836 eV   Re[Sigma]=       0.000000 meV Im[Sigma]=       0.000000 meV     Z=       1.000000 lam=       0.000000
     -------------------------------------------------------------------


     ik =      95 coord.:    0.3333333   0.5000000   0.6666667
     -------------------------------------------------------------------
     E(   2 )=  -8.1181 eV   Re[Sigma]=       0.000000 meV Im[Sigma]=       0.000000 meV     Z=       1.000000 lam=       0.000000
     E(   3 )=  -5.4137 eV   Re[Sigma]=       0.000000 meV Im[Sigma]=       0.000000 meV     Z=       1.000000 lam=       0.000000
     E(   4 )=  -3.2174 eV   Re[Sigma]=       0.000000 meV Im[Sigma]=       0.000000 meV     Z=       1.000000 lam=       0.000000
     -------------------------------------------------------------------


     ik =      96 coord.:    0.3333333   0.5000000   0.8333333
     -------------------------------------------------------------------
     E(   2 )=  -7.8765 eV   Re[Sigma]=       0.000000 meV Im[Sigma]=       0.000000 meV     Z=       1.000000 lam=       0.000000
     E(   3 )=  -5.6007 eV   Re[Sigma]=       0.000000 meV Im[Sigma]=       0.000000 meV     Z=       1.000000 lam=       0.000000
     E(   4 )=  -4.3908 eV   Re[Sigma]=       0.000000 meV Im[Sigma]=       0.000000 meV     Z=       1.000000 lam=       0.000000
     -------------------------------------------------------------------


     ik =      97 coord.:    0.3333333   0.6666667   0.0000000
     -------------------------------------------------------------------
     E(   2 )=  -7.7256 eV   Re[Sigma]=       0.000000 meV Im[Sigma]=       0.000000 meV     Z=       1.000000 lam=       0.000000
     E(   3 )=  -6.3198 eV   Re[Sigma]=       0.000000 meV Im[Sigma]=       0.000000 meV     Z=       1.000000 lam=       0.000000
     E(   4 )=  -2.7070 eV   Re[Sigma]=       0.000000 meV Im[Sigma]=       0.000000 meV     Z=       1.000000 lam=       0.000000
     -------------------------------------------------------------------


     ik =      98 coord.:    0.3333333   0.6666667   0.1666667
     -------------------------------------------------------------------
     E(   2 )=  -8.1181 eV   Re[Sigma]=       0.000000 meV Im[Sigma]=       0.000000 meV     Z=       1.000000 lam=       0.000000
     E(   3 )=  -5.4137 eV   Re[Sigma]=       0.000000 meV Im[Sigma]=       0.000000 meV     Z=       1.000000 lam=       0.000000
     E(   4 )=  -3.2174 eV   Re[Sigma]=       0.000000 meV Im[Sigma]=       0.000000 meV     Z=       1.000000 lam=       0.000000
     -------------------------------------------------------------------


     ik =      99 coord.:    0.3333333   0.6666667   0.3333333
     -------------------------------------------------------------------
     E(   2 )=  -7.7256 eV   Re[Sigma]=       0.000000 meV Im[Sigma]=       0.000000 meV     Z=       1.000000 lam=       0.000000
     E(   3 )=  -6.3198 eV   Re[Sigma]=       0.000000 meV Im[Sigma]=       0.000000 meV     Z=       1.000000 lam=       0.000000
     E(   4 )=  -2.7070 eV   Re[Sigma]=       0.000000 meV Im[Sigma]=       0.000000 meV     Z=       1.000000 lam=       0.000000
     -------------------------------------------------------------------


     ik =     100 coord.:    0.3333333   0.6666667   0.5000000
     -------------------------------------------------------------------
     E(   2 )=  -8.1181 eV   Re[Sigma]=       0.000000 meV Im[Sigma]=       0.000000 meV     Z=       1.000000 lam=       0.000000
     E(   3 )=  -5.4137 eV   Re[Sigma]=       0.000000 meV Im[Sigma]=       0.000000 meV     Z=       1.000000 lam=       0.000000
     E(   4 )=  -3.2174 eV   Re[Sigma]=       0.000000 meV Im[Sigma]=       0.000000 meV     Z=       1.000000 lam=       0.000000
     -------------------------------------------------------------------


     ik =     101 coord.:    0.3333333   0.6666667   0.6666667
     -------------------------------------------------------------------
     E(   2 )=  -7.7256 eV   Re[Sigma]=       0.000000 meV Im[Sigma]=       0.000000 meV     Z=       1.000000 lam=       0.000000
     E(   3 )=  -6.3198 eV   Re[Sigma]=       0.000000 meV Im[Sigma]=       0.000000 meV     Z=       1.000000 lam=       0.000000
     E(   4 )=  -2.7070 eV   Re[Sigma]=       0.000000 meV Im[Sigma]=       0.000000 meV     Z=       1.000000 lam=       0.000000
     -------------------------------------------------------------------


     ik =     102 coord.:    0.3333333   0.6666667   0.8333333
     -------------------------------------------------------------------
     E(   2 )=  -8.1181 eV   Re[Sigma]=       0.000000 meV Im[Sigma]=       0.000000 meV     Z=       1.000000 lam=       0.000000
     E(   3 )=  -5.4137 eV   Re[Sigma]=       0.000000 meV Im[Sigma]=       0.000000 meV     Z=       1.000000 lam=       0.000000
     E(   4 )=  -3.2174 eV   Re[Sigma]=       0.000000 meV Im[Sigma]=       0.000000 meV     Z=       1.000000 lam=       0.000000
     -------------------------------------------------------------------


     ik =     103 coord.:    0.3333333   0.8333333   0.0000000
     -------------------------------------------------------------------
     E(   2 )=  -7.7841 eV   Re[Sigma]=      10.727008 meV Im[Sigma]=      51.540566 meV     Z=       1.112388 lam=      -0.101033
     E(   3 )=  -3.5170 eV   Re[Sigma]=       6.594755 meV Im[Sigma]=      40.274366 meV     Z=       1.047038 lam=      -0.044924
     E(   4 )=  -1.4636 eV   Re[Sigma]=      44.097586 meV Im[Sigma]=      57.813354 meV     Z=       0.900405 lam=       0.110611
     -------------------------------------------------------------------


     ik =     104 coord.:    0.3333333   0.8333333   0.1666667
     -------------------------------------------------------------------
     E(   2 )=  -6.8089 eV   Re[Sigma]=       0.000000 meV Im[Sigma]=       0.000000 meV     Z=       1.000000 lam=       0.000000
     E(   3 )=  -4.5766 eV   Re[Sigma]=       0.000000 meV Im[Sigma]=       0.000000 meV     Z=       1.000000 lam=       0.000000
     E(   4 )=  -2.4092 eV   Re[Sigma]=       0.000000 meV Im[Sigma]=       0.000000 meV     Z=       1.000000 lam=       0.000000
     -------------------------------------------------------------------


     ik =     105 coord.:    0.3333333   0.8333333   0.3333333
     -------------------------------------------------------------------
[...]
      201        3     -5.6007      0.0000      0.0000      1.0000      0.0000
      202        3     -4.8087      0.0000      0.0000      1.0000      0.0000
      203        3     -4.5766      0.0000      0.0000      1.0000      0.0000
      204        3     -3.5170      6.9791     40.4347      1.0497     -0.0473
      205        3     -1.9550    -30.4255     73.5119      0.8857      0.1291
      206        3     -4.5766      0.0000      0.0000      1.0000      0.0000
      207        3     -5.4137      0.0000      0.0000      1.0000      0.0000
      208        3     -4.5766      0.0000      0.0000      1.0000      0.0000
      209        3     -1.9550    -31.3322     74.2650      0.8851      0.1299
      210        3     -2.2152    -48.9538     64.7766      1.0344     -0.0333
      211        3     -1.0239     65.2642     30.0754      0.8925      0.1205
      212        3     -1.9550    -31.3322     74.2650      0.8851      0.1299
      213        3     -3.0372      0.0000      0.0000      1.0000      0.0000
      214        3     -3.5170      6.8704     40.1918      1.0474     -0.0452
      215        3     -2.2152    -49.0900     63.9154      1.0309     -0.0300
      216        3     -0.3746     82.3494     52.0814      0.9713      0.0296
  
        1        4     -0.0842     66.2682      4.2776      0.9232      0.0832
        2        4     -0.3746     82.3494     52.0814      0.9713      0.0296
        3        4     -1.1730     43.9303     85.8637      1.0854     -0.0787
        4        4     -1.6810     23.0648     79.5268      0.8803      0.1360
        5        4     -1.1730     43.9304     85.8647      1.0854     -0.0787
        6        4     -0.3746     82.3504     52.0833      0.9713      0.0296
        7        4     -0.3746     80.9605     53.8734      0.9807      0.0197
        8        4     -1.0239     65.2645     30.0753      0.8925      0.1205
        9        4     -1.7220     25.1381    114.8460      1.0575     -0.0544
       10        4     -2.2836      0.0000      0.0000      1.0000      0.0000
       11        4     -1.4636     44.0971     57.8155      0.9004      0.1106
       12        4     -0.4858     47.7062    135.9861      2.0069     -0.5017
       13        4     -1.1730     43.3070     85.7145      1.0863     -0.0794
       14        4     -1.7220     26.9293    116.8398      1.0816     -0.0755
       15        4     -3.1516      0.0000      0.0000      1.0000      0.0000
       16        4     -3.6130      0.0000      0.0000      1.0000      0.0000
       17        4     -2.7070      0.0000      0.0000      1.0000      0.0000
       18        4     -1.4636     44.6401     57.0304      0.8935      0.1192
       19        4     -1.6810     23.8090     78.2101      0.8843      0.1308
       20        4     -2.2836      0.0000      0.0000      1.0000      0.0000
       21        4     -3.6130      0.0000      0.0000      1.0000      0.0000
       22        4     -4.3397      0.0000      0.0000      1.0000      0.0000
       23        4     -3.6130      0.0000      0.0000      1.0000      0.0000
       24        4     -2.2836      0.0000      0.0000      1.0000      0.0000
       25        4     -1.1730     43.3075     85.7150      1.0863     -0.0794
       26        4     -1.4636     44.6393     57.0322      0.8935      0.1192
       27        4     -2.7070      0.0000      0.0000      1.0000      0.0000
       28        4     -3.6130      0.0000      0.0000      1.0000      0.0000
       29        4     -3.1516      0.0000      0.0000      1.0000      0.0000
       30        4     -1.7220     26.9286    116.8416      1.0817     -0.0755
       31        4     -0.3746     80.9603     53.8754      0.9807      0.0197
       32        4     -0.4858     47.7062    135.9843      2.0068     -0.5017
       33        4     -1.4636     44.0976     57.8134      0.9004      0.1106
       34        4     -2.2836      0.0000      0.0000      1.0000      0.0000
       35        4     -1.7220     25.1383    114.8466      1.0575     -0.0544
       36        4     -1.0239     65.2642     30.0754      0.8925      0.1205
       37        4     -0.3746     82.3494     52.0814      0.9713      0.0296
       38        4     -1.0239     65.2642     30.0754      0.8925      0.1205
       39        4     -1.7220     27.3431    117.1898      1.0785     -0.0727
       40        4     -2.2836      0.0000      0.0000      1.0000      0.0000
       41        4     -1.4636     45.2130     58.2978      0.8917      0.1215
       42        4     -0.4858     49.4023    137.9267      2.0607     -0.5147
       43        4     -1.0239     65.2645     30.0753      0.8925      0.1205
       44        4     -0.3746     82.3504     52.0833      0.9713      0.0296
       45        4     -0.4858     49.4023    137.9267      2.0607     -0.5147
       46        4     -1.4636     45.2131     58.2972      0.8917      0.1215
       47        4     -2.2836      0.0000      0.0000      1.0000      0.0000
       48        4     -1.7220     27.3433    117.1914      1.0785     -0.0728
       49        4     -1.7220     26.9293    116.8398      1.0816     -0.0755
       50        4     -0.4858     47.7062    135.9861      2.0069     -0.5017
       51        4     -1.7220     27.3433    117.1914      1.0785     -0.0728
       52        4     -2.4092      0.0000      0.0000      1.0000      0.0000
       53        4     -3.2174      0.0000      0.0000      1.0000      0.0000
       54        4     -2.4092      0.0000      0.0000      1.0000      0.0000
       55        4     -2.2836      0.0000      0.0000      1.0000      0.0000
       56        4     -1.4636     44.6401     57.0304      0.8935      0.1192
       57        4     -2.4092      0.0000      0.0000      1.0000      0.0000
       58        4     -3.6130      0.0000      0.0000      1.0000      0.0000
       59        4     -4.3908      0.0000      0.0000      1.0000      0.0000
       60        4     -3.2174      0.0000      0.0000      1.0000      0.0000
       61        4     -1.4636     44.6393     57.0322      0.8935      0.1192
       62        4     -2.2836      0.0000      0.0000      1.0000      0.0000
       63        4     -3.2174      0.0000      0.0000      1.0000      0.0000
       64        4     -4.3908      0.0000      0.0000      1.0000      0.0000
       65        4     -3.6130      0.0000      0.0000      1.0000      0.0000
       66        4     -2.4092      0.0000      0.0000      1.0000      0.0000
       67        4     -0.4858     47.7062    135.9843      2.0068     -0.5017
       68        4     -1.7220     26.9286    116.8416      1.0817     -0.0755
       69        4     -2.4092      0.0000      0.0000      1.0000      0.0000
       70        4     -3.2174      0.0000      0.0000      1.0000      0.0000
       71        4     -2.4092      0.0000      0.0000      1.0000      0.0000
       72        4     -1.7220     27.3431    117.1898      1.0785     -0.0727
       73        4     -1.1730     43.9303     85.8637      1.0854     -0.0787
       74        4     -1.7220     27.3431    117.1898      1.0785     -0.0727
       75        4     -3.1516      0.0000      0.0000      1.0000      0.0000
       76        4     -3.6130      0.0000      0.0000      1.0000      0.0000
       77        4     -2.7070      0.0000      0.0000      1.0000      0.0000
       78        4     -1.4636     45.2131     58.2972      0.8917      0.1215
       79        4     -1.7220     25.1381    114.8460      1.0575     -0.0544
       80        4     -0.4858     49.4023    137.9267      2.0607     -0.5147
       81        4     -1.7220     25.1383    114.8466      1.0575     -0.0544
       82        4     -2.4092      0.0000      0.0000      1.0000      0.0000
       83        4     -3.2174      0.0000      0.0000      1.0000      0.0000
       84        4     -2.4092      0.0000      0.0000      1.0000      0.0000
       85        4     -3.1516      0.0000      0.0000      1.0000      0.0000
       86        4     -1.7220     27.3433    117.1914      1.0785     -0.0728
       87        4     -1.1730     43.9304     85.8647      1.0854     -0.0787
       88        4     -1.4636     45.2130     58.2978      0.8917      0.1215
       89        4     -2.7070      0.0000      0.0000      1.0000      0.0000
       90        4     -3.6130      0.0000      0.0000      1.0000      0.0000
       91        4     -3.6130      0.0000      0.0000      1.0000      0.0000
       92        4     -2.4092      0.0000      0.0000      1.0000      0.0000
       93        4     -1.4636     44.0971     57.8155      0.9004      0.1106
       94        4     -2.2836      0.0000      0.0000      1.0000      0.0000
       95        4     -3.2174      0.0000      0.0000      1.0000      0.0000
       96        4     -4.3908      0.0000      0.0000      1.0000      0.0000
       97        4     -2.7070      0.0000      0.0000      1.0000      0.0000
       98        4     -3.2174      0.0000      0.0000      1.0000      0.0000
       99        4     -2.7070      0.0000      0.0000      1.0000      0.0000
      100        4     -3.2174      0.0000      0.0000      1.0000      0.0000
      101        4     -2.7070      0.0000      0.0000      1.0000      0.0000
      102        4     -3.2174      0.0000      0.0000      1.0000      0.0000
      103        4     -1.4636     44.0976     57.8134      0.9004      0.1106
      104        4     -2.4092      0.0000      0.0000      1.0000      0.0000
      105        4     -3.6130      0.0000      0.0000      1.0000      0.0000
      106        4     -4.3908      0.0000      0.0000      1.0000      0.0000
      107        4     -3.2174      0.0000      0.0000      1.0000      0.0000
      108        4     -2.2836      0.0000      0.0000      1.0000      0.0000
      109        4     -1.6810     23.0648     79.5268      0.8803      0.1360
      110        4     -2.2836      0.0000      0.0000      1.0000      0.0000
      111        4     -3.6130      0.0000      0.0000      1.0000      0.0000
      112        4     -4.3397      0.0000      0.0000      1.0000      0.0000
      113        4     -3.6130      0.0000      0.0000      1.0000      0.0000
      114        4     -2.2836      0.0000      0.0000      1.0000      0.0000
      115        4     -2.2836      0.0000      0.0000      1.0000      0.0000
      116        4     -1.4636     45.2131     58.2972      0.8917      0.1215
      117        4     -2.4092      0.0000      0.0000      1.0000      0.0000
      118        4     -3.6130      0.0000      0.0000      1.0000      0.0000
      119        4     -4.3908      0.0000      0.0000      1.0000      0.0000
      120        4     -3.2174      0.0000      0.0000      1.0000      0.0000
      121        4     -3.6130      0.0000      0.0000      1.0000      0.0000
      122        4     -2.4092      0.0000      0.0000      1.0000      0.0000
      123        4     -1.4636     45.2130     58.2978      0.8917      0.1215
      124        4     -2.2836      0.0000      0.0000      1.0000      0.0000
      125        4     -3.2174      0.0000      0.0000      1.0000      0.0000
      126        4     -4.3908      0.0000      0.0000      1.0000      0.0000
      127        4     -4.3397      0.0000      0.0000      1.0000      0.0000
      128        4     -3.6130      0.0000      0.0000      1.0000      0.0000
      129        4     -2.2836      0.0000      0.0000      1.0000      0.0000
      130        4     -1.6810     23.0648     79.5268      0.8803      0.1360
      131        4     -2.2836      0.0000      0.0000      1.0000      0.0000
      132        4     -3.6130      0.0000      0.0000      1.0000      0.0000
      133        4     -3.6130      0.0000      0.0000      1.0000      0.0000
      134        4     -4.3908      0.0000      0.0000      1.0000      0.0000
      135        4     -3.2174      0.0000      0.0000      1.0000      0.0000
      136        4     -2.2836      0.0000      0.0000      1.0000      0.0000
      137        4     -1.4636     45.2131     58.2972      0.8917      0.1215
      138        4     -2.4092      0.0000      0.0000      1.0000      0.0000
      139        4     -2.2836      0.0000      0.0000      1.0000      0.0000
      140        4     -3.2174      0.0000      0.0000      1.0000      0.0000
      141        4     -4.3908      0.0000      0.0000      1.0000      0.0000
      142        4     -3.6130      0.0000      0.0000      1.0000      0.0000
      143        4     -2.4092      0.0000      0.0000      1.0000      0.0000
      144        4     -1.4636     45.2130     58.2978      0.8917      0.1215
      145        4     -1.1730     43.9304     85.8647      1.0854     -0.0787
      146        4     -1.4636     45.2130     58.2978      0.8917      0.1215
      147        4     -2.7070      0.0000      0.0000      1.0000      0.0000
      148        4     -3.6130      0.0000      0.0000      1.0000      0.0000
      149        4     -3.1516      0.0000      0.0000      1.0000      0.0000
      150        4     -1.7220     27.3433    117.1914      1.0785     -0.0728
      151        4     -1.4636     44.0971     57.8155      0.9004      0.1106
      152        4     -2.2836      0.0000      0.0000      1.0000      0.0000
      153        4     -3.2174      0.0000      0.0000      1.0000      0.0000
      154        4     -4.3908      0.0000      0.0000      1.0000      0.0000
      155        4     -3.6130      0.0000      0.0000      1.0000      0.0000
      156        4     -2.4092      0.0000      0.0000      1.0000      0.0000
      157        4     -2.7070      0.0000      0.0000      1.0000      0.0000
      158        4     -3.2174      0.0000      0.0000      1.0000      0.0000
      159        4     -2.7070      0.0000      0.0000      1.0000      0.0000
      160        4     -3.2174      0.0000      0.0000      1.0000      0.0000
      161        4     -2.7070      0.0000      0.0000      1.0000      0.0000
      162        4     -3.2174      0.0000      0.0000      1.0000      0.0000
      163        4     -3.6130      0.0000      0.0000      1.0000      0.0000
      164        4     -4.3908      0.0000      0.0000      1.0000      0.0000
      165        4     -3.2174      0.0000      0.0000      1.0000      0.0000
      166        4     -2.2836      0.0000      0.0000      1.0000      0.0000
      167        4     -1.4636     44.0976     57.8134      0.9004      0.1106
      168        4     -2.4092      0.0000      0.0000      1.0000      0.0000
      169        4     -3.1516      0.0000      0.0000      1.0000      0.0000
      170        4     -3.6130      0.0000      0.0000      1.0000      0.0000
      171        4     -2.7070      0.0000      0.0000      1.0000      0.0000
      172        4     -1.4636     45.2131     58.2972      0.8917      0.1215
      173        4     -1.1730     43.9303     85.8637      1.0854     -0.0787
      174        4     -1.7220     27.3431    117.1898      1.0785     -0.0727
      175        4     -1.7220     25.1383    114.8466      1.0575     -0.0544
      176        4     -2.4092      0.0000      0.0000      1.0000      0.0000
      177        4     -3.2174      0.0000      0.0000      1.0000      0.0000
      178        4     -2.4092      0.0000      0.0000      1.0000      0.0000
      179        4     -1.7220     25.1381    114.8460      1.0575     -0.0544
      180        4     -0.4858     49.4023    137.9267      2.0607     -0.5147
      181        4     -0.3746     82.3504     52.0833      0.9713      0.0296
      182        4     -0.4858     49.4023    137.9267      2.0607     -0.5147
      183        4     -1.4636     45.2131     58.2972      0.8917      0.1215
      184        4     -2.2836      0.0000      0.0000      1.0000      0.0000
      185        4     -1.7220     27.3433    117.1914      1.0785     -0.0728
      186        4     -1.0239     65.2645     30.0753      0.8925      0.1205
      187        4     -0.4858     47.7062    135.9861      2.0069     -0.5017
      188        4     -1.7220     27.3433    117.1914      1.0785     -0.0728
      189        4     -2.4092      0.0000      0.0000      1.0000      0.0000
      190        4     -3.2174      0.0000      0.0000      1.0000      0.0000
      191        4     -2.4092      0.0000      0.0000      1.0000      0.0000
      192        4     -1.7220     26.9293    116.8398      1.0816     -0.0755
      193        4     -1.4636     44.6401     57.0304      0.8935      0.1192
      194        4     -2.4092      0.0000      0.0000      1.0000      0.0000
      195        4     -3.6130      0.0000      0.0000      1.0000      0.0000
      196        4     -4.3908      0.0000      0.0000      1.0000      0.0000
      197        4     -3.2174      0.0000      0.0000      1.0000      0.0000
      198        4     -2.2836      0.0000      0.0000      1.0000      0.0000
      199        4     -2.2836      0.0000      0.0000      1.0000      0.0000
      200        4     -3.2174      0.0000      0.0000      1.0000      0.0000
      201        4     -4.3908      0.0000      0.0000      1.0000      0.0000
      202        4     -3.6130      0.0000      0.0000      1.0000      0.0000
      203        4     -2.4092      0.0000      0.0000      1.0000      0.0000
      204        4     -1.4636     44.6393     57.0322      0.8935      0.1192
      205        4     -1.7220     26.9286    116.8416      1.0817     -0.0755
      206        4     -2.4092      0.0000      0.0000      1.0000      0.0000
      207        4     -3.2174      0.0000      0.0000      1.0000      0.0000
      208        4     -2.4092      0.0000      0.0000      1.0000      0.0000
      209        4     -1.7220     27.3431    117.1898      1.0785     -0.0727
      210        4     -0.4858     47.7062    135.9843      2.0068     -0.5017
      211        4     -1.0239     65.2642     30.0754      0.8925      0.1205
      212        4     -1.7220     27.3431    117.1898      1.0785     -0.0727
      213        4     -2.2836      0.0000      0.0000      1.0000      0.0000
      214        4     -1.4636     45.2130     58.2978      0.8917      0.1215
      215        4     -0.4858     49.4023    137.9267      2.0607     -0.5147
      216        4     -0.3746     82.3494     52.0814      0.9713      0.0296
  
     ===================================================================
     Memory usage:  VmHWM =       179Mb
                   VmPeak =      2741Mb
     ===================================================================


     Unfolding on the coarse grid
     elphon_wrap  :      2.74s CPU      3.32s WALL (       1 calls)

     INITIALIZATION: 

     init_vloc    :      0.00s CPU      0.00s WALL (       1 calls)
     init_us_1    :      0.01s CPU      0.01s WALL (       2 calls)



     Electron-Phonon interpolation
     ephwann      :      0.64s CPU      0.86s WALL (       1 calls)
     ep-interp    :      0.53s CPU      0.59s WALL (     216 calls)

     Ham: step 1  :      0.00s CPU      0.00s WALL (       1 calls)
     Ham: step 2  :      0.00s CPU      0.00s WALL (       1 calls)
     ep: step 1   :      0.00s CPU      0.00s WALL (     162 calls)
     ep: step 2   :      0.03s CPU      0.12s WALL (     162 calls)
     DynW2B       :      0.01s CPU      0.01s WALL (     216 calls)
     HamW2B       :      0.16s CPU      0.18s WALL (   23490 calls)
     ephW2Bp      :      0.07s CPU      0.08s WALL (     216 calls)
     ephW2B       :      0.02s CPU      0.03s WALL (    3132 calls)


     Total program execution
     EPW          :      3.91s CPU      4.82s WALL

                                                                                          
 Please consider citing:                                                                  
 S. Ponce, E. R. Margine, C. Verdi and F. Giustino, Comput. Phys. Commun. 209, 116 (2016) 
                                                                                          
