                                                                                      
                                       ``:oss/                                        
                           `.+s+.     .+ys--yh+     `./ss+.                           
                          -sh//yy+`   +yy   +yy    -+h+-oyy                           
                          -yh- .oyy/.-sh.   .syo-.:sy-  /yh                           
                 `.-.`    `yh+   -oyyyo.     `/syys:    oys      `.`                  
               `/+ssys+-` `sh+      `                   oys`   .:osyo`                
               -yh- ./syyooyo`                          .sys+/oyo--yh/                
               `yy+    .-:-.                             `-/+/:`  -sh-                
                /yh.                                              oys                 
          ``..---hho---------`   .---------..`      `.-----.`    -hd+---.             
       `./osmNMMMMMMMMMMMMMMMs. +NNMMMMMMMMNNmh+.   yNMMMMMNm-  oNMMMMMNmo++:`        
       +sy--/sdMMMhyyyyyyyNMMh- .oyNMMmyyyyyhNMMm+` -yMMMdyyo:` .oyyNMMNhs+syy`       
       -yy/   /MMM+.`-+/``mMMy-   `mMMh:`````.dMMN:` `MMMy-`-dhhy```mMMy:``+hs        
        -yy+` /MMMo:-mMM+`-oo/.    mMMh:     `dMMN/`  dMMm:`dMMMMy..MMMo-.+yo`        
         .sys`/MMMMNNMMMs-         mMMmyooooymMMNo:   oMMM/sMMMMMM++MMN//oh:          
          `sh+/MMMhyyMMMs- `-`     mMMMMMMMMMNmy+-`   -MMMhMMMsmMMmdMMd/yy+           
    `-/+++oyy-/MMM+.`/hh/.`mNm:`   mMMd+/////:-.`      NMMMMMd/:NMMMMMy:/yyo/:.`      
   +os+//:-..-oMMMo:--:::-/MMMo. .-mMMd+---`           hMMMMN+. oMMMMMo. `-+osyso:`   
   syo     `mNMMMMMNNNNNNNNMMMo.oNNMMMMMNNNN:`         +MMMMs:`  dMMMN/`     ``:syo   
   /yh`     :syyyyyyyyyyyyyyyy+.`+syyyyyyyyo:`         .oyys:`   .oyys:`        +yh   
   -yh-        ````````````````    `````````              ``        ``          oys   
   -+h/------------------------::::::::://////++++++++++++++++++++++///////::::/yd:   
   shdddddddddddddddddddddddddddddhhhhhhhhyyyyyssssssssssssssssyyyyyyyhhhhhhhddddh`   
                                                                                      
  S. Ponce, E. R. Margine, C. Verdi, and F. Giustino,                                 
                                                Comput. Phys. Commun. 209, 116 (2016) 
                                                                                      

     Program EPW v.5.5 starts on 19Nov2022 at 13:19: 8 

     This program is part of the open-source Quantum ESPRESSO suite
     for quantum simulation of materials; please cite
         "P. Giannozzi et al., J. Phys.:Condens. Matter 21 395502 (2009);
         "P. Giannozzi et al., J. Phys.:Condens. Matter 29 465901 (2017);
         "P. Giannozzi et al., J. Chem. Phys. 152 154105 (2020);
          URL http://www.quantum-espresso.org", 
     in publications or presentations arising from this work. More details at
     http://www.quantum-espresso.org/quote

     Parallel version (MPI), running on     1 processors

     MPI processes distributed on     1 nodes
     52162 MiB available memory on the printing compute node when the environment starts

     Reading input from epw3.in

     Reading supplied temperature list.
                      
     ------------------------------------------------------------------------ 
                   RESTART - RESTART - RESTART - RESTART                         
     Restart is done without reading PWSCF save file.                  
     Be aware that some consistency checks are therefore not done.                  
     ------------------------------------------------------------------------ 
                      

     --                                                                         

     bravais-lattice index     =            0
     lattice parameter (a_0)   =       0.0000  a.u.
     unit-cell volume          =       0.0000 (a.u.)^3
     number of atoms/cell      =            0
     number of atomic types    =            0
     kinetic-energy cut-off    =       0.0000  Ry
     charge density cut-off    =       0.0000  Ry
     Exchange-correlation= not set
                           (  -1  -1  -1  -1  -1  -1  -1)


     celldm(1)=    0.00000  celldm(2)=    0.00000  celldm(3)=    0.00000
     celldm(4)=    0.00000  celldm(5)=    0.00000  celldm(6)=    0.00000

     crystal axes: (cart. coord. in units of a_0)
               a(1) = (  0.0000  0.0000  0.0000 )  
               a(2) = (  0.0000  0.0000  0.0000 )  
               a(3) = (  0.0000  0.0000  0.0000 )  

     reciprocal axes: (cart. coord. in units 2 pi/a_0)
               b(1) = (  0.0000  0.0000  0.0000 )  
               b(2) = (  0.0000  0.0000  0.0000 )  
               b(3) = (  0.0000  0.0000  0.0000 )  


     Atoms inside the unit cell: 

   Cartesian axes

     site n.  atom      mass           positions (a_0 units)


     No symmetry!

     G cutoff =    0.0000  (      0 G-vectors)     FFT grid: (  0,  0,  0)
     number of k points=    0
                       cart. coord. in units 2pi/a_0
     EPW          :      0.00s CPU      0.00s WALL

     EPW          :      0.00s CPU      0.00s WALL


     -------------------------------------------------------------------
     Using sic.ukk from disk
     -------------------------------------------------------------------

     Symmetries of Bravais lattice:  48
     Symmetries of crystal:          24

     Do not need to read .epb files; read .fmt files


     Band disentanglement is used: nbndsub =    4

     Computes the analytic long-range interaction for polar materials [lpolar]
      
     Use zone-centred Wigner-Seitz cells 
     Number of WS vectors for electrons       43
     Number of WS vectors for phonons       43
     Number of WS vectors for electron-phonon       43
     Maximum number of cores for efficient parallelization      258
     Results may improve by using use_ws == .TRUE. 

     Reading Hamiltonian, Dynamical matrix and EP vertex in Wann rep from file


     Finished reading Wann rep data from file

     ===================================================================
     Memory usage:  VmHWM =        14Mb
                   VmPeak =       356Mb
     ===================================================================
     
     Using uniform q-mesh:    6   6   6
     Shifting q mesh to [-0.5:0.5[
     Size of q point mesh for interpolation:        216
     Using uniform k-mesh:    6   6   6
     Size of k point mesh for interpolation:        432
     Max number of k points per pool:              432

     Fermi energy coarse grid =  10.054835 eV

     Fermi energy is calculated from the fine k-mesh: Ef =  10.487069 eV

     Warning: check if difference with Fermi level fine grid makes sense

     ===================================================================

              ibndmin =     2  ebndmin =     8.675 eV
              ibndmax =     4  ebndmax =    10.055 eV


     Number of ep-matrix elements per pool :        11664 ~=   91.12 Kb (@ 8 bytes/ DP)
      
     A selecq.fmt file was found but re-created because selecqread == .FALSE. 
     Number selected, total            100            100
     Number selected, total            200            200
     We only need to compute      216 q-points
      
     Calculation of Lindhard screening: use with care
     Warning: current implementation for doubly degenerate band, one valley
     Nel =   0.00100000, n =   0.00000716 au^-3, meff =   1.00000000
     EF =   0.10000000 eV, kF =   0.05961990 au^-1, rs =   3.85434681

     ===================================================================
     Electron (Imaginary) Self-Energy in the Migdal Approximation
     ===================================================================


     Fermi Surface thickness =   2.000000 eV

     Golden Rule strictly enforced with T =   0.025852 eV
     Gaussian Broadening:   0.100000 eV, ngauss=   1
 
     Progression iq (fine) =        100/       216
     Progression iq (fine) =        200/       216
     Average over degenerate eigenstates is performed
     Temperature:  300.000K
     WARNING: only the eigenstates within the Fermi window are meaningful

     ik =       1 coord.:    0.0000000   0.0000000   0.0000000
     -------------------------------------------------------------------
     E(   2 )=  -0.4322 eV   Re[Sigma]=      53.595166 meV Im[Sigma]=       4.275152 meV     Z=       0.930076 lam=       0.075181
     E(   3 )=  -0.4322 eV   Re[Sigma]=      53.595166 meV Im[Sigma]=       4.275152 meV     Z=       0.930076 lam=       0.075181
     E(   4 )=  -0.4322 eV   Re[Sigma]=      53.595166 meV Im[Sigma]=       4.275152 meV     Z=       0.930076 lam=       0.075181
     -------------------------------------------------------------------


     ik =       2 coord.:    0.0000000   0.0000000   0.1666667
     -------------------------------------------------------------------
     E(   2 )=  -2.4953 eV   Re[Sigma]=      -2.604866 meV Im[Sigma]=      21.285062 meV     Z=       0.939513 lam=       0.064381
     E(   3 )=  -0.7227 eV   Re[Sigma]=      67.842917 meV Im[Sigma]=      51.637196 meV     Z=       0.980449 lam=       0.019941
     E(   4 )=  -0.7227 eV   Re[Sigma]=      67.842917 meV Im[Sigma]=      51.637196 meV     Z=       0.980449 lam=       0.019941
     -------------------------------------------------------------------


     ik =       3 coord.:    0.0000000   0.0000000   0.3333333
     -------------------------------------------------------------------
     E(   2 )=  -7.2165 eV   Re[Sigma]=       6.143203 meV Im[Sigma]=      10.679226 meV     Z=       1.000411 lam=      -0.000411
     E(   3 )=  -1.5211 eV   Re[Sigma]=      18.347470 meV Im[Sigma]=      85.678820 meV     Z=       1.127164 lam=      -0.112818
     E(   4 )=  -1.5211 eV   Re[Sigma]=      18.347470 meV Im[Sigma]=      85.678820 meV     Z=       1.127164 lam=      -0.112818
     -------------------------------------------------------------------


     ik =       4 coord.:    0.0000000   0.0000000   0.5000000
     -------------------------------------------------------------------
     E(   2 )=  -9.7707 eV   Re[Sigma]=       0.000000 meV Im[Sigma]=       0.000000 meV     Z=       1.000000 lam=       0.000000
     E(   3 )=  -2.0290 eV   Re[Sigma]=       0.000000 meV Im[Sigma]=       0.000000 meV     Z=       1.000000 lam=       0.000000
     E(   4 )=  -2.0290 eV   Re[Sigma]=       0.000000 meV Im[Sigma]=       0.000000 meV     Z=       1.000000 lam=       0.000000
     -------------------------------------------------------------------


     ik =       5 coord.:    0.0000000   0.0000000   0.6666667
     -------------------------------------------------------------------
     E(   2 )=  -7.2165 eV   Re[Sigma]=       6.142991 meV Im[Sigma]=      10.679278 meV     Z=       1.000411 lam=      -0.000411
     E(   3 )=  -1.5211 eV   Re[Sigma]=      18.345011 meV Im[Sigma]=      85.682449 meV     Z=       1.127179 lam=      -0.112830
     E(   4 )=  -1.5211 eV   Re[Sigma]=      18.345011 meV Im[Sigma]=      85.682449 meV     Z=       1.127179 lam=      -0.112830
     -------------------------------------------------------------------


     ik =       6 coord.:    0.0000000   0.0000000   0.8333333
     -------------------------------------------------------------------
     E(   2 )=  -2.4953 eV   Re[Sigma]=      -2.605009 meV Im[Sigma]=      21.285957 meV     Z=       0.939512 lam=       0.064383
     E(   3 )=  -0.7227 eV   Re[Sigma]=      67.844164 meV Im[Sigma]=      51.636380 meV     Z=       0.980442 lam=       0.019948
     E(   4 )=  -0.7227 eV   Re[Sigma]=      67.844164 meV Im[Sigma]=      51.636380 meV     Z=       0.980442 lam=       0.019948
     -------------------------------------------------------------------


     ik =       7 coord.:    0.0000000   0.1666667   0.0000000
     -------------------------------------------------------------------
     E(   2 )=  -2.4953 eV   Re[Sigma]=      -3.945826 meV Im[Sigma]=      20.322567 meV     Z=       0.936775 lam=       0.067492
     E(   3 )=  -0.7227 eV   Re[Sigma]=      66.764719 meV Im[Sigma]=      53.493234 meV     Z=       0.989994 lam=       0.010107
     E(   4 )=  -0.7227 eV   Re[Sigma]=      66.764719 meV Im[Sigma]=      53.493234 meV     Z=       0.989994 lam=       0.010107
     -------------------------------------------------------------------


     ik =       8 coord.:    0.0000000   0.1666667   0.1666667
     -------------------------------------------------------------------
     E(   2 )=  -2.0553 eV   Re[Sigma]=     -36.143953 meV Im[Sigma]=      23.284180 meV     Z=       0.874807 lam=       0.143110
     E(   3 )=  -1.3719 eV   Re[Sigma]=      42.888040 meV Im[Sigma]=      29.977887 meV     Z=       0.913250 lam=       0.094991
     E(   4 )=  -1.3719 eV   Re[Sigma]=      42.888040 meV Im[Sigma]=      29.977887 meV     Z=       0.913250 lam=       0.094991
     -------------------------------------------------------------------


     ik =       9 coord.:    0.0000000   0.1666667   0.3333333
     -------------------------------------------------------------------
     E(   2 )=  -5.6531 eV   Re[Sigma]=       0.000000 meV Im[Sigma]=       0.000000 meV     Z=       1.000000 lam=       0.000000
     E(   3 )=  -2.3031 eV   Re[Sigma]=       0.000000 meV Im[Sigma]=       0.000000 meV     Z=       1.000000 lam=       0.000000
     E(   4 )=  -2.0700 eV   Re[Sigma]=       0.000000 meV Im[Sigma]=       0.000000 meV     Z=       1.000000 lam=       0.000000
     -------------------------------------------------------------------


     ik =      10 coord.:    0.0000000   0.1666667   0.5000000
     -------------------------------------------------------------------
     E(   2 )=  -8.9978 eV   Re[Sigma]=       0.000000 meV Im[Sigma]=       0.000000 meV     Z=       1.000000 lam=       0.000000
     E(   3 )=  -3.3852 eV   Re[Sigma]=       0.000000 meV Im[Sigma]=       0.000000 meV     Z=       1.000000 lam=       0.000000
     E(   4 )=  -2.6317 eV   Re[Sigma]=       0.000000 meV Im[Sigma]=       0.000000 meV     Z=       1.000000 lam=       0.000000
     -------------------------------------------------------------------


     ik =      11 coord.:    0.0000000   0.1666667   0.6666667
     -------------------------------------------------------------------
     E(   2 )=  -8.1321 eV   Re[Sigma]=      14.199996 meV Im[Sigma]=      51.504991 meV     Z=       1.114702 lam=      -0.102899
     E(   3 )=  -3.8650 eV   Re[Sigma]=      11.484768 meV Im[Sigma]=      40.152242 meV     Z=       1.054413 lam=      -0.051605
     E(   4 )=  -1.8117 eV   Re[Sigma]=       4.839984 meV Im[Sigma]=      57.177315 meV     Z=       0.976736 lam=       0.023818
     -------------------------------------------------------------------


     ik =      12 coord.:    0.0000000   0.1666667   0.8333333
     -------------------------------------------------------------------
     E(   2 )=  -4.5583 eV   Re[Sigma]=      -5.864936 meV Im[Sigma]=      23.213104 meV     Z=       1.003580 lam=      -0.003567
     E(   3 )=  -2.5632 eV   Re[Sigma]=      -3.682487 meV Im[Sigma]=      58.118044 meV     Z=       1.177768 lam=      -0.150936
     E(   4 )=  -0.8338 eV   Re[Sigma]=      32.936658 meV Im[Sigma]=     134.368966 meV     Z=       2.012519 lam=      -0.503110
     -------------------------------------------------------------------


     ik =      13 coord.:    0.0000000   0.3333333   0.0000000
     -------------------------------------------------------------------
     E(   2 )=  -7.2165 eV   Re[Sigma]=       5.915400 meV Im[Sigma]=      10.679226 meV     Z=       1.000580 lam=      -0.000580
     E(   3 )=  -1.5211 eV   Re[Sigma]=      17.854237 meV Im[Sigma]=      85.475945 meV     Z=       1.127815 lam=      -0.113330
     E(   4 )=  -1.5211 eV   Re[Sigma]=      17.854237 meV Im[Sigma]=      85.475945 meV     Z=       1.127815 lam=      -0.113330
     -------------------------------------------------------------------


     ik =      14 coord.:    0.0000000   0.3333333   0.1666667
     -------------------------------------------------------------------
     E(   2 )=  -5.6531 eV   Re[Sigma]=       0.000000 meV Im[Sigma]=       0.000000 meV     Z=       1.000000 lam=       0.000000
     E(   3 )=  -2.3031 eV   Re[Sigma]=       0.000000 meV Im[Sigma]=       0.000000 meV     Z=       1.000000 lam=       0.000000
     E(   4 )=  -2.0700 eV   Re[Sigma]=       0.000000 meV Im[Sigma]=       0.000000 meV     Z=       1.000000 lam=       0.000000
     -------------------------------------------------------------------


     ik =      15 coord.:    0.0000000   0.3333333   0.3333333
     -------------------------------------------------------------------
     E(   2 )=  -6.0857 eV   Re[Sigma]=       0.000000 meV Im[Sigma]=       0.000000 meV     Z=       1.000000 lam=       0.000000
     E(   3 )=  -3.4997 eV   Re[Sigma]=       0.000000 meV Im[Sigma]=       0.000000 meV     Z=       1.000000 lam=       0.000000
     E(   4 )=  -3.4997 eV   Re[Sigma]=       0.000000 meV Im[Sigma]=       0.000000 meV     Z=       1.000000 lam=       0.000000
     -------------------------------------------------------------------


     ik =      16 coord.:    0.0000000   0.3333333   0.5000000
     -------------------------------------------------------------------
     E(   2 )=  -7.9843 eV   Re[Sigma]=       0.000000 meV Im[Sigma]=       0.000000 meV     Z=       1.000000 lam=       0.000000
     E(   3 )=  -5.1567 eV   Re[Sigma]=       0.000000 meV Im[Sigma]=       0.000000 meV     Z=       1.000000 lam=       0.000000
     E(   4 )=  -3.9611 eV   Re[Sigma]=       0.000000 meV Im[Sigma]=       0.000000 meV     Z=       1.000000 lam=       0.000000
     -------------------------------------------------------------------


     ik =      17 coord.:    0.0000000   0.3333333   0.6666667
     -------------------------------------------------------------------
     E(   2 )=  -8.0736 eV   Re[Sigma]=       0.000000 meV Im[Sigma]=       0.000000 meV     Z=       1.000000 lam=       0.000000
     E(   3 )=  -6.6678 eV   Re[Sigma]=       0.000000 meV Im[Sigma]=       0.000000 meV     Z=       1.000000 lam=       0.000000
     E(   4 )=  -3.0550 eV   Re[Sigma]=       0.000000 meV Im[Sigma]=       0.000000 meV     Z=       1.000000 lam=       0.000000
     -------------------------------------------------------------------


     ik =      18 coord.:    0.0000000   0.3333333   0.8333333
     -------------------------------------------------------------------
     E(   2 )=  -8.1321 eV   Re[Sigma]=      13.742548 meV Im[Sigma]=      48.300037 meV     Z=       1.100260 lam=      -0.091124
     E(   3 )=  -3.8650 eV   Re[Sigma]=      11.621878 meV Im[Sigma]=      40.376922 meV     Z=       1.057387 lam=      -0.054273
     E(   4 )=  -1.8117 eV   Re[Sigma]=       4.520973 meV Im[Sigma]=      56.404583 meV     Z=       0.970805 lam=       0.030073
     -------------------------------------------------------------------


     ik =      19 coord.:    0.0000000   0.5000000   0.0000000
     -------------------------------------------------------------------
     E(   2 )=  -9.7707 eV   Re[Sigma]=       0.000000 meV Im[Sigma]=       0.000000 meV     Z=       1.000000 lam=       0.000000
     E(   3 )=  -2.0290 eV   Re[Sigma]=       0.000000 meV Im[Sigma]=       0.000000 meV     Z=       1.000000 lam=       0.000000
     E(   4 )=  -2.0290 eV   Re[Sigma]=       0.000000 meV Im[Sigma]=       0.000000 meV     Z=       1.000000 lam=       0.000000
     -------------------------------------------------------------------


     ik =      20 coord.:    0.0000000   0.5000000   0.1666667
     -------------------------------------------------------------------
     E(   2 )=  -8.9978 eV   Re[Sigma]=       0.000000 meV Im[Sigma]=       0.000000 meV     Z=       1.000000 lam=       0.000000
     E(   3 )=  -3.3852 eV   Re[Sigma]=       0.000000 meV Im[Sigma]=       0.000000 meV     Z=       1.000000 lam=       0.000000
     E(   4 )=  -2.6317 eV   Re[Sigma]=       0.000000 meV Im[Sigma]=       0.000000 meV     Z=       1.000000 lam=       0.000000
     -------------------------------------------------------------------


     ik =      21 coord.:    0.0000000   0.5000000   0.3333333
     -------------------------------------------------------------------
     E(   2 )=  -7.9843 eV   Re[Sigma]=       0.000000 meV Im[Sigma]=       0.000000 meV     Z=       1.000000 lam=       0.000000
     E(   3 )=  -5.1567 eV   Re[Sigma]=       0.000000 meV Im[Sigma]=       0.000000 meV     Z=       1.000000 lam=       0.000000
     E(   4 )=  -3.9611 eV   Re[Sigma]=       0.000000 meV Im[Sigma]=       0.000000 meV     Z=       1.000000 lam=       0.000000
     -------------------------------------------------------------------


     ik =      22 coord.:    0.0000000   0.5000000   0.5000000
     -------------------------------------------------------------------
     E(   2 )=  -8.4912 eV   Re[Sigma]=       0.000000 meV Im[Sigma]=       0.000000 meV     Z=       1.000000 lam=       0.000000
     E(   3 )=  -4.6878 eV   Re[Sigma]=       0.000000 meV Im[Sigma]=       0.000000 meV     Z=       1.000000 lam=       0.000000
     E(   4 )=  -4.6878 eV   Re[Sigma]=       0.000000 meV Im[Sigma]=       0.000000 meV     Z=       1.000000 lam=       0.000000
     -------------------------------------------------------------------


     ik =      23 coord.:    0.0000000   0.5000000   0.6666667
     -------------------------------------------------------------------
     E(   2 )=  -7.9843 eV   Re[Sigma]=       0.000000 meV Im[Sigma]=       0.000000 meV     Z=       1.000000 lam=       0.000000
     E(   3 )=  -5.1567 eV   Re[Sigma]=       0.000000 meV Im[Sigma]=       0.000000 meV     Z=       1.000000 lam=       0.000000
     E(   4 )=  -3.9611 eV   Re[Sigma]=       0.000000 meV Im[Sigma]=       0.000000 meV     Z=       1.000000 lam=       0.000000
     -------------------------------------------------------------------


     ik =      24 coord.:    0.0000000   0.5000000   0.8333333
     -------------------------------------------------------------------
     E(   2 )=  -8.9978 eV   Re[Sigma]=       0.000000 meV Im[Sigma]=       0.000000 meV     Z=       1.000000 lam=       0.000000
     E(   3 )=  -3.3852 eV   Re[Sigma]=       0.000000 meV Im[Sigma]=       0.000000 meV     Z=       1.000000 lam=       0.000000
     E(   4 )=  -2.6317 eV   Re[Sigma]=       0.000000 meV Im[Sigma]=       0.000000 meV     Z=       1.000000 lam=       0.000000
     -------------------------------------------------------------------


     ik =      25 coord.:    0.0000000   0.6666667   0.0000000
     -------------------------------------------------------------------
     E(   2 )=  -7.2165 eV   Re[Sigma]=       5.915224 meV Im[Sigma]=      10.679277 meV     Z=       1.000580 lam=      -0.000579
     E(   3 )=  -1.5211 eV   Re[Sigma]=      17.851597 meV Im[Sigma]=      85.479937 meV     Z=       1.127832 lam=      -0.113343
     E(   4 )=  -1.5211 eV   Re[Sigma]=      17.851597 meV Im[Sigma]=      85.479937 meV     Z=       1.127832 lam=      -0.113343
     -------------------------------------------------------------------


     ik =      26 coord.:    0.0000000   0.6666667   0.1666667
     -------------------------------------------------------------------
     E(   2 )=  -8.1321 eV   Re[Sigma]=      13.742714 meV Im[Sigma]=      48.300079 meV     Z=       1.100259 lam=      -0.091123
     E(   3 )=  -3.8650 eV   Re[Sigma]=      11.621994 meV Im[Sigma]=      40.375892 meV     Z=       1.057386 lam=      -0.054272
     E(   4 )=  -1.8117 eV   Re[Sigma]=       4.522138 meV Im[Sigma]=      56.403565 meV     Z=       0.970797 lam=       0.030081
     -------------------------------------------------------------------


     ik =      27 coord.:    0.0000000   0.6666667   0.3333333
     -------------------------------------------------------------------
     E(   2 )=  -8.0736 eV   Re[Sigma]=       0.000000 meV Im[Sigma]=       0.000000 meV     Z=       1.000000 lam=       0.000000
     E(   3 )=  -6.6678 eV   Re[Sigma]=       0.000000 meV Im[Sigma]=       0.000000 meV     Z=       1.000000 lam=       0.000000
     E(   4 )=  -3.0550 eV   Re[Sigma]=       0.000000 meV Im[Sigma]=       0.000000 meV     Z=       1.000000 lam=       0.000000
     -------------------------------------------------------------------


     ik =      28 coord.:    0.0000000   0.6666667   0.5000000
     -------------------------------------------------------------------
     E(   2 )=  -7.9843 eV   Re[Sigma]=       0.000000 meV Im[Sigma]=       0.000000 meV     Z=       1.000000 lam=       0.000000
     E(   3 )=  -5.1567 eV   Re[Sigma]=       0.000000 meV Im[Sigma]=       0.000000 meV     Z=       1.000000 lam=       0.000000
     E(   4 )=  -3.9611 eV   Re[Sigma]=       0.000000 meV Im[Sigma]=       0.000000 meV     Z=       1.000000 lam=       0.000000
     -------------------------------------------------------------------


     ik =      29 coord.:    0.0000000   0.6666667   0.6666667
     -------------------------------------------------------------------
     E(   2 )=  -6.0857 eV   Re[Sigma]=       0.000000 meV Im[Sigma]=       0.000000 meV     Z=       1.000000 lam=       0.000000
     E(   3 )=  -3.4997 eV   Re[Sigma]=       0.000000 meV Im[Sigma]=       0.000000 meV     Z=       1.000000 lam=       0.000000
     E(   4 )=  -3.4997 eV   Re[Sigma]=       0.000000 meV Im[Sigma]=       0.000000 meV     Z=       1.000000 lam=       0.000000
     -------------------------------------------------------------------


     ik =      30 coord.:    0.0000000   0.6666667   0.8333333
     -------------------------------------------------------------------
     E(   2 )=  -5.6531 eV   Re[Sigma]=       0.000000 meV Im[Sigma]=       0.000000 meV     Z=       1.000000 lam=       0.000000
     E(   3 )=  -2.3031 eV   Re[Sigma]=       0.000000 meV Im[Sigma]=       0.000000 meV     Z=       1.000000 lam=       0.000000
     E(   4 )=  -2.0700 eV   Re[Sigma]=       0.000000 meV Im[Sigma]=       0.000000 meV     Z=       1.000000 lam=       0.000000
     -------------------------------------------------------------------


     ik =      31 coord.:    0.0000000   0.8333333   0.0000000
     -------------------------------------------------------------------
     E(   2 )=  -2.4953 eV   Re[Sigma]=      -3.945817 meV Im[Sigma]=      20.323093 meV     Z=       0.936771 lam=       0.067497
     E(   3 )=  -0.7227 eV   Re[Sigma]=      66.766891 meV Im[Sigma]=      53.491970 meV     Z=       0.989980 lam=       0.010121
     E(   4 )=  -0.7227 eV   Re[Sigma]=      66.766891 meV Im[Sigma]=      53.491970 meV     Z=       0.989980 lam=       0.010121
     -------------------------------------------------------------------


     ik =      32 coord.:    0.0000000   0.8333333   0.1666667
     -------------------------------------------------------------------
     E(   2 )=  -4.5583 eV   Re[Sigma]=      -5.864875 meV Im[Sigma]=      23.213040 meV     Z=       1.003579 lam=      -0.003566
     E(   3 )=  -2.5632 eV   Re[Sigma]=      -3.682308 meV Im[Sigma]=      58.118141 meV     Z=       1.177767 lam=      -0.150936
     E(   4 )=  -0.8338 eV   Re[Sigma]=      32.936718 meV Im[Sigma]=     134.370049 meV     Z=       2.012542 lam=      -0.503116
     -------------------------------------------------------------------


     ik =      33 coord.:    0.0000000   0.8333333   0.3333333
     -------------------------------------------------------------------
     E(   2 )=  -8.1321 eV   Re[Sigma]=      14.199628 meV Im[Sigma]=      51.504596 meV     Z=       1.114702 lam=      -0.102899
     E(   3 )=  -3.8650 eV   Re[Sigma]=      11.484183 meV Im[Sigma]=      40.152796 meV     Z=       1.054414 lam=      -0.051606
     E(   4 )=  -1.8117 eV   Re[Sigma]=       4.839377 meV Im[Sigma]=      57.178835 meV     Z=       0.976745 lam=       0.023809
     -------------------------------------------------------------------


     ik =      34 coord.:    0.0000000   0.8333333   0.5000000
     -------------------------------------------------------------------
     E(   2 )=  -8.9978 eV   Re[Sigma]=       0.000000 meV Im[Sigma]=       0.000000 meV     Z=       1.000000 lam=       0.000000
     E(   3 )=  -3.3852 eV   Re[Sigma]=       0.000000 meV Im[Sigma]=       0.000000 meV     Z=       1.000000 lam=       0.000000
     E(   4 )=  -2.6317 eV   Re[Sigma]=       0.000000 meV Im[Sigma]=       0.000000 meV     Z=       1.000000 lam=       0.000000
     -------------------------------------------------------------------


     ik =      35 coord.:    0.0000000   0.8333333   0.6666667
     -------------------------------------------------------------------
     E(   2 )=  -5.6531 eV   Re[Sigma]=       0.000000 meV Im[Sigma]=       0.000000 meV     Z=       1.000000 lam=       0.000000
     E(   3 )=  -2.3031 eV   Re[Sigma]=       0.000000 meV Im[Sigma]=       0.000000 meV     Z=       1.000000 lam=       0.000000
     E(   4 )=  -2.0700 eV   Re[Sigma]=       0.000000 meV Im[Sigma]=       0.000000 meV     Z=       1.000000 lam=       0.000000
     -------------------------------------------------------------------


     ik =      36 coord.:    0.0000000   0.8333333   0.8333333
     -------------------------------------------------------------------
     E(   2 )=  -2.0553 eV   Re[Sigma]=     -36.145095 meV Im[Sigma]=      23.284312 meV     Z=       0.874803 lam=       0.143115
     E(   3 )=  -1.3719 eV   Re[Sigma]=      42.890635 meV Im[Sigma]=      29.978277 meV     Z=       0.913240 lam=       0.095002
     E(   4 )=  -1.3719 eV   Re[Sigma]=      42.890635 meV Im[Sigma]=      29.978277 meV     Z=       0.913240 lam=       0.095002
     -------------------------------------------------------------------


     ik =      37 coord.:    0.1666667   0.0000000   0.0000000
     -------------------------------------------------------------------
     E(   2 )=  -2.4953 eV   Re[Sigma]=      -2.604866 meV Im[Sigma]=      21.285061 meV     Z=       0.939513 lam=       0.064381
     E(   3 )=  -0.7227 eV   Re[Sigma]=      67.842919 meV Im[Sigma]=      51.637197 meV     Z=       0.980449 lam=       0.019941
     E(   4 )=  -0.7227 eV   Re[Sigma]=      67.842919 meV Im[Sigma]=      51.637197 meV     Z=       0.980449 lam=       0.019941
     -------------------------------------------------------------------


     ik =      38 coord.:    0.1666667   0.0000000   0.1666667
     -------------------------------------------------------------------
     E(   2 )=  -2.0553 eV   Re[Sigma]=     -36.143781 meV Im[Sigma]=      23.284260 meV     Z=       0.874807 lam=       0.143110
     E(   3 )=  -1.3719 eV   Re[Sigma]=      42.888202 meV Im[Sigma]=      29.977852 meV     Z=       0.913249 lam=       0.094992
     E(   4 )=  -1.3719 eV   Re[Sigma]=      42.888202 meV Im[Sigma]=      29.977852 meV     Z=       0.913249 lam=       0.094992
     -------------------------------------------------------------------


     ik =      39 coord.:    0.1666667   0.0000000   0.3333333
     -------------------------------------------------------------------
     E(   2 )=  -5.6531 eV   Re[Sigma]=       0.000000 meV Im[Sigma]=       0.000000 meV     Z=       1.000000 lam=       0.000000
     E(   3 )=  -2.3031 eV   Re[Sigma]=       0.000000 meV Im[Sigma]=       0.000000 meV     Z=       1.000000 lam=       0.000000
     E(   4 )=  -2.0700 eV   Re[Sigma]=       0.000000 meV Im[Sigma]=       0.000000 meV     Z=       1.000000 lam=       0.000000
     -------------------------------------------------------------------


     ik =      40 coord.:    0.1666667   0.0000000   0.5000000
     -------------------------------------------------------------------
     E(   2 )=  -8.9978 eV   Re[Sigma]=       0.000000 meV Im[Sigma]=       0.000000 meV     Z=       1.000000 lam=       0.000000
     E(   3 )=  -3.3852 eV   Re[Sigma]=       0.000000 meV Im[Sigma]=       0.000000 meV     Z=       1.000000 lam=       0.000000
     E(   4 )=  -2.6317 eV   Re[Sigma]=       0.000000 meV Im[Sigma]=       0.000000 meV     Z=       1.000000 lam=       0.000000
     -------------------------------------------------------------------


     ik =      41 coord.:    0.1666667   0.0000000   0.6666667
     -------------------------------------------------------------------
     E(   2 )=  -8.1321 eV   Re[Sigma]=      14.249260 meV Im[Sigma]=      50.429069 meV     Z=       1.109346 lam=      -0.098568
     E(   3 )=  -3.8650 eV   Re[Sigma]=      11.591649 meV Im[Sigma]=      40.080327 meV     Z=       1.054761 lam=      -0.051918
     E(   4 )=  -1.8117 eV   Re[Sigma]=       5.191854 meV Im[Sigma]=      57.649158 meV     Z=       0.967845 lam=       0.033223
     -------------------------------------------------------------------


     ik =      42 coord.:    0.1666667   0.0000000   0.8333333
     -------------------------------------------------------------------
     E(   2 )=  -4.5583 eV   Re[Sigma]=      -5.625017 meV Im[Sigma]=      23.152969 meV     Z=       1.003661 lam=      -0.003647
     E(   3 )=  -2.5632 eV   Re[Sigma]=      -3.509980 meV Im[Sigma]=      57.395149 meV     Z=       1.174608 lam=      -0.148652
     E(   4 )=  -0.8338 eV   Re[Sigma]=      34.457586 meV Im[Sigma]=     136.132910 meV     Z=       2.064074 lam=      -0.515521
     -------------------------------------------------------------------


     ik =      43 coord.:    0.1666667   0.1666667   0.0000000
     -------------------------------------------------------------------
     E(   2 )=  -2.0553 eV   Re[Sigma]=     -36.143954 meV Im[Sigma]=      23.284180 meV     Z=       0.874807 lam=       0.143110
     E(   3 )=  -1.3719 eV   Re[Sigma]=      42.888039 meV Im[Sigma]=      29.977886 meV     Z=       0.913250 lam=       0.094991
     E(   4 )=  -1.3719 eV   Re[Sigma]=      42.888039 meV Im[Sigma]=      29.977886 meV     Z=       0.913250 lam=       0.094991
     -------------------------------------------------------------------


     ik =      44 coord.:    0.1666667   0.1666667   0.1666667
     -------------------------------------------------------------------
     E(   2 )=  -2.4953 eV   Re[Sigma]=      -2.603630 meV Im[Sigma]=      21.285597 meV     Z=       0.939516 lam=       0.064378
     E(   3 )=  -0.7227 eV   Re[Sigma]=      67.842061 meV Im[Sigma]=      51.635935 meV     Z=       0.980446 lam=       0.019944
     E(   4 )=  -0.7227 eV   Re[Sigma]=      67.842061 meV Im[Sigma]=      51.635935 meV     Z=       0.980446 lam=       0.019944
     -------------------------------------------------------------------


     ik =      45 coord.:    0.1666667   0.1666667   0.3333333
     -------------------------------------------------------------------
     E(   2 )=  -4.5583 eV   Re[Sigma]=      -5.624445 meV Im[Sigma]=      23.152409 meV     Z=       1.003661 lam=      -0.003647
     E(   3 )=  -2.5632 eV   Re[Sigma]=      -3.510227 meV Im[Sigma]=      57.394292 meV     Z=       1.174608 lam=      -0.148652
     E(   4 )=  -0.8338 eV   Re[Sigma]=      34.457495 meV Im[Sigma]=     136.133025 meV     Z=       2.064077 lam=      -0.515522
     -------------------------------------------------------------------


     ik =      46 coord.:    0.1666667   0.1666667   0.5000000
     -------------------------------------------------------------------
     E(   2 )=  -8.1321 eV   Re[Sigma]=      14.249226 meV Im[Sigma]=      50.429977 meV     Z=       1.109353 lam=      -0.098574
     E(   3 )=  -3.8650 eV   Re[Sigma]=      11.591450 meV Im[Sigma]=      40.080681 meV     Z=       1.054763 lam=      -0.051920
     E(   4 )=  -1.8117 eV   Re[Sigma]=       5.191325 meV Im[Sigma]=      57.649369 meV     Z=       0.967845 lam=       0.033223
     -------------------------------------------------------------------


     ik =      47 coord.:    0.1666667   0.1666667   0.6666667
     -------------------------------------------------------------------
     E(   2 )=  -8.9978 eV   Re[Sigma]=       0.000000 meV Im[Sigma]=       0.000000 meV     Z=       1.000000 lam=       0.000000
     E(   3 )=  -3.3852 eV   Re[Sigma]=       0.000000 meV Im[Sigma]=       0.000000 meV     Z=       1.000000 lam=       0.000000
     E(   4 )=  -2.6317 eV   Re[Sigma]=       0.000000 meV Im[Sigma]=       0.000000 meV     Z=       1.000000 lam=       0.000000
     -------------------------------------------------------------------


     ik =      48 coord.:    0.1666667   0.1666667   0.8333333
     -------------------------------------------------------------------
     E(   2 )=  -5.6531 eV   Re[Sigma]=       0.000000 meV Im[Sigma]=       0.000000 meV     Z=       1.000000 lam=       0.000000
     E(   3 )=  -2.3031 eV   Re[Sigma]=       0.000000 meV Im[Sigma]=       0.000000 meV     Z=       1.000000 lam=       0.000000
     E(   4 )=  -2.0700 eV   Re[Sigma]=       0.000000 meV Im[Sigma]=       0.000000 meV     Z=       1.000000 lam=       0.000000
     -------------------------------------------------------------------


     ik =      49 coord.:    0.1666667   0.3333333   0.0000000
     -------------------------------------------------------------------
     E(   2 )=  -5.6531 eV   Re[Sigma]=       0.000000 meV Im[Sigma]=       0.000000 meV     Z=       1.000000 lam=       0.000000
     E(   3 )=  -2.3031 eV   Re[Sigma]=       0.000000 meV Im[Sigma]=       0.000000 meV     Z=       1.000000 lam=       0.000000
     E(   4 )=  -2.0700 eV   Re[Sigma]=       0.000000 meV Im[Sigma]=       0.000000 meV     Z=       1.000000 lam=       0.000000
     -------------------------------------------------------------------


     ik =      50 coord.:    0.1666667   0.3333333   0.1666667
     -------------------------------------------------------------------
     E(   2 )=  -4.5583 eV   Re[Sigma]=      -5.864374 meV Im[Sigma]=      23.212554 meV     Z=       1.003579 lam=      -0.003567
     E(   3 )=  -2.5632 eV   Re[Sigma]=      -3.682721 meV Im[Sigma]=      58.117155 meV     Z=       1.177767 lam=      -0.150935
     E(   4 )=  -0.8338 eV   Re[Sigma]=      32.936646 meV Im[Sigma]=     134.369075 meV     Z=       2.012522 lam=      -0.503111
     -------------------------------------------------------------------


     ik =      51 coord.:    0.1666667   0.3333333   0.3333333
     -------------------------------------------------------------------
     E(   2 )=  -5.6531 eV   Re[Sigma]=       0.000000 meV Im[Sigma]=       0.000000 meV     Z=       1.000000 lam=       0.000000
     E(   3 )=  -2.3031 eV   Re[Sigma]=       0.000000 meV Im[Sigma]=       0.000000 meV     Z=       1.000000 lam=       0.000000
     E(   4 )=  -2.0700 eV   Re[Sigma]=       0.000000 meV Im[Sigma]=       0.000000 meV     Z=       1.000000 lam=       0.000000
     -------------------------------------------------------------------


     ik =      52 coord.:    0.1666667   0.3333333   0.5000000
     -------------------------------------------------------------------
     E(   2 )=  -7.1569 eV   Re[Sigma]=       0.000000 meV Im[Sigma]=       0.000000 meV     Z=       1.000000 lam=       0.000000
     E(   3 )=  -4.9247 eV   Re[Sigma]=       0.000000 meV Im[Sigma]=       0.000000 meV     Z=       1.000000 lam=       0.000000
     E(   4 )=  -2.7572 eV   Re[Sigma]=       0.000000 meV Im[Sigma]=       0.000000 meV     Z=       1.000000 lam=       0.000000
     -------------------------------------------------------------------


     ik =      53 coord.:    0.1666667   0.3333333   0.6666667
     -------------------------------------------------------------------
     E(   2 )=  -8.4662 eV   Re[Sigma]=       0.000000 meV Im[Sigma]=       0.000000 meV     Z=       1.000000 lam=       0.000000
     E(   3 )=  -5.7617 eV   Re[Sigma]=       0.000000 meV Im[Sigma]=       0.000000 meV     Z=       1.000000 lam=       0.000000
     E(   4 )=  -3.5655 eV   Re[Sigma]=       0.000000 meV Im[Sigma]=       0.000000 meV     Z=       1.000000 lam=       0.000000
     -------------------------------------------------------------------


     ik =      54 coord.:    0.1666667   0.3333333   0.8333333
     -------------------------------------------------------------------
     E(   2 )=  -7.1569 eV   Re[Sigma]=       0.000000 meV Im[Sigma]=       0.000000 meV     Z=       1.000000 lam=       0.000000
     E(   3 )=  -4.9247 eV   Re[Sigma]=       0.000000 meV Im[Sigma]=       0.000000 meV     Z=       1.000000 lam=       0.000000
     E(   4 )=  -2.7572 eV   Re[Sigma]=       0.000000 meV Im[Sigma]=       0.000000 meV     Z=       1.000000 lam=       0.000000
     -------------------------------------------------------------------


     ik =      55 coord.:    0.1666667   0.5000000   0.0000000
     -------------------------------------------------------------------
     E(   2 )=  -8.9978 eV   Re[Sigma]=       0.000000 meV Im[Sigma]=       0.000000 meV     Z=       1.000000 lam=       0.000000
     E(   3 )=  -3.3852 eV   Re[Sigma]=       0.000000 meV Im[Sigma]=       0.000000 meV     Z=       1.000000 lam=       0.000000
     E(   4 )=  -2.6317 eV   Re[Sigma]=       0.000000 meV Im[Sigma]=       0.000000 meV     Z=       1.000000 lam=       0.000000
     -------------------------------------------------------------------


     ik =      56 coord.:    0.1666667   0.5000000   0.1666667
     -------------------------------------------------------------------
     E(   2 )=  -8.1321 eV   Re[Sigma]=      13.742583 meV Im[Sigma]=      48.300535 meV     Z=       1.100264 lam=      -0.091127
     E(   3 )=  -3.8650 eV   Re[Sigma]=      11.621947 meV Im[Sigma]=      40.376227 meV     Z=       1.057387 lam=      -0.054273
     E(   4 )=  -1.8117 eV   Re[Sigma]=       4.521015 meV Im[Sigma]=      56.404585 meV     Z=       0.970804 lam=       0.030075
     -------------------------------------------------------------------


     ik =      57 coord.:    0.1666667   0.5000000   0.3333333
     -------------------------------------------------------------------
     E(   2 )=  -7.1569 eV   Re[Sigma]=       0.000000 meV Im[Sigma]=       0.000000 meV     Z=       1.000000 lam=       0.000000
     E(   3 )=  -4.9247 eV   Re[Sigma]=       0.000000 meV Im[Sigma]=       0.000000 meV     Z=       1.000000 lam=       0.000000
     E(   4 )=  -2.7572 eV   Re[Sigma]=       0.000000 meV Im[Sigma]=       0.000000 meV     Z=       1.000000 lam=       0.000000
     -------------------------------------------------------------------


     ik =      58 coord.:    0.1666667   0.5000000   0.5000000
     -------------------------------------------------------------------
     E(   2 )=  -7.9843 eV   Re[Sigma]=       0.000000 meV Im[Sigma]=       0.000000 meV     Z=       1.000000 lam=       0.000000
     E(   3 )=  -5.1567 eV   Re[Sigma]=       0.000000 meV Im[Sigma]=       0.000000 meV     Z=       1.000000 lam=       0.000000
     E(   4 )=  -3.9611 eV   Re[Sigma]=       0.000000 meV Im[Sigma]=       0.000000 meV     Z=       1.000000 lam=       0.000000
     -------------------------------------------------------------------


     ik =      59 coord.:    0.1666667   0.5000000   0.6666667
     -------------------------------------------------------------------
     E(   2 )=  -8.2245 eV   Re[Sigma]=       0.000000 meV Im[Sigma]=       0.000000 meV     Z=       1.000000 lam=       0.000000
     E(   3 )=  -5.9487 eV   Re[Sigma]=       0.000000 meV Im[Sigma]=       0.000000 meV     Z=       1.000000 lam=       0.000000
     E(   4 )=  -4.7388 eV   Re[Sigma]=       0.000000 meV Im[Sigma]=       0.000000 meV     Z=       1.000000 lam=       0.000000
     -------------------------------------------------------------------


     ik =      60 coord.:    0.1666667   0.5000000   0.8333333
     -------------------------------------------------------------------
     E(   2 )=  -8.4662 eV   Re[Sigma]=       0.000000 meV Im[Sigma]=       0.000000 meV     Z=       1.000000 lam=       0.000000
     E(   3 )=  -5.7617 eV   Re[Sigma]=       0.000000 meV Im[Sigma]=       0.000000 meV     Z=       1.000000 lam=       0.000000
     E(   4 )=  -3.5655 eV   Re[Sigma]=       0.000000 meV Im[Sigma]=       0.000000 meV     Z=       1.000000 lam=       0.000000
     -------------------------------------------------------------------


     ik =      61 coord.:    0.1666667   0.6666667   0.0000000
     -------------------------------------------------------------------
     E(   2 )=  -8.1321 eV   Re[Sigma]=      13.742714 meV Im[Sigma]=      48.300079 meV     Z=       1.100259 lam=      -0.091123
     E(   3 )=  -3.8650 eV   Re[Sigma]=      11.621994 meV Im[Sigma]=      40.375892 meV     Z=       1.057386 lam=      -0.054272
     E(   4 )=  -1.8117 eV   Re[Sigma]=       4.522138 meV Im[Sigma]=      56.403565 meV     Z=       0.970797 lam=       0.030081
     -------------------------------------------------------------------


     ik =      62 coord.:    0.1666667   0.6666667   0.1666667
     -------------------------------------------------------------------
     E(   2 )=  -8.9978 eV   Re[Sigma]=       0.000000 meV Im[Sigma]=       0.000000 meV     Z=       1.000000 lam=       0.000000
     E(   3 )=  -3.3852 eV   Re[Sigma]=       0.000000 meV Im[Sigma]=       0.000000 meV     Z=       1.000000 lam=       0.000000
     E(   4 )=  -2.6317 eV   Re[Sigma]=       0.000000 meV Im[Sigma]=       0.000000 meV     Z=       1.000000 lam=       0.000000
     -------------------------------------------------------------------


     ik =      63 coord.:    0.1666667   0.6666667   0.3333333
     -------------------------------------------------------------------
     E(   2 )=  -8.4662 eV   Re[Sigma]=       0.000000 meV Im[Sigma]=       0.000000 meV     Z=       1.000000 lam=       0.000000
     E(   3 )=  -5.7617 eV   Re[Sigma]=       0.000000 meV Im[Sigma]=       0.000000 meV     Z=       1.000000 lam=       0.000000
     E(   4 )=  -3.5655 eV   Re[Sigma]=       0.000000 meV Im[Sigma]=       0.000000 meV     Z=       1.000000 lam=       0.000000
     -------------------------------------------------------------------


     ik =      64 coord.:    0.1666667   0.6666667   0.5000000
     -------------------------------------------------------------------
     E(   2 )=  -8.2245 eV   Re[Sigma]=       0.000000 meV Im[Sigma]=       0.000000 meV     Z=       1.000000 lam=       0.000000
     E(   3 )=  -5.9487 eV   Re[Sigma]=       0.000000 meV Im[Sigma]=       0.000000 meV     Z=       1.000000 lam=       0.000000
     E(   4 )=  -4.7388 eV   Re[Sigma]=       0.000000 meV Im[Sigma]=       0.000000 meV     Z=       1.000000 lam=       0.000000
     -------------------------------------------------------------------


     ik =      65 coord.:    0.1666667   0.6666667   0.6666667
     -------------------------------------------------------------------
     E(   2 )=  -7.9843 eV   Re[Sigma]=       0.000000 meV Im[Sigma]=       0.000000 meV     Z=       1.000000 lam=       0.000000
     E(   3 )=  -5.1567 eV   Re[Sigma]=       0.000000 meV Im[Sigma]=       0.000000 meV     Z=       1.000000 lam=       0.000000
     E(   4 )=  -3.9611 eV   Re[Sigma]=       0.000000 meV Im[Sigma]=       0.000000 meV     Z=       1.000000 lam=       0.000000
     -------------------------------------------------------------------


     ik =      66 coord.:    0.1666667   0.6666667   0.8333333
     -------------------------------------------------------------------
     E(   2 )=  -7.1569 eV   Re[Sigma]=       0.000000 meV Im[Sigma]=       0.000000 meV     Z=       1.000000 lam=       0.000000
     E(   3 )=  -4.9247 eV   Re[Sigma]=       0.000000 meV Im[Sigma]=       0.000000 meV     Z=       1.000000 lam=       0.000000
     E(   4 )=  -2.7572 eV   Re[Sigma]=       0.000000 meV Im[Sigma]=       0.000000 meV     Z=       1.000000 lam=       0.000000
     -------------------------------------------------------------------


     ik =      67 coord.:    0.1666667   0.8333333   0.0000000
     -------------------------------------------------------------------
     E(   2 )=  -4.5583 eV   Re[Sigma]=      -5.864874 meV Im[Sigma]=      23.213037 meV     Z=       1.003579 lam=      -0.003566
     E(   3 )=  -2.5632 eV   Re[Sigma]=      -3.682309 meV Im[Sigma]=      58.118144 meV     Z=       1.177767 lam=      -0.150936
     E(   4 )=  -0.8338 eV   Re[Sigma]=      32.936719 meV Im[Sigma]=     134.370052 meV     Z=       2.012542 lam=      -0.503116
     -------------------------------------------------------------------


     ik =      68 coord.:    0.1666667   0.8333333   0.1666667
     -------------------------------------------------------------------
     E(   2 )=  -5.6531 eV   Re[Sigma]=       0.000000 meV Im[Sigma]=       0.000000 meV     Z=       1.000000 lam=       0.000000
     E(   3 )=  -2.3031 eV   Re[Sigma]=       0.000000 meV Im[Sigma]=       0.000000 meV     Z=       1.000000 lam=       0.000000
     E(   4 )=  -2.0700 eV   Re[Sigma]=       0.000000 meV Im[Sigma]=       0.000000 meV     Z=       1.000000 lam=       0.000000
     -------------------------------------------------------------------


     ik =      69 coord.:    0.1666667   0.8333333   0.3333333
     -------------------------------------------------------------------
     E(   2 )=  -7.1569 eV   Re[Sigma]=       0.000000 meV Im[Sigma]=       0.000000 meV     Z=       1.000000 lam=       0.000000
     E(   3 )=  -4.9247 eV   Re[Sigma]=       0.000000 meV Im[Sigma]=       0.000000 meV     Z=       1.000000 lam=       0.000000
     E(   4 )=  -2.7572 eV   Re[Sigma]=       0.000000 meV Im[Sigma]=       0.000000 meV     Z=       1.000000 lam=       0.000000
     -------------------------------------------------------------------


     ik =      70 coord.:    0.1666667   0.8333333   0.5000000
     -------------------------------------------------------------------
     E(   2 )=  -8.4662 eV   Re[Sigma]=       0.000000 meV Im[Sigma]=       0.000000 meV     Z=       1.000000 lam=       0.000000
     E(   3 )=  -5.7617 eV   Re[Sigma]=       0.000000 meV Im[Sigma]=       0.000000 meV     Z=       1.000000 lam=       0.000000
     E(   4 )=  -3.5655 eV   Re[Sigma]=       0.000000 meV Im[Sigma]=       0.000000 meV     Z=       1.000000 lam=       0.000000
     -------------------------------------------------------------------


     ik =      71 coord.:    0.1666667   0.8333333   0.6666667
     -------------------------------------------------------------------
     E(   2 )=  -7.1569 eV   Re[Sigma]=       0.000000 meV Im[Sigma]=       0.000000 meV     Z=       1.000000 lam=       0.000000
     E(   3 )=  -4.9247 eV   Re[Sigma]=       0.000000 meV Im[Sigma]=       0.000000 meV     Z=       1.000000 lam=       0.000000
     E(   4 )=  -2.7572 eV   Re[Sigma]=       0.000000 meV Im[Sigma]=       0.000000 meV     Z=       1.000000 lam=       0.000000
     -------------------------------------------------------------------


     ik =      72 coord.:    0.1666667   0.8333333   0.8333333
     -------------------------------------------------------------------
     E(   2 )=  -5.6531 eV   Re[Sigma]=       0.000000 meV Im[Sigma]=       0.000000 meV     Z=       1.000000 lam=       0.000000
     E(   3 )=  -2.3031 eV   Re[Sigma]=       0.000000 meV Im[Sigma]=       0.000000 meV     Z=       1.000000 lam=       0.000000
     E(   4 )=  -2.0700 eV   Re[Sigma]=       0.000000 meV Im[Sigma]=       0.000000 meV     Z=       1.000000 lam=       0.000000
     -------------------------------------------------------------------


     ik =      73 coord.:    0.3333333   0.0000000   0.0000000
     -------------------------------------------------------------------
     E(   2 )=  -7.2165 eV   Re[Sigma]=       6.143203 meV Im[Sigma]=      10.679226 meV     Z=       1.000411 lam=      -0.000411
     E(   3 )=  -1.5211 eV   Re[Sigma]=      18.347471 meV Im[Sigma]=      85.678821 meV     Z=       1.127164 lam=      -0.112818
     E(   4 )=  -1.5211 eV   Re[Sigma]=      18.347471 meV Im[Sigma]=      85.678821 meV     Z=       1.127164 lam=      -0.112818
     -------------------------------------------------------------------


     ik =      74 coord.:    0.3333333   0.0000000   0.1666667
     -------------------------------------------------------------------
     E(   2 )=  -5.6531 eV   Re[Sigma]=       0.000000 meV Im[Sigma]=       0.000000 meV     Z=       1.000000 lam=       0.000000
     E(   3 )=  -2.3031 eV   Re[Sigma]=       0.000000 meV Im[Sigma]=       0.000000 meV     Z=       1.000000 lam=       0.000000
     E(   4 )=  -2.0700 eV   Re[Sigma]=       0.000000 meV Im[Sigma]=       0.000000 meV     Z=       1.000000 lam=       0.000000
     -------------------------------------------------------------------


     ik =      75 coord.:    0.3333333   0.0000000   0.3333333
     -------------------------------------------------------------------
     E(   2 )=  -6.0857 eV   Re[Sigma]=       0.000000 meV Im[Sigma]=       0.000000 meV     Z=       1.000000 lam=       0.000000
     E(   3 )=  -3.4997 eV   Re[Sigma]=       0.000000 meV Im[Sigma]=       0.000000 meV     Z=       1.000000 lam=       0.000000
     E(   4 )=  -3.4997 eV   Re[Sigma]=       0.000000 meV Im[Sigma]=       0.000000 meV     Z=       1.000000 lam=       0.000000
     -------------------------------------------------------------------


     ik =      76 coord.:    0.3333333   0.0000000   0.5000000
     -------------------------------------------------------------------
     E(   2 )=  -7.9843 eV   Re[Sigma]=       0.000000 meV Im[Sigma]=       0.000000 meV     Z=       1.000000 lam=       0.000000
     E(   3 )=  -5.1567 eV   Re[Sigma]=       0.000000 meV Im[Sigma]=       0.000000 meV     Z=       1.000000 lam=       0.000000
     E(   4 )=  -3.9611 eV   Re[Sigma]=       0.000000 meV Im[Sigma]=       0.000000 meV     Z=       1.000000 lam=       0.000000
     -------------------------------------------------------------------


     ik =      77 coord.:    0.3333333   0.0000000   0.6666667
     -------------------------------------------------------------------
     E(   2 )=  -8.0736 eV   Re[Sigma]=       0.000000 meV Im[Sigma]=       0.000000 meV     Z=       1.000000 lam=       0.000000
     E(   3 )=  -6.6678 eV   Re[Sigma]=       0.000000 meV Im[Sigma]=       0.000000 meV     Z=       1.000000 lam=       0.000000
     E(   4 )=  -3.0550 eV   Re[Sigma]=       0.000000 meV Im[Sigma]=       0.000000 meV     Z=       1.000000 lam=       0.000000
     -------------------------------------------------------------------


     ik =      78 coord.:    0.3333333   0.0000000   0.8333333
     -------------------------------------------------------------------
     E(   2 )=  -8.1321 eV   Re[Sigma]=      14.249244 meV Im[Sigma]=      50.429430 meV     Z=       1.109349 lam=      -0.098570
     E(   3 )=  -3.8650 eV   Re[Sigma]=      11.591288 meV Im[Sigma]=      40.081202 meV     Z=       1.054763 lam=      -0.051920
     E(   4 )=  -1.8117 eV   Re[Sigma]=       5.191428 meV Im[Sigma]=      57.649589 meV     Z=       0.967847 lam=       0.033221
     -------------------------------------------------------------------


     ik =      79 coord.:    0.3333333   0.1666667   0.0000000
     -------------------------------------------------------------------
     E(   2 )=  -5.6531 eV   Re[Sigma]=       0.000000 meV Im[Sigma]=       0.000000 meV     Z=       1.000000 lam=       0.000000
     E(   3 )=  -2.3031 eV   Re[Sigma]=       0.000000 meV Im[Sigma]=       0.000000 meV     Z=       1.000000 lam=       0.000000
     E(   4 )=  -2.0700 eV   Re[Sigma]=       0.000000 meV Im[Sigma]=       0.000000 meV     Z=       1.000000 lam=       0.000000
     -------------------------------------------------------------------


     ik =      80 coord.:    0.3333333   0.1666667   0.1666667
     -------------------------------------------------------------------
     E(   2 )=  -4.5583 eV   Re[Sigma]=      -5.624445 meV Im[Sigma]=      23.152410 meV     Z=       1.003661 lam=      -0.003647
     E(   3 )=  -2.5632 eV   Re[Sigma]=      -3.510228 meV Im[Sigma]=      57.394294 meV     Z=       1.174608 lam=      -0.148652
     E(   4 )=  -0.8338 eV   Re[Sigma]=      34.457495 meV Im[Sigma]=     136.133028 meV     Z=       2.064077 lam=      -0.515522
     -------------------------------------------------------------------


     ik =      81 coord.:    0.3333333   0.1666667   0.3333333
     -------------------------------------------------------------------
     E(   2 )=  -5.6531 eV   Re[Sigma]=       0.000000 meV Im[Sigma]=       0.000000 meV     Z=       1.000000 lam=       0.000000
     E(   3 )=  -2.3031 eV   Re[Sigma]=       0.000000 meV Im[Sigma]=       0.000000 meV     Z=       1.000000 lam=       0.000000
     E(   4 )=  -2.0700 eV   Re[Sigma]=       0.000000 meV Im[Sigma]=       0.000000 meV     Z=       1.000000 lam=       0.000000
     -------------------------------------------------------------------


     ik =      82 coord.:    0.3333333   0.1666667   0.5000000
     -------------------------------------------------------------------
     E(   2 )=  -7.1569 eV   Re[Sigma]=       0.000000 meV Im[Sigma]=       0.000000 meV     Z=       1.000000 lam=       0.000000
     E(   3 )=  -4.9247 eV   Re[Sigma]=       0.000000 meV Im[Sigma]=       0.000000 meV     Z=       1.000000 lam=       0.000000
     E(   4 )=  -2.7572 eV   Re[Sigma]=       0.000000 meV Im[Sigma]=       0.000000 meV     Z=       1.000000 lam=       0.000000
     -------------------------------------------------------------------


     ik =      83 coord.:    0.3333333   0.1666667   0.6666667
     -------------------------------------------------------------------
     E(   2 )=  -8.4662 eV   Re[Sigma]=       0.000000 meV Im[Sigma]=       0.000000 meV     Z=       1.000000 lam=       0.000000
     E(   3 )=  -5.7617 eV   Re[Sigma]=       0.000000 meV Im[Sigma]=       0.000000 meV     Z=       1.000000 lam=       0.000000
     E(   4 )=  -3.5655 eV   Re[Sigma]=       0.000000 meV Im[Sigma]=       0.000000 meV     Z=       1.000000 lam=       0.000000
     -------------------------------------------------------------------


     ik =      84 coord.:    0.3333333   0.1666667   0.8333333
     -------------------------------------------------------------------
     E(   2 )=  -7.1569 eV   Re[Sigma]=       0.000000 meV Im[Sigma]=       0.000000 meV     Z=       1.000000 lam=       0.000000
     E(   3 )=  -4.9247 eV   Re[Sigma]=       0.000000 meV Im[Sigma]=       0.000000 meV     Z=       1.000000 lam=       0.000000
     E(   4 )=  -2.7572 eV   Re[Sigma]=       0.000000 meV Im[Sigma]=       0.000000 meV     Z=       1.000000 lam=       0.000000
     -------------------------------------------------------------------


     ik =      85 coord.:    0.3333333   0.3333333   0.0000000
     -------------------------------------------------------------------
     E(   2 )=  -6.0857 eV   Re[Sigma]=       0.000000 meV Im[Sigma]=       0.000000 meV     Z=       1.000000 lam=       0.000000
     E(   3 )=  -3.4997 eV   Re[Sigma]=       0.000000 meV Im[Sigma]=       0.000000 meV     Z=       1.000000 lam=       0.000000
     E(   4 )=  -3.4997 eV   Re[Sigma]=       0.000000 meV Im[Sigma]=       0.000000 meV     Z=       1.000000 lam=       0.000000
     -------------------------------------------------------------------


     ik =      86 coord.:    0.3333333   0.3333333   0.1666667
     -------------------------------------------------------------------
     E(   2 )=  -5.6531 eV   Re[Sigma]=       0.000000 meV Im[Sigma]=       0.000000 meV     Z=       1.000000 lam=       0.000000
     E(   3 )=  -2.3031 eV   Re[Sigma]=       0.000000 meV Im[Sigma]=       0.000000 meV     Z=       1.000000 lam=       0.000000
     E(   4 )=  -2.0700 eV   Re[Sigma]=       0.000000 meV Im[Sigma]=       0.000000 meV     Z=       1.000000 lam=       0.000000
     -------------------------------------------------------------------


     ik =      87 coord.:    0.3333333   0.3333333   0.3333333
     -------------------------------------------------------------------
     E(   2 )=  -7.2165 eV   Re[Sigma]=       6.143263 meV Im[Sigma]=      10.679557 meV     Z=       1.000411 lam=      -0.000411
     E(   3 )=  -1.5211 eV   Re[Sigma]=      18.347313 meV Im[Sigma]=      85.678793 meV     Z=       1.127164 lam=      -0.112818
     E(   4 )=  -1.5211 eV   Re[Sigma]=      18.347313 meV Im[Sigma]=      85.678793 meV     Z=       1.127164 lam=      -0.112818
     -------------------------------------------------------------------


     ik =      88 coord.:    0.3333333   0.3333333   0.5000000
     -------------------------------------------------------------------
     E(   2 )=  -8.1321 eV   Re[Sigma]=      14.248929 meV Im[Sigma]=      50.429263 meV     Z=       1.109350 lam=      -0.098571
     E(   3 )=  -3.8650 eV   Re[Sigma]=      11.590813 meV Im[Sigma]=      40.080978 meV     Z=       1.054762 lam=      -0.051919
     E(   4 )=  -1.8117 eV   Re[Sigma]=       5.191316 meV Im[Sigma]=      57.649319 meV     Z=       0.967844 lam=       0.033225
     -------------------------------------------------------------------


     ik =      89 coord.:    0.3333333   0.3333333   0.6666667
     -------------------------------------------------------------------
     E(   2 )=  -8.0736 eV   Re[Sigma]=       0.000000 meV Im[Sigma]=       0.000000 meV     Z=       1.000000 lam=       0.000000
     E(   3 )=  -6.6678 eV   Re[Sigma]=       0.000000 meV Im[Sigma]=       0.000000 meV     Z=       1.000000 lam=       0.000000
     E(   4 )=  -3.0550 eV   Re[Sigma]=       0.000000 meV Im[Sigma]=       0.000000 meV     Z=       1.000000 lam=       0.000000
     -------------------------------------------------------------------


     ik =      90 coord.:    0.3333333   0.3333333   0.8333333
     -------------------------------------------------------------------
     E(   2 )=  -7.9843 eV   Re[Sigma]=       0.000000 meV Im[Sigma]=       0.000000 meV     Z=       1.000000 lam=       0.000000
     E(   3 )=  -5.1567 eV   Re[Sigma]=       0.000000 meV Im[Sigma]=       0.000000 meV     Z=       1.000000 lam=       0.000000
     E(   4 )=  -3.9611 eV   Re[Sigma]=       0.000000 meV Im[Sigma]=       0.000000 meV     Z=       1.000000 lam=       0.000000
     -------------------------------------------------------------------


     ik =      91 coord.:    0.3333333   0.5000000   0.0000000
     -------------------------------------------------------------------
     E(   2 )=  -7.9843 eV   Re[Sigma]=       0.000000 meV Im[Sigma]=       0.000000 meV     Z=       1.000000 lam=       0.000000
     E(   3 )=  -5.1567 eV   Re[Sigma]=       0.000000 meV Im[Sigma]=       0.000000 meV     Z=       1.000000 lam=       0.000000
     E(   4 )=  -3.9611 eV   Re[Sigma]=       0.000000 meV Im[Sigma]=       0.000000 meV     Z=       1.000000 lam=       0.000000
     -------------------------------------------------------------------


     ik =      92 coord.:    0.3333333   0.5000000   0.1666667
     -------------------------------------------------------------------
     E(   2 )=  -7.1569 eV   Re[Sigma]=       0.000000 meV Im[Sigma]=       0.000000 meV     Z=       1.000000 lam=       0.000000
     E(   3 )=  -4.9247 eV   Re[Sigma]=       0.000000 meV Im[Sigma]=       0.000000 meV     Z=       1.000000 lam=       0.000000
     E(   4 )=  -2.7572 eV   Re[Sigma]=       0.000000 meV Im[Sigma]=       0.000000 meV     Z=       1.000000 lam=       0.000000
     -------------------------------------------------------------------


     ik =      93 coord.:    0.3333333   0.5000000   0.3333333
     -------------------------------------------------------------------
     E(   2 )=  -8.1321 eV   Re[Sigma]=      14.199516 meV Im[Sigma]=      51.505079 meV     Z=       1.114705 lam=      -0.102902
     E(   3 )=  -3.8650 eV   Re[Sigma]=      11.483890 meV Im[Sigma]=      40.152902 meV     Z=       1.054414 lam=      -0.051606
     E(   4 )=  -1.8117 eV   Re[Sigma]=       4.839351 meV Im[Sigma]=      57.177212 meV     Z=       0.976734 lam=       0.023820
     -------------------------------------------------------------------


     ik =      94 coord.:    0.3333333   0.5000000   0.5000000
     -------------------------------------------------------------------
     E(   2 )=  -8.9978 eV   Re[Sigma]=       0.000000 meV Im[Sigma]=       0.000000 meV     Z=       1.000000 lam=       0.000000
     E(   3 )=  -3.3852 eV   Re[Sigma]=       0.000000 meV Im[Sigma]=       0.000000 meV     Z=       1.000000 lam=       0.000000
     E(   4 )=  -2.6317 eV   Re[Sigma]=       0.000000 meV Im[Sigma]=       0.000000 meV     Z=       1.000000 lam=       0.000000
     -------------------------------------------------------------------


     ik =      95 coord.:    0.3333333   0.5000000   0.6666667
     -------------------------------------------------------------------
     E(   2 )=  -8.4662 eV   Re[Sigma]=       0.000000 meV Im[Sigma]=       0.000000 meV     Z=       1.000000 lam=       0.000000
     E(   3 )=  -5.7617 eV   Re[Sigma]=       0.000000 meV Im[Sigma]=       0.000000 meV     Z=       1.000000 lam=       0.000000
     E(   4 )=  -3.5655 eV   Re[Sigma]=       0.000000 meV Im[Sigma]=       0.000000 meV     Z=       1.000000 lam=       0.000000
     -------------------------------------------------------------------


     ik =      96 coord.:    0.3333333   0.5000000   0.8333333
     -------------------------------------------------------------------
     E(   2 )=  -8.2245 eV   Re[Sigma]=       0.000000 meV Im[Sigma]=       0.000000 meV     Z=       1.000000 lam=       0.000000
     E(   3 )=  -5.9487 eV   Re[Sigma]=       0.000000 meV Im[Sigma]=       0.000000 meV     Z=       1.000000 lam=       0.000000
     E(   4 )=  -4.7388 eV   Re[Sigma]=       0.000000 meV Im[Sigma]=       0.000000 meV     Z=       1.000000 lam=       0.000000
     -------------------------------------------------------------------


     ik =      97 coord.:    0.3333333   0.6666667   0.0000000
     -------------------------------------------------------------------
     E(   2 )=  -8.0736 eV   Re[Sigma]=       0.000000 meV Im[Sigma]=       0.000000 meV     Z=       1.000000 lam=       0.000000
     E(   3 )=  -6.6678 eV   Re[Sigma]=       0.000000 meV Im[Sigma]=       0.000000 meV     Z=       1.000000 lam=       0.000000
     E(   4 )=  -3.0550 eV   Re[Sigma]=       0.000000 meV Im[Sigma]=       0.000000 meV     Z=       1.000000 lam=       0.000000
     -------------------------------------------------------------------


     ik =      98 coord.:    0.3333333   0.6666667   0.1666667
     -------------------------------------------------------------------
     E(   2 )=  -8.4662 eV   Re[Sigma]=       0.000000 meV Im[Sigma]=       0.000000 meV     Z=       1.000000 lam=       0.000000
     E(   3 )=  -5.7617 eV   Re[Sigma]=       0.000000 meV Im[Sigma]=       0.000000 meV     Z=       1.000000 lam=       0.000000
     E(   4 )=  -3.5655 eV   Re[Sigma]=       0.000000 meV Im[Sigma]=       0.000000 meV     Z=       1.000000 lam=       0.000000
     -------------------------------------------------------------------


     ik =      99 coord.:    0.3333333   0.6666667   0.3333333
     -------------------------------------------------------------------
     E(   2 )=  -8.0736 eV   Re[Sigma]=       0.000000 meV Im[Sigma]=       0.000000 meV     Z=       1.000000 lam=       0.000000
     E(   3 )=  -6.6678 eV   Re[Sigma]=       0.000000 meV Im[Sigma]=       0.000000 meV     Z=       1.000000 lam=       0.000000
     E(   4 )=  -3.0550 eV   Re[Sigma]=       0.000000 meV Im[Sigma]=       0.000000 meV     Z=       1.000000 lam=       0.000000
     -------------------------------------------------------------------


     ik =     100 coord.:    0.3333333   0.6666667   0.5000000
     -------------------------------------------------------------------
     E(   2 )=  -8.4662 eV   Re[Sigma]=       0.000000 meV Im[Sigma]=       0.000000 meV     Z=       1.000000 lam=       0.000000
     E(   3 )=  -5.7617 eV   Re[Sigma]=       0.000000 meV Im[Sigma]=       0.000000 meV     Z=       1.000000 lam=       0.000000
     E(   4 )=  -3.5655 eV   Re[Sigma]=       0.000000 meV Im[Sigma]=       0.000000 meV     Z=       1.000000 lam=       0.000000
     -------------------------------------------------------------------


     ik =     101 coord.:    0.3333333   0.6666667   0.6666667
     -------------------------------------------------------------------
     E(   2 )=  -8.0736 eV   Re[Sigma]=       0.000000 meV Im[Sigma]=       0.000000 meV     Z=       1.000000 lam=       0.000000
     E(   3 )=  -6.6678 eV   Re[Sigma]=       0.000000 meV Im[Sigma]=       0.000000 meV     Z=       1.000000 lam=       0.000000
     E(   4 )=  -3.0550 eV   Re[Sigma]=       0.000000 meV Im[Sigma]=       0.000000 meV     Z=       1.000000 lam=       0.000000
     -------------------------------------------------------------------


     ik =     102 coord.:    0.3333333   0.6666667   0.8333333
     -------------------------------------------------------------------
     E(   2 )=  -8.4662 eV   Re[Sigma]=       0.000000 meV Im[Sigma]=       0.000000 meV     Z=       1.000000 lam=       0.000000
     E(   3 )=  -5.7617 eV   Re[Sigma]=       0.000000 meV Im[Sigma]=       0.000000 meV     Z=       1.000000 lam=       0.000000
     E(   4 )=  -3.5655 eV   Re[Sigma]=       0.000000 meV Im[Sigma]=       0.000000 meV     Z=       1.000000 lam=       0.000000
     -------------------------------------------------------------------


     ik =     103 coord.:    0.3333333   0.8333333   0.0000000
     -------------------------------------------------------------------
     E(   2 )=  -8.1321 eV   Re[Sigma]=      14.199629 meV Im[Sigma]=      51.504596 meV     Z=       1.114702 lam=      -0.102899
     E(   3 )=  -3.8650 eV   Re[Sigma]=      11.484183 meV Im[Sigma]=      40.152797 meV     Z=       1.054414 lam=      -0.051606
     E(   4 )=  -1.8117 eV   Re[Sigma]=       4.839377 meV Im[Sigma]=      57.178836 meV     Z=       0.976745 lam=       0.023809
     -------------------------------------------------------------------


     ik =     104 coord.:    0.3333333   0.8333333   0.1666667
     -------------------------------------------------------------------
     E(   2 )=  -7.1569 eV   Re[Sigma]=       0.000000 meV Im[Sigma]=       0.000000 meV     Z=       1.000000 lam=       0.000000
     E(   3 )=  -4.9247 eV   Re[Sigma]=       0.000000 meV Im[Sigma]=       0.000000 meV     Z=       1.000000 lam=       0.000000
     E(   4 )=  -2.7572 eV   Re[Sigma]=       0.000000 meV Im[Sigma]=       0.000000 meV     Z=       1.000000 lam=       0.000000
     -------------------------------------------------------------------


     ik =     105 coord.:    0.3333333   0.8333333   0.3333333
     -------------------------------------------------------------------
     E(   2 )=  -7.9843 eV   Re[Sigma]=       0.000000 meV Im[Sigma]=       0.000000 meV     Z=       1.000000 lam=       0.000000
     E(   3 )=  -5.1567 eV   Re[Sigma]=       0.000000 meV Im[Sigma]=       0.000000 meV     Z=       1.000000 lam=       0.000000
     E(   4 )=  -3.9611 eV   Re[Sigma]=       0.000000 meV Im[Sigma]=       0.000000 meV     Z=       1.000000 lam=       0.000000
     -------------------------------------------------------------------


     ik =     106 coord.:    0.3333333   0.8333333   0.5000000
     -------------------------------------------------------------------
     E(   2 )=  -8.2245 eV   Re[Sigma]=       0.000000 meV Im[Sigma]=       0.000000 meV     Z=       1.000000 lam=       0.000000
     E(   3 )=  -5.9487 eV   Re[Sigma]=       0.000000 meV Im[Sigma]=       0.000000 meV     Z=       1.000000 lam=       0.000000
     E(   4 )=  -4.7388 eV   Re[Sigma]=       0.000000 meV Im[Sigma]=       0.000000 meV     Z=       1.000000 lam=       0.000000
     -------------------------------------------------------------------


     ik =     107 coord.:    0.3333333   0.8333333   0.6666667
     -------------------------------------------------------------------
     E(   2 )=  -8.4662 eV   Re[Sigma]=       0.000000 meV Im[Sigma]=       0.000000 meV     Z=       1.000000 lam=       0.000000
     E(   3 )=  -5.7617 eV   Re[Sigma]=       0.000000 meV Im[Sigma]=       0.000000 meV     Z=       1.000000 lam=       0.000000
     E(   4 )=  -3.5655 eV   Re[Sigma]=       0.000000 meV Im[Sigma]=       0.000000 meV     Z=       1.000000 lam=       0.000000
     -------------------------------------------------------------------


     ik =     108 coord.:    0.3333333   0.8333333   0.8333333
     -------------------------------------------------------------------
     E(   2 )=  -8.9978 eV   Re[Sigma]=       0.000000 meV Im[Sigma]=       0.000000 meV     Z=       1.000000 lam=       0.000000
     E(   3 )=  -3.3852 eV   Re[Sigma]=       0.000000 meV Im[Sigma]=       0.000000 meV     Z=       1.000000 lam=       0.000000
     E(   4 )=  -2.6317 eV   Re[Sigma]=       0.000000 meV Im[Sigma]=       0.000000 meV     Z=       1.000000 lam=       0.000000
     -------------------------------------------------------------------


     ik =     109 coord.:    0.5000000   0.0000000   0.0000000
     -------------------------------------------------------------------
     E(   2 )=  -9.7707 eV   Re[Sigma]=       0.000000 meV Im[Sigma]=       0.000000 meV     Z=       1.000000 lam=       0.000000
     E(   3 )=  -2.0290 eV   Re[Sigma]=       0.000000 meV Im[Sigma]=       0.000000 meV     Z=       1.000000 lam=       0.000000
     E(   4 )=  -2.0290 eV   Re[Sigma]=       0.000000 meV Im[Sigma]=       0.000000 meV     Z=       1.000000 lam=       0.000000
     -------------------------------------------------------------------


     ik =     110 coord.:    0.5000000   0.0000000   0.1666667
     -------------------------------------------------------------------
     E(   2 )=  -8.9978 eV   Re[Sigma]=       0.000000 meV Im[Sigma]=       0.000000 meV     Z=       1.000000 lam=       0.000000
     E(   3 )=  -3.3852 eV   Re[Sigma]=       0.000000 meV Im[Sigma]=       0.000000 meV     Z=       1.000000 lam=       0.000000
     E(   4 )=  -2.6317 eV   Re[Sigma]=       0.000000 meV Im[Sigma]=       0.000000 meV     Z=       1.000000 lam=       0.000000
     -------------------------------------------------------------------


     ik =     111 coord.:    0.5000000   0.0000000   0.3333333
     -------------------------------------------------------------------
     E(   2 )=  -7.9843 eV   Re[Sigma]=       0.000000 meV Im[Sigma]=       0.000000 meV     Z=       1.000000 lam=       0.000000
     E(   3 )=  -5.1567 eV   Re[Sigma]=       0.000000 meV Im[Sigma]=       0.000000 meV     Z=       1.000000 lam=       0.000000
     E(   4 )=  -3.9611 eV   Re[Sigma]=       0.000000 meV Im[Sigma]=       0.000000 meV     Z=       1.000000 lam=       0.000000
     -------------------------------------------------------------------


     ik =     112 coord.:    0.5000000   0.0000000   0.5000000
     -------------------------------------------------------------------
     E(   2 )=  -8.4912 eV   Re[Sigma]=       0.000000 meV Im[Sigma]=       0.000000 meV     Z=       1.000000 lam=       0.000000
     E(   3 )=  -4.6878 eV   Re[Sigma]=       0.000000 meV Im[Sigma]=       0.000000 meV     Z=       1.000000 lam=       0.000000
     E(   4 )=  -4.6878 eV   Re[Sigma]=       0.000000 meV Im[Sigma]=       0.000000 meV     Z=       1.000000 lam=       0.000000
     -------------------------------------------------------------------


     ik =     113 coord.:    0.5000000   0.0000000   0.6666667
     -------------------------------------------------------------------
     E(   2 )=  -7.9843 eV   Re[Sigma]=       0.000000 meV Im[Sigma]=       0.000000 meV     Z=       1.000000 lam=       0.000000
     E(   3 )=  -5.1567 eV   Re[Sigma]=       0.000000 meV Im[Sigma]=       0.000000 meV     Z=       1.000000 lam=       0.000000
     E(   4 )=  -3.9611 eV   Re[Sigma]=       0.000000 meV Im[Sigma]=       0.000000 meV     Z=       1.000000 lam=       0.000000
     -------------------------------------------------------------------


     ik =     114 coord.:    0.5000000   0.0000000   0.8333333
     -------------------------------------------------------------------
     E(   2 )=  -8.9978 eV   Re[Sigma]=       0.000000 meV Im[Sigma]=       0.000000 meV     Z=       1.000000 lam=       0.000000
     E(   3 )=  -3.3852 eV   Re[Sigma]=       0.000000 meV Im[Sigma]=       0.000000 meV     Z=       1.000000 lam=       0.000000
     E(   4 )=  -2.6317 eV   Re[Sigma]=       0.000000 meV Im[Sigma]=       0.000000 meV     Z=       1.000000 lam=       0.000000
     -------------------------------------------------------------------


     ik =     115 coord.:    0.5000000   0.1666667   0.0000000
     -------------------------------------------------------------------
     E(   2 )=  -8.9978 eV   Re[Sigma]=       0.000000 meV Im[Sigma]=       0.000000 meV     Z=       1.000000 lam=       0.000000
     E(   3 )=  -3.3852 eV   Re[Sigma]=       0.000000 meV Im[Sigma]=       0.000000 meV     Z=       1.000000 lam=       0.000000
     E(   4 )=  -2.6317 eV   Re[Sigma]=       0.000000 meV Im[Sigma]=       0.000000 meV     Z=       1.000000 lam=       0.000000
     -------------------------------------------------------------------


     ik =     116 coord.:    0.5000000   0.1666667   0.1666667
     -------------------------------------------------------------------
     E(   2 )=  -8.1321 eV   Re[Sigma]=      14.249226 meV Im[Sigma]=      50.429981 meV     Z=       1.109353 lam=      -0.098574
     E(   3 )=  -3.8650 eV   Re[Sigma]=      11.591450 meV Im[Sigma]=      40.080682 meV     Z=       1.054763 lam=      -0.051920
     E(   4 )=  -1.8117 eV   Re[Sigma]=       5.191325 meV Im[Sigma]=      57.649368 meV     Z=       0.967845 lam=       0.033223
     -------------------------------------------------------------------


     ik =     117 coord.:    0.5000000   0.1666667   0.3333333
     -------------------------------------------------------------------
     E(   2 )=  -7.1569 eV   Re[Sigma]=       0.000000 meV Im[Sigma]=       0.000000 meV     Z=       1.000000 lam=       0.000000
     E(   3 )=  -4.9247 eV   Re[Sigma]=       0.000000 meV Im[Sigma]=       0.000000 meV     Z=       1.000000 lam=       0.000000
     E(   4 )=  -2.7572 eV   Re[Sigma]=       0.000000 meV Im[Sigma]=       0.000000 meV     Z=       1.000000 lam=       0.000000
     -------------------------------------------------------------------


     ik =     118 coord.:    0.5000000   0.1666667   0.5000000
     -------------------------------------------------------------------
     E(   2 )=  -7.9843 eV   Re[Sigma]=       0.000000 meV Im[Sigma]=       0.000000 meV     Z=       1.000000 lam=       0.000000
     E(   3 )=  -5.1567 eV   Re[Sigma]=       0.000000 meV Im[Sigma]=       0.000000 meV     Z=       1.000000 lam=       0.000000
     E(   4 )=  -3.9611 eV   Re[Sigma]=       0.000000 meV Im[Sigma]=       0.000000 meV     Z=       1.000000 lam=       0.000000
     -------------------------------------------------------------------


     ik =     119 coord.:    0.5000000   0.1666667   0.6666667
     -------------------------------------------------------------------
     E(   2 )=  -8.2245 eV   Re[Sigma]=       0.000000 meV Im[Sigma]=       0.000000 meV     Z=       1.000000 lam=       0.000000
     E(   3 )=  -5.9487 eV   Re[Sigma]=       0.000000 meV Im[Sigma]=       0.000000 meV     Z=       1.000000 lam=       0.000000
[...]
      197        3     -5.7617      0.0000      0.0000      1.0000      0.0000
      198        3     -3.3852      0.0000      0.0000      1.0000      0.0000
      199        3     -3.3852      0.0000      0.0000      1.0000      0.0000
      200        3     -5.7617      0.0000      0.0000      1.0000      0.0000
      201        3     -5.9487      0.0000      0.0000      1.0000      0.0000
      202        3     -5.1567      0.0000      0.0000      1.0000      0.0000
      203        3     -4.9247      0.0000      0.0000      1.0000      0.0000
      204        3     -3.8650     11.6205     40.3762      1.0574     -0.0543
      205        3     -2.3031      0.0000      0.0000      1.0000      0.0000
      206        3     -4.9247      0.0000      0.0000      1.0000      0.0000
      207        3     -5.7617      0.0000      0.0000      1.0000      0.0000
      208        3     -4.9247      0.0000      0.0000      1.0000      0.0000
      209        3     -2.3031      0.0000      0.0000      1.0000      0.0000
      210        3     -2.5632     -3.6824     58.1268      1.1778     -0.1510
      211        3     -1.3719     42.8906     29.9783      0.9132      0.0950
      212        3     -2.3031      0.0000      0.0000      1.0000      0.0000
      213        3     -3.3852      0.0000      0.0000      1.0000      0.0000
      214        3     -3.8650     11.5901     40.0804      1.0548     -0.0519
      215        3     -2.5632     -3.5101     57.4038      1.1746     -0.1487
      216        3     -0.7227     67.8503     51.6388      0.9804      0.0200
  
        1        4     -0.4322     53.5952      4.2752      0.9301      0.0752
        2        4     -0.7227     67.8429     51.6372      0.9804      0.0199
        3        4     -1.5211     18.3475     85.6788      1.1272     -0.1128
        4        4     -2.0290      0.0000      0.0000      1.0000      0.0000
        5        4     -1.5211     18.3450     85.6824      1.1272     -0.1128
        6        4     -0.7227     67.8442     51.6364      0.9804      0.0199
        7        4     -0.7227     66.7647     53.4932      0.9900      0.0101
        8        4     -1.3719     42.8880     29.9779      0.9132      0.0950
        9        4     -2.0700      0.0000      0.0000      1.0000      0.0000
       10        4     -2.6317      0.0000      0.0000      1.0000      0.0000
       11        4     -1.8117      4.8400     57.1773      0.9767      0.0238
       12        4     -0.8338     32.9367    134.3690      2.0125     -0.5031
       13        4     -1.5211     17.8542     85.4759      1.1278     -0.1133
       14        4     -2.0700      0.0000      0.0000      1.0000      0.0000
       15        4     -3.4997      0.0000      0.0000      1.0000      0.0000
       16        4     -3.9611      0.0000      0.0000      1.0000      0.0000
       17        4     -3.0550      0.0000      0.0000      1.0000      0.0000
       18        4     -1.8117      4.5210     56.4046      0.9708      0.0301
       19        4     -2.0290      0.0000      0.0000      1.0000      0.0000
       20        4     -2.6317      0.0000      0.0000      1.0000      0.0000
       21        4     -3.9611      0.0000      0.0000      1.0000      0.0000
       22        4     -4.6878      0.0000      0.0000      1.0000      0.0000
       23        4     -3.9611      0.0000      0.0000      1.0000      0.0000
       24        4     -2.6317      0.0000      0.0000      1.0000      0.0000
       25        4     -1.5211     17.8516     85.4799      1.1278     -0.1133
       26        4     -1.8117      4.5221     56.4036      0.9708      0.0301
       27        4     -3.0550      0.0000      0.0000      1.0000      0.0000
       28        4     -3.9611      0.0000      0.0000      1.0000      0.0000
       29        4     -3.4997      0.0000      0.0000      1.0000      0.0000
       30        4     -2.0700      0.0000      0.0000      1.0000      0.0000
       31        4     -0.7227     66.7669     53.4920      0.9900      0.0101
       32        4     -0.8338     32.9367    134.3700      2.0125     -0.5031
       33        4     -1.8117      4.8394     57.1788      0.9767      0.0238
       34        4     -2.6317      0.0000      0.0000      1.0000      0.0000
       35        4     -2.0700      0.0000      0.0000      1.0000      0.0000
       36        4     -1.3719     42.8906     29.9783      0.9132      0.0950
       37        4     -0.7227     67.8429     51.6372      0.9804      0.0199
       38        4     -1.3719     42.8882     29.9779      0.9132      0.0950
       39        4     -2.0700      0.0000      0.0000      1.0000      0.0000
       40        4     -2.6317      0.0000      0.0000      1.0000      0.0000
       41        4     -1.8117      5.1919     57.6492      0.9678      0.0332
       42        4     -0.8338     34.4576    136.1329      2.0641     -0.5155
       43        4     -1.3719     42.8880     29.9779      0.9132      0.0950
       44        4     -0.7227     67.8421     51.6359      0.9804      0.0199
       45        4     -0.8338     34.4575    136.1330      2.0641     -0.5155
       46        4     -1.8117      5.1913     57.6494      0.9678      0.0332
       47        4     -2.6317      0.0000      0.0000      1.0000      0.0000
       48        4     -2.0700      0.0000      0.0000      1.0000      0.0000
       49        4     -2.0700      0.0000      0.0000      1.0000      0.0000
       50        4     -0.8338     32.9366    134.3691      2.0125     -0.5031
       51        4     -2.0700      0.0000      0.0000      1.0000      0.0000
       52        4     -2.7572      0.0000      0.0000      1.0000      0.0000
       53        4     -3.5655      0.0000      0.0000      1.0000      0.0000
       54        4     -2.7572      0.0000      0.0000      1.0000      0.0000
       55        4     -2.6317      0.0000      0.0000      1.0000      0.0000
       56        4     -1.8117      4.5210     56.4046      0.9708      0.0301
       57        4     -2.7572      0.0000      0.0000      1.0000      0.0000
       58        4     -3.9611      0.0000      0.0000      1.0000      0.0000
       59        4     -4.7388      0.0000      0.0000      1.0000      0.0000
       60        4     -3.5655      0.0000      0.0000      1.0000      0.0000
       61        4     -1.8117      4.5221     56.4036      0.9708      0.0301
       62        4     -2.6317      0.0000      0.0000      1.0000      0.0000
       63        4     -3.5655      0.0000      0.0000      1.0000      0.0000
       64        4     -4.7388      0.0000      0.0000      1.0000      0.0000
       65        4     -3.9611      0.0000      0.0000      1.0000      0.0000
       66        4     -2.7572      0.0000      0.0000      1.0000      0.0000
       67        4     -0.8338     32.9367    134.3701      2.0125     -0.5031
       68        4     -2.0700      0.0000      0.0000      1.0000      0.0000
       69        4     -2.7572      0.0000      0.0000      1.0000      0.0000
       70        4     -3.5655      0.0000      0.0000      1.0000      0.0000
       71        4     -2.7572      0.0000      0.0000      1.0000      0.0000
       72        4     -2.0700      0.0000      0.0000      1.0000      0.0000
       73        4     -1.5211     18.3475     85.6788      1.1272     -0.1128
       74        4     -2.0700      0.0000      0.0000      1.0000      0.0000
       75        4     -3.4997      0.0000      0.0000      1.0000      0.0000
       76        4     -3.9611      0.0000      0.0000      1.0000      0.0000
       77        4     -3.0550      0.0000      0.0000      1.0000      0.0000
       78        4     -1.8117      5.1914     57.6496      0.9678      0.0332
       79        4     -2.0700      0.0000      0.0000      1.0000      0.0000
       80        4     -0.8338     34.4575    136.1330      2.0641     -0.5155
       81        4     -2.0700      0.0000      0.0000      1.0000      0.0000
       82        4     -2.7572      0.0000      0.0000      1.0000      0.0000
       83        4     -3.5655      0.0000      0.0000      1.0000      0.0000
       84        4     -2.7572      0.0000      0.0000      1.0000      0.0000
       85        4     -3.4997      0.0000      0.0000      1.0000      0.0000
       86        4     -2.0700      0.0000      0.0000      1.0000      0.0000
       87        4     -1.5211     18.3473     85.6788      1.1272     -0.1128
       88        4     -1.8117      5.1913     57.6493      0.9678      0.0332
       89        4     -3.0550      0.0000      0.0000      1.0000      0.0000
       90        4     -3.9611      0.0000      0.0000      1.0000      0.0000
       91        4     -3.9611      0.0000      0.0000      1.0000      0.0000
       92        4     -2.7572      0.0000      0.0000      1.0000      0.0000
       93        4     -1.8117      4.8394     57.1772      0.9767      0.0238
       94        4     -2.6317      0.0000      0.0000      1.0000      0.0000
       95        4     -3.5655      0.0000      0.0000      1.0000      0.0000
       96        4     -4.7388      0.0000      0.0000      1.0000      0.0000
       97        4     -3.0550      0.0000      0.0000      1.0000      0.0000
       98        4     -3.5655      0.0000      0.0000      1.0000      0.0000
       99        4     -3.0550      0.0000      0.0000      1.0000      0.0000
      100        4     -3.5655      0.0000      0.0000      1.0000      0.0000
      101        4     -3.0550      0.0000      0.0000      1.0000      0.0000
      102        4     -3.5655      0.0000      0.0000      1.0000      0.0000
      103        4     -1.8117      4.8394     57.1788      0.9767      0.0238
      104        4     -2.7572      0.0000      0.0000      1.0000      0.0000
      105        4     -3.9611      0.0000      0.0000      1.0000      0.0000
      106        4     -4.7388      0.0000      0.0000      1.0000      0.0000
      107        4     -3.5655      0.0000      0.0000      1.0000      0.0000
      108        4     -2.6317      0.0000      0.0000      1.0000      0.0000
      109        4     -2.0290      0.0000      0.0000      1.0000      0.0000
      110        4     -2.6317      0.0000      0.0000      1.0000      0.0000
      111        4     -3.9611      0.0000      0.0000      1.0000      0.0000
      112        4     -4.6878      0.0000      0.0000      1.0000      0.0000
      113        4     -3.9611      0.0000      0.0000      1.0000      0.0000
      114        4     -2.6317      0.0000      0.0000      1.0000      0.0000
      115        4     -2.6317      0.0000      0.0000      1.0000      0.0000
      116        4     -1.8117      5.1913     57.6494      0.9678      0.0332
      117        4     -2.7572      0.0000      0.0000      1.0000      0.0000
      118        4     -3.9611      0.0000      0.0000      1.0000      0.0000
      119        4     -4.7388      0.0000      0.0000      1.0000      0.0000
      120        4     -3.5655      0.0000      0.0000      1.0000      0.0000
      121        4     -3.9611      0.0000      0.0000      1.0000      0.0000
      122        4     -2.7572      0.0000      0.0000      1.0000      0.0000
      123        4     -1.8117      5.1913     57.6493      0.9678      0.0332
      124        4     -2.6317      0.0000      0.0000      1.0000      0.0000
      125        4     -3.5655      0.0000      0.0000      1.0000      0.0000
      126        4     -4.7388      0.0000      0.0000      1.0000      0.0000
      127        4     -4.6878      0.0000      0.0000      1.0000      0.0000
      128        4     -3.9611      0.0000      0.0000      1.0000      0.0000
      129        4     -2.6317      0.0000      0.0000      1.0000      0.0000
      130        4     -2.0290      0.0000      0.0000      1.0000      0.0000
      131        4     -2.6317      0.0000      0.0000      1.0000      0.0000
      132        4     -3.9611      0.0000      0.0000      1.0000      0.0000
      133        4     -3.9611      0.0000      0.0000      1.0000      0.0000
      134        4     -4.7388      0.0000      0.0000      1.0000      0.0000
      135        4     -3.5655      0.0000      0.0000      1.0000      0.0000
      136        4     -2.6317      0.0000      0.0000      1.0000      0.0000
      137        4     -1.8117      5.1899     57.6496      0.9678      0.0332
      138        4     -2.7572      0.0000      0.0000      1.0000      0.0000
      139        4     -2.6317      0.0000      0.0000      1.0000      0.0000
      140        4     -3.5655      0.0000      0.0000      1.0000      0.0000
      141        4     -4.7388      0.0000      0.0000      1.0000      0.0000
      142        4     -3.9611      0.0000      0.0000      1.0000      0.0000
      143        4     -2.7572      0.0000      0.0000      1.0000      0.0000
      144        4     -1.8117      5.1905     57.6497      0.9678      0.0332
      145        4     -1.5211     18.3450     85.6824      1.1272     -0.1128
      146        4     -1.8117      5.1919     57.6492      0.9678      0.0332
      147        4     -3.0550      0.0000      0.0000      1.0000      0.0000
      148        4     -3.9611      0.0000      0.0000      1.0000      0.0000
      149        4     -3.4997      0.0000      0.0000      1.0000      0.0000
      150        4     -2.0700      0.0000      0.0000      1.0000      0.0000
      151        4     -1.8117      4.8400     57.1773      0.9767      0.0238
      152        4     -2.6317      0.0000      0.0000      1.0000      0.0000
      153        4     -3.5655      0.0000      0.0000      1.0000      0.0000
      154        4     -4.7388      0.0000      0.0000      1.0000      0.0000
      155        4     -3.9611      0.0000      0.0000      1.0000      0.0000
      156        4     -2.7572      0.0000      0.0000      1.0000      0.0000
      157        4     -3.0550      0.0000      0.0000      1.0000      0.0000
      158        4     -3.5655      0.0000      0.0000      1.0000      0.0000
      159        4     -3.0550      0.0000      0.0000      1.0000      0.0000
      160        4     -3.5655      0.0000      0.0000      1.0000      0.0000
      161        4     -3.0550      0.0000      0.0000      1.0000      0.0000
      162        4     -3.5655      0.0000      0.0000      1.0000      0.0000
      163        4     -3.9611      0.0000      0.0000      1.0000      0.0000
      164        4     -4.7388      0.0000      0.0000      1.0000      0.0000
      165        4     -3.5655      0.0000      0.0000      1.0000      0.0000
      166        4     -2.6317      0.0000      0.0000      1.0000      0.0000
      167        4     -1.8117      4.8379     57.1790      0.9767      0.0238
      168        4     -2.7572      0.0000      0.0000      1.0000      0.0000
      169        4     -3.4997      0.0000      0.0000      1.0000      0.0000
      170        4     -3.9611      0.0000      0.0000      1.0000      0.0000
      171        4     -3.0550      0.0000      0.0000      1.0000      0.0000
      172        4     -1.8117      5.1899     57.6497      0.9678      0.0332
      173        4     -1.5211     18.3432     85.6922      1.1272     -0.1128
      174        4     -2.0700      0.0000      0.0000      1.0000      0.0000
      175        4     -2.0700      0.0000      0.0000      1.0000      0.0000
      176        4     -2.7572      0.0000      0.0000      1.0000      0.0000
      177        4     -3.5655      0.0000      0.0000      1.0000      0.0000
      178        4     -2.7572      0.0000      0.0000      1.0000      0.0000
      179        4     -2.0700      0.0000      0.0000      1.0000      0.0000
      180        4     -0.8338     34.4586    136.1642      2.0646     -0.5157
      181        4     -0.7227     67.8442     51.6364      0.9804      0.0199
      182        4     -0.8338     34.4576    136.1329      2.0641     -0.5155
      183        4     -1.8117      5.1914     57.6496      0.9678      0.0332
      184        4     -2.6317      0.0000      0.0000      1.0000      0.0000
      185        4     -2.0700      0.0000      0.0000      1.0000      0.0000
      186        4     -1.3719     42.8905     29.9783      0.9132      0.0950
      187        4     -0.8338     32.9367    134.3690      2.0125     -0.5031
      188        4     -2.0700      0.0000      0.0000      1.0000      0.0000
      189        4     -2.7572      0.0000      0.0000      1.0000      0.0000
      190        4     -3.5655      0.0000      0.0000      1.0000      0.0000
      191        4     -2.7572      0.0000      0.0000      1.0000      0.0000
      192        4     -2.0700      0.0000      0.0000      1.0000      0.0000
      193        4     -1.8117      4.5210     56.4046      0.9708      0.0301
      194        4     -2.7572      0.0000      0.0000      1.0000      0.0000
      195        4     -3.9611      0.0000      0.0000      1.0000      0.0000
      196        4     -4.7388      0.0000      0.0000      1.0000      0.0000
      197        4     -3.5655      0.0000      0.0000      1.0000      0.0000
      198        4     -2.6317      0.0000      0.0000      1.0000      0.0000
      199        4     -2.6317      0.0000      0.0000      1.0000      0.0000
      200        4     -3.5655      0.0000      0.0000      1.0000      0.0000
      201        4     -4.7388      0.0000      0.0000      1.0000      0.0000
      202        4     -3.9611      0.0000      0.0000      1.0000      0.0000
      203        4     -2.7572      0.0000      0.0000      1.0000      0.0000
      204        4     -1.8117      4.5208     56.4037      0.9708      0.0301
      205        4     -2.0700      0.0000      0.0000      1.0000      0.0000
      206        4     -2.7572      0.0000      0.0000      1.0000      0.0000
      207        4     -3.5655      0.0000      0.0000      1.0000      0.0000
      208        4     -2.7572      0.0000      0.0000      1.0000      0.0000
      209        4     -2.0700      0.0000      0.0000      1.0000      0.0000
      210        4     -0.8338     32.9376    134.4017      2.0131     -0.5032
      211        4     -1.3719     42.8906     29.9783      0.9132      0.0950
      212        4     -2.0700      0.0000      0.0000      1.0000      0.0000
      213        4     -2.6317      0.0000      0.0000      1.0000      0.0000
      214        4     -1.8117      5.1905     57.6497      0.9678      0.0332
      215        4     -0.8338     34.4586    136.1642      2.0646     -0.5157
      216        4     -0.7227     67.8503     51.6388      0.9804      0.0200
  
     ===================================================================
     Memory usage:  VmHWM =        18Mb
                   VmPeak =       358Mb
     ===================================================================


     Unfolding on the coarse grid
     elphon_wrap  :      0.00s CPU      0.00s WALL (       1 calls)

     INITIALIZATION: 




     Electron-Phonon interpolation
     ephwann      :      1.10s CPU      1.22s WALL (       1 calls)
     ep-interp    :      1.06s CPU      1.17s WALL (     216 calls)

     DynW2B       :      0.03s CPU      0.03s WALL (     216 calls)
     HamW2B       :      0.40s CPU      0.45s WALL (   93960 calls)
     ephW2Bp      :      0.10s CPU      0.11s WALL (     216 calls)
     ephW2B       :      0.02s CPU      0.02s WALL (    3481 calls)


     Total program execution
     EPW          :      1.10s CPU      1.22s WALL

     ===============================================================================
     The functionality-dependent EPW.bib file was created with suggested citations. 
     Please consider citing the papers listed in EPW.bib.                           
     ===============================================================================
                                                                                    
