                                                                                      
                                       ``:oss/                                        
                           `.+s+.     .+ys--yh+     `./ss+.                           
                          -sh//yy+`   +yy   +yy    -+h+-oyy                           
                          -yh- .oyy/.-sh.   .syo-.:sy-  /yh                           
                 `.-.`    `yh+   -oyyyo.     `/syys:    oys      `.`                  
               `/+ssys+-` `sh+      `                   oys`   .:osyo`                
               -yh- ./syyooyo`                          .sys+/oyo--yh/                
               `yy+    .-:-.                             `-/+/:`  -sh-                
                /yh.                                              oys                 
          ``..---hho---------`   .---------..`      `.-----.`    -hd+---.             
       `./osmNMMMMMMMMMMMMMMMs. +NNMMMMMMMMNNmh+.   yNMMMMMNm-  oNMMMMMNmo++:`        
       +sy--/sdMMMhyyyyyyyNMMh- .oyNMMmyyyyyhNMMm+` -yMMMdyyo:` .oyyNMMNhs+syy`       
       -yy/   /MMM+.`-+/``mMMy-   `mMMh:`````.dMMN:` `MMMy-`-dhhy```mMMy:``+hs        
        -yy+` /MMMo:-mMM+`-oo/.    mMMh:     `dMMN/`  dMMm:`dMMMMy..MMMo-.+yo`        
         .sys`/MMMMNNMMMs-         mMMmyooooymMMNo:   oMMM/sMMMMMM++MMN//oh:          
          `sh+/MMMhyyMMMs- `-`     mMMMMMMMMMNmy+-`   -MMMhMMMsmMMmdMMd/yy+           
    `-/+++oyy-/MMM+.`/hh/.`mNm:`   mMMd+/////:-.`      NMMMMMd/:NMMMMMy:/yyo/:.`      
   +os+//:-..-oMMMo:--:::-/MMMo. .-mMMd+---`           hMMMMN+. oMMMMMo. `-+osyso:`   
   syo     `mNMMMMMNNNNNNNNMMMo.oNNMMMMMNNNN:`         +MMMMs:`  dMMMN/`     ``:syo   
   /yh`     :syyyyyyyyyyyyyyyy+.`+syyyyyyyyo:`         .oyys:`   .oyys:`        +yh   
   -yh-        ````````````````    `````````              ``        ``          oys   
   -+h/------------------------::::::::://////++++++++++++++++++++++///////::::/yd:   
   shdddddddddddddddddddddddddddddhhhhhhhhyyyyyssssssssssssssssyyyyyyyhhhhhhhddddh`   
                                                                                      
  S. Ponce, E. R. Margine, C. Verdi, and F. Giustino,                                 
                                                Comput. Phys. Commun. 209, 116 (2016) 
                                                                                      

     Program EPW v.5.3.1 starts on  6Feb2021 at  4:40:19 

     This program is part of the open-source Quantum ESPRESSO suite
     for quantum simulation of materials; please cite
         "P. Giannozzi et al., J. Phys.:Condens. Matter 21 395502 (2009);
         "P. Giannozzi et al., J. Phys.:Condens. Matter 29 465901 (2017);
         "P. Giannozzi et al., J. Chem. Phys. 152 154105 (2020);
          URL http://www.quantum-espresso.org", 
     in publications or presentations arising from this work. More details at
     http://www.quantum-espresso.org/quote

     Parallel version (MPI), running on     4 processors

     MPI processes distributed on     1 nodes
     K-points division:     npool     =       4
     Reading input from epw1.in

     Reading supplied temperature list.

     Reading xml data from directory:

     ./sic.save/
     file C.UPF: wavefunction(s)  3d renormalized

     IMPORTANT: XC functional enforced from input :
     Exchange-correlation= PZ
                           (   1   1   0   0   0   0   0)
     Any further DFT definition will be discarded
     Please, verify this is what you really want

 
     G-vector sticks info
     --------------------
     sticks:   dense  smooth     PW     G-vecs:    dense   smooth      PW
     Sum         187     187     73                 1687     1687     387
 
     Using Slab Decomposition
 
     Reading collected, re-writing distributed wavefunctions

     --                                                                         

     bravais-lattice index     =            2
     lattice parameter (a_0)   =       8.2370  a.u.
     unit-cell volume          =     139.7163 (a.u.)^3
     number of atoms/cell      =            2
     number of atomic types    =            2
     kinetic-energy cut-off    =      20.0000  Ry
     charge density cut-off    =      80.0000  Ry
     Exchange-correlation= PZ
                           (   1   1   0   0   0   0   0)


     celldm(1)=    8.23700  celldm(2)=    0.00000  celldm(3)=    0.00000
     celldm(4)=    0.00000  celldm(5)=    0.00000  celldm(6)=    0.00000

     crystal axes: (cart. coord. in units of a_0)
               a(1) = ( -0.5000  0.0000  0.5000 )  
               a(2) = (  0.0000  0.5000  0.5000 )  
               a(3) = ( -0.5000  0.5000  0.0000 )  

     reciprocal axes: (cart. coord. in units 2 pi/a_0)
               b(1) = ( -1.0000 -1.0000  1.0000 )  
               b(2) = (  1.0000  1.0000  1.0000 )  
               b(3) = ( -1.0000  1.0000 -1.0000 )  


     Atoms inside the unit cell: 

   Cartesian axes

     site n.  atom      mass           positions (a_0 units)
        1        Si  28.0855   tau( 1) = (    0.00000    0.00000    0.00000  )
        2        C   12.0108   tau( 2) = (    0.25000    0.25000    0.25000  )
 
     25 Sym.Ops. (with q -> -q+G )


     G cutoff =  137.4891  (   1687 G-vectors)     FFT grid: ( 18, 18, 18)
     number of k points=   27
                       cart. coord. in units 2pi/a_0
        k(    1) = (   0.0000000   0.0000000   0.0000000), wk =   0.0740741
        k(    2) = (  -0.3333333   0.3333333  -0.3333333), wk =   0.0740741
        k(    3) = (  -0.6666667   0.6666667  -0.6666667), wk =   0.0740741
        k(    4) = (   0.3333333   0.3333333   0.3333333), wk =   0.0740741
        k(    5) = (   0.0000000   0.6666667   0.0000000), wk =   0.0740741
        k(    6) = (  -0.3333333   1.0000000  -0.3333333), wk =   0.0740741
        k(    7) = (   0.6666667   0.6666667   0.6666667), wk =   0.0740741
        k(    8) = (   0.3333333   1.0000000   0.3333333), wk =   0.0740741
        k(    9) = (   0.0000000   1.3333333   0.0000000), wk =   0.0740741
        k(   10) = (  -0.3333333  -0.3333333   0.3333333), wk =   0.0740741
        k(   11) = (  -0.6666667   0.0000000   0.0000000), wk =   0.0740741
        k(   12) = (  -1.0000000   0.3333333  -0.3333333), wk =   0.0740741
        k(   13) = (   0.0000000   0.0000000   0.6666667), wk =   0.0740741
        k(   14) = (  -0.3333333   0.3333333   0.3333333), wk =   0.0740741
        k(   15) = (  -0.6666667   0.6666667  -0.0000000), wk =   0.0740741
        k(   16) = (   0.3333333   0.3333333   1.0000000), wk =   0.0740741
        k(   17) = (   0.0000000   0.6666667   0.6666667), wk =   0.0740741
        k(   18) = (  -0.3333333   1.0000000   0.3333333), wk =   0.0740741
        k(   19) = (  -0.6666667  -0.6666667   0.6666667), wk =   0.0740741
        k(   20) = (  -1.0000000  -0.3333333   0.3333333), wk =   0.0740741
        k(   21) = (  -1.3333333   0.0000000   0.0000000), wk =   0.0740741
        k(   22) = (  -0.3333333  -0.3333333   1.0000000), wk =   0.0740741
        k(   23) = (  -0.6666667  -0.0000000   0.6666667), wk =   0.0740741
        k(   24) = (  -1.0000000   0.3333333   0.3333333), wk =   0.0740741
        k(   25) = (   0.0000000   0.0000000   1.3333333), wk =   0.0740741
        k(   26) = (  -0.3333333   0.3333333   1.0000000), wk =   0.0740741
        k(   27) = (  -0.6666667   0.6666667   0.6666667), wk =   0.0740741

     PseudoPot. # 1 for Si read from file:
     ../../pseudo/Si.pz-vbc.UPF
     MD5 check sum: 9f25e6ff280f3123e9b3a84715b2e9c9
     Pseudo is Norm-conserving, Zval =  4.0
     Generated by new atomic code, or converted to UPF format
     Using radial grid of  431 points,  2 beta functions with: 
                l(1) =   0
                l(2) =   1

     PseudoPot. # 2 for C  read from file:
     ../../pseudo/C.UPF
     MD5 check sum: 4781e8ce5ee01a432381f51d0ea25c53
     Pseudo is Norm-conserving, Zval =  4.0
     Generated by new atomic code, or converted to UPF format
     Using radial grid of  461 points,  2 beta functions with: 
                l(1) =   0
                l(2) =   1
     EPW          :      0.05s CPU      0.06s WALL

     EPW          :      0.05s CPU      0.07s WALL

     -------------------------------------------------------------------
     Wannierization on  3 x  3 x  3 electronic grid
     -------------------------------------------------------------------
 
     Spin CASE ( default = unpolarized )
 
     Initializing Wannier90
 
 
     Initial Wannier projections
 
     (   0.00000   0.00000   0.00000) :  l =  -3 mr =   1
     (   0.00000   0.00000   0.00000) :  l =  -3 mr =   2
     (   0.00000   0.00000   0.00000) :  l =  -3 mr =   3
     (   0.00000   0.00000   0.00000) :  l =  -3 mr =   4

      - Number of bands is (  8)
      - Number of total bands is (  8)
      - Number of excluded bands is (  0)
      - Number of wannier functions is (  4)
      - All guiding functions are given 
 
  Reading data about k-point neighbours 
 
      - All neighbours are found 
 
     AMN
      k points =    27 in    4 pools
            1 of    7 on ionode
            2 of    7 on ionode
            3 of    7 on ionode
            4 of    7 on ionode
            5 of    7 on ionode
            6 of    7 on ionode
            7 of    7 on ionode
 
     AMN calculated
 
     MMN
      k points =    27 in    4 pools
            1 of    7 on ionode
            2 of    7 on ionode
            3 of    7 on ionode
            4 of    7 on ionode
            5 of    7 on ionode
            6 of    7 on ionode
            7 of    7 on ionode
     MMN calculated
 
     Running Wannier90
 
     Wannier Function centers (cartesian, alat) and spreads (ang):
 
     (   0.16068   0.16068   0.16068) :   0.89056
     (   0.16068  -0.16068  -0.16068) :   0.89056
     (  -0.16068   0.16068  -0.16068) :   0.89056
     (  -0.16068  -0.16068   0.16068) :   0.89056
 
     -------------------------------------------------------------------
     WANNIER      :      0.33s CPU      0.34s WALL (       1 calls)
     -------------------------------------------------------------------

     Dipole matrix elements calculated
 

     Calculating kgmap

     Progress kgmap: ########################################
     kmaps        :      0.01s CPU      0.01s WALL (       1 calls)
     Symmetries of Bravais lattice:  48
     Symmetries of crystal:          24


     ===================================================================
     irreducible q point #    1
     ===================================================================

     Symmetries of small group of q: 24
          in addition sym. q -> -q+G:
 
     Number of q in the star =    1
     List of q in the star:
          1   0.000000000   0.000000000   0.000000000
     Imposing acoustic sum rule on the dynamical matrix
     Read dielectric tensor and effective charges
 
        q(    1 ) = (   0.0000000   0.0000000   0.0000000 )


     ===================================================================
     irreducible q point #    2
     ===================================================================

     Symmetries of small group of q:  6
 
     Number of q in the star =    4
     List of q in the star:
          1  -0.333333333   0.333333333  -0.333333333
          2   0.333333333   0.333333333   0.333333333
          3   0.333333333  -0.333333333  -0.333333333
          4  -0.333333333  -0.333333333   0.333333333
     In addition there is the -q list: 
          1   0.333333333  -0.333333333   0.333333333
          2  -0.333333333  -0.333333333  -0.333333333
          3  -0.333333333   0.333333333   0.333333333
          4   0.333333333   0.333333333  -0.333333333
 
        q(    2 ) = (  -0.3333333   0.3333333  -0.3333333 )
 
        q(    3 ) = (   0.3333333  -0.3333333   0.3333333 )
        q(    4 ) = (   0.3333333   0.3333333   0.3333333 )
        q(    5 ) = (  -0.3333333  -0.3333333  -0.3333333 )
        q(    6 ) = (   0.3333333  -0.3333333  -0.3333333 )
        q(    7 ) = (  -0.3333333   0.3333333   0.3333333 )
        q(    8 ) = (  -0.3333333  -0.3333333   0.3333333 )
        q(    9 ) = (   0.3333333   0.3333333  -0.3333333 )


     ===================================================================
     irreducible q point #    3
     ===================================================================

     Symmetries of small group of q:  4
 
     Number of q in the star =    6
     List of q in the star:
          1   0.000000000   0.666666667   0.000000000
          2   0.000000000   0.000000000  -0.666666667
          3  -0.666666667   0.000000000   0.000000000
          4   0.666666667   0.000000000   0.000000000
          5   0.000000000  -0.666666667   0.000000000
          6   0.000000000   0.000000000   0.666666667
 
        q(   10 ) = (   0.0000000   0.6666667   0.0000000 )
        q(   11 ) = (   0.0000000   0.0000000  -0.6666667 )
        q(   12 ) = (  -0.6666667   0.0000000   0.0000000 )
        q(   13 ) = (   0.6666667   0.0000000   0.0000000 )
        q(   14 ) = (   0.0000000  -0.6666667   0.0000000 )
        q(   15 ) = (   0.0000000   0.0000000   0.6666667 )


     ===================================================================
     irreducible q point #    4
     ===================================================================

     Symmetries of small group of q:  2
 
     Number of q in the star =   12
     List of q in the star:
          1   0.666666667   0.000000000   0.666666667
          2  -0.666666667   0.000000000  -0.666666667
          3   0.666666667  -0.666666667   0.000000000
          4   0.000000000  -0.666666667   0.666666667
          5   0.000000000  -0.666666667  -0.666666667
          6  -0.666666667   0.000000000   0.666666667
          7   0.666666667   0.666666667   0.000000000
          8  -0.666666667  -0.666666667   0.000000000
          9  -0.666666667   0.666666667   0.000000000
         10   0.666666667   0.000000000  -0.666666667
         11   0.000000000   0.666666667   0.666666667
         12   0.000000000   0.666666667  -0.666666667
 
        q(   16 ) = (   0.6666667   0.0000000   0.6666667 )
        q(   17 ) = (  -0.6666667   0.0000000  -0.6666667 )
        q(   18 ) = (   0.6666667  -0.6666667   0.0000000 )
        q(   19 ) = (   0.0000000  -0.6666667   0.6666667 )
        q(   20 ) = (  -0.0000000  -0.6666667  -0.6666667 )
        q(   21 ) = (  -0.6666667   0.0000000   0.6666667 )
        q(   22 ) = (   0.6666667   0.6666667   0.0000000 )
        q(   23 ) = (  -0.6666667  -0.6666667   0.0000000 )
        q(   24 ) = (  -0.6666667   0.6666667   0.0000000 )
        q(   25 ) = (   0.6666667   0.0000000  -0.6666667 )
        q(   26 ) = (   0.0000000   0.6666667   0.6666667 )
        q(   27 ) = (   0.0000000   0.6666667  -0.6666667 )

     Writing epmatq on .epb files


     The .epb files have been correctly written


     Band disentanglement is used: nbndsub =    4

     Computes the analytic long-range interaction for polar materials [lpolar]
      
     Use zone-centred Wigner-Seitz cells 
     Number of WS vectors for electrons       43
     Number of WS vectors for phonons       43
     Number of WS vectors for electron-phonon       43
     Maximum number of cores for efficient parallelization      258
     Results may improve by using use_ws == .TRUE. 
 
     Bloch2wane:          1 /         27
     Bloch2wane:          2 /         27
     Bloch2wane:          3 /         27
     Bloch2wane:          4 /         27
     Bloch2wane:          5 /         27
     Bloch2wane:          6 /         27
     Bloch2wane:          7 /         27
     Bloch2wane:          8 /         27
     Bloch2wane:          9 /         27
     Bloch2wane:         10 /         27
     Bloch2wane:         11 /         27
     Bloch2wane:         12 /         27
     Bloch2wane:         13 /         27
     Bloch2wane:         14 /         27
     Bloch2wane:         15 /         27
     Bloch2wane:         16 /         27
     Bloch2wane:         17 /         27
     Bloch2wane:         18 /         27
     Bloch2wane:         19 /         27
     Bloch2wane:         20 /         27
     Bloch2wane:         21 /         27
     Bloch2wane:         22 /         27
     Bloch2wane:         23 /         27
     Bloch2wane:         24 /         27
     Bloch2wane:         25 /         27
     Bloch2wane:         26 /         27
     Bloch2wane:         27 /         27
 
     Bloch2wanp:          1 /         11
     Bloch2wanp:          2 /         11
     Bloch2wanp:          3 /         11
     Bloch2wanp:          4 /         11
     Bloch2wanp:          5 /         11
     Bloch2wanp:          6 /         11
     Bloch2wanp:          7 /         11
     Bloch2wanp:          8 /         11
     Bloch2wanp:          9 /         11
     Bloch2wanp:         10 /         11
     Bloch2wanp:         11 /         11

     Writing Hamiltonian, Dynamical matrix and EP vertex in Wann rep to file

     ===================================================================
     Memory usage:  VmHWM =        88Mb
                   VmPeak =      2616Mb
     ===================================================================
     
     Using uniform q-mesh:    6   6   6
     Size of q point mesh for interpolation:        216
     Using uniform k-mesh:    6   6   6
     Size of k point mesh for interpolation:        432
     Max number of k points per pool:              108

     Fermi energy coarse grid =  10.054876 eV

     Fermi energy is calculated from the fine k-mesh: Ef =  10.487109 eV

     Warning: check if difference with Fermi level fine grid makes sense

     ===================================================================

              ibndmin =     2  ebndmin =     8.675 eV
              ibndmax =     4  ebndmax =    10.055 eV


     Number of ep-matrix elements per pool :         2916 ~=   22.78 Kb (@ 8 bytes/ DP)
     Number selected, total            100            100
     Number selected, total            200            200
     We only need to compute      216 q-points
      

     ===================================================================
     Electron (Imaginary) Self-Energy in the Migdal Approximation
     ===================================================================


     Fermi Surface thickness =   2.000000 eV

     Golden Rule strictly enforced with T =   0.025852 eV
     Gaussian Broadening:   0.100000 eV, ngauss=   1
 
     Progression iq (fine) =        100/       216
     Progression iq (fine) =        200/       216
     Average over degenerate eigenstates is performed
     Temperature:  300.000K
     WARNING: only the eigenstates within the Fermi window are meaningful

     ik =       1 coord.:    0.0000000   0.0000000   0.0000000
     -------------------------------------------------------------------
     E(   2 )=  -0.4322 eV   Re[Sigma]=      54.502114 meV Im[Sigma]=       4.277628 meV     Z=       0.928552 lam=       0.076945
     E(   3 )=  -0.4322 eV   Re[Sigma]=      54.502114 meV Im[Sigma]=       4.277628 meV     Z=       0.928552 lam=       0.076945
     E(   4 )=  -0.4322 eV   Re[Sigma]=      54.502114 meV Im[Sigma]=       4.277628 meV     Z=       0.928552 lam=       0.076945
     -------------------------------------------------------------------


     ik =       2 coord.:    0.0000000   0.0000000   0.1666667
     -------------------------------------------------------------------
     E(   2 )=  -2.4953 eV   Re[Sigma]=      -2.653606 meV Im[Sigma]=      21.506949 meV     Z=       0.938777 lam=       0.065215
     E(   3 )=  -0.7227 eV   Re[Sigma]=      68.473132 meV Im[Sigma]=      52.109000 meV     Z=       0.979103 lam=       0.021343
     E(   4 )=  -0.7227 eV   Re[Sigma]=      68.473132 meV Im[Sigma]=      52.109000 meV     Z=       0.979103 lam=       0.021343
     -------------------------------------------------------------------


     ik =       3 coord.:    0.0000000   0.0000000   0.3333333
     -------------------------------------------------------------------
     E(   2 )=  -7.2166 eV   Re[Sigma]=       6.188709 meV Im[Sigma]=      10.691943 meV     Z=       1.000332 lam=      -0.000332
     E(   3 )=  -1.5211 eV   Re[Sigma]=      18.459123 meV Im[Sigma]=      85.866251 meV     Z=       1.127073 lam=      -0.112746
     E(   4 )=  -1.5211 eV   Re[Sigma]=      18.459123 meV Im[Sigma]=      85.866251 meV     Z=       1.127073 lam=      -0.112746
     -------------------------------------------------------------------


     ik =       4 coord.:    0.0000000   0.0000000   0.5000000
     -------------------------------------------------------------------
     E(   2 )=  -9.7707 eV   Re[Sigma]=       0.000000 meV Im[Sigma]=       0.000000 meV     Z=       1.000000 lam=       0.000000
     E(   3 )=  -2.0290 eV   Re[Sigma]=       0.000000 meV Im[Sigma]=       0.000000 meV     Z=       1.000000 lam=       0.000000
     E(   4 )=  -2.0290 eV   Re[Sigma]=       0.000000 meV Im[Sigma]=       0.000000 meV     Z=       1.000000 lam=       0.000000
     -------------------------------------------------------------------


     ik =       5 coord.:    0.0000000   0.0000000   0.6666667
     -------------------------------------------------------------------
     E(   2 )=  -7.2166 eV   Re[Sigma]=       6.188858 meV Im[Sigma]=      10.692129 meV     Z=       1.000331 lam=      -0.000331
     E(   3 )=  -1.5211 eV   Re[Sigma]=      18.458616 meV Im[Sigma]=      85.864782 meV     Z=       1.127071 lam=      -0.112744
     E(   4 )=  -1.5211 eV   Re[Sigma]=      18.458616 meV Im[Sigma]=      85.864782 meV     Z=       1.127071 lam=      -0.112744
     -------------------------------------------------------------------


     ik =       6 coord.:    0.0000000   0.0000000   0.8333333
     -------------------------------------------------------------------
     E(   2 )=  -2.4953 eV   Re[Sigma]=      -2.653664 meV Im[Sigma]=      21.507063 meV     Z=       0.938776 lam=       0.065216
     E(   3 )=  -0.7227 eV   Re[Sigma]=      68.472581 meV Im[Sigma]=      52.108821 meV     Z=       0.979104 lam=       0.021342
     E(   4 )=  -0.7227 eV   Re[Sigma]=      68.472581 meV Im[Sigma]=      52.108821 meV     Z=       0.979104 lam=       0.021342
     -------------------------------------------------------------------


     ik =       7 coord.:    0.0000000   0.1666667   0.0000000
     -------------------------------------------------------------------
     E(   2 )=  -2.4953 eV   Re[Sigma]=      -3.977078 meV Im[Sigma]=      20.576034 meV     Z=       0.936006 lam=       0.068369
     E(   3 )=  -0.7227 eV   Re[Sigma]=      67.327893 meV Im[Sigma]=      53.900268 meV     Z=       0.988525 lam=       0.011609
     E(   4 )=  -0.7227 eV   Re[Sigma]=      67.327893 meV Im[Sigma]=      53.900268 meV     Z=       0.988525 lam=       0.011609
     -------------------------------------------------------------------


     ik =       8 coord.:    0.0000000   0.1666667   0.1666667
     -------------------------------------------------------------------
     E(   2 )=  -2.0553 eV   Re[Sigma]=     -36.158787 meV Im[Sigma]=      23.369239 meV     Z=       0.874332 lam=       0.143730
     E(   3 )=  -1.3719 eV   Re[Sigma]=      42.815569 meV Im[Sigma]=      30.075949 meV     Z=       0.912624 lam=       0.095742
     E(   4 )=  -1.3719 eV   Re[Sigma]=      42.815569 meV Im[Sigma]=      30.075949 meV     Z=       0.912624 lam=       0.095742
     -------------------------------------------------------------------


     ik =       9 coord.:    0.0000000   0.1666667   0.3333333
     -------------------------------------------------------------------
     E(   2 )=  -5.6531 eV   Re[Sigma]=       0.000000 meV Im[Sigma]=       0.000000 meV     Z=       1.000000 lam=       0.000000
     E(   3 )=  -2.3031 eV   Re[Sigma]=       0.000000 meV Im[Sigma]=       0.000000 meV     Z=       1.000000 lam=       0.000000
     E(   4 )=  -2.0700 eV   Re[Sigma]=       0.000000 meV Im[Sigma]=       0.000000 meV     Z=       1.000000 lam=       0.000000
     -------------------------------------------------------------------


     ik =      10 coord.:    0.0000000   0.1666667   0.5000000
     -------------------------------------------------------------------
     E(   2 )=  -8.9978 eV   Re[Sigma]=       0.000000 meV Im[Sigma]=       0.000000 meV     Z=       1.000000 lam=       0.000000
     E(   3 )=  -3.3853 eV   Re[Sigma]=       0.000000 meV Im[Sigma]=       0.000000 meV     Z=       1.000000 lam=       0.000000
     E(   4 )=  -2.6317 eV   Re[Sigma]=       0.000000 meV Im[Sigma]=       0.000000 meV     Z=       1.000000 lam=       0.000000
     -------------------------------------------------------------------


     ik =      11 coord.:    0.0000000   0.1666667   0.6666667
     -------------------------------------------------------------------
     E(   2 )=  -8.1322 eV   Re[Sigma]=      14.202913 meV Im[Sigma]=      51.541361 meV     Z=       1.114434 lam=      -0.102683
     E(   3 )=  -3.8650 eV   Re[Sigma]=      11.537160 meV Im[Sigma]=      40.275483 meV     Z=       1.054513 lam=      -0.051695
     E(   4 )=  -1.8117 eV   Re[Sigma]=       4.728629 meV Im[Sigma]=      57.351490 meV     Z=       0.976263 lam=       0.024314
     -------------------------------------------------------------------


     ik =      12 coord.:    0.0000000   0.1666667   0.8333333
     -------------------------------------------------------------------
     E(   2 )=  -4.5583 eV   Re[Sigma]=      -5.939018 meV Im[Sigma]=      23.284427 meV     Z=       1.003436 lam=      -0.003424
     E(   3 )=  -2.5632 eV   Re[Sigma]=      -3.726026 meV Im[Sigma]=      58.632897 meV     Z=       1.180006 lam=      -0.152547
     E(   4 )=  -0.8338 eV   Re[Sigma]=      33.090366 meV Im[Sigma]=     135.987160 meV     Z=       2.045972 lam=      -0.511235
     -------------------------------------------------------------------


     ik =      13 coord.:    0.0000000   0.3333333   0.0000000
     -------------------------------------------------------------------
     E(   2 )=  -7.2166 eV   Re[Sigma]=       5.960836 meV Im[Sigma]=      10.691943 meV     Z=       1.000494 lam=      -0.000494
     E(   3 )=  -1.5211 eV   Re[Sigma]=      17.935364 meV Im[Sigma]=      85.716414 meV     Z=       1.128046 lam=      -0.113511
     E(   4 )=  -1.5211 eV   Re[Sigma]=      17.935364 meV Im[Sigma]=      85.716414 meV     Z=       1.128046 lam=      -0.113511
     -------------------------------------------------------------------


     ik =      14 coord.:    0.0000000   0.3333333   0.1666667
     -------------------------------------------------------------------
     E(   2 )=  -5.6531 eV   Re[Sigma]=       0.000000 meV Im[Sigma]=       0.000000 meV     Z=       1.000000 lam=       0.000000
     E(   3 )=  -2.3031 eV   Re[Sigma]=       0.000000 meV Im[Sigma]=       0.000000 meV     Z=       1.000000 lam=       0.000000
     E(   4 )=  -2.0700 eV   Re[Sigma]=       0.000000 meV Im[Sigma]=       0.000000 meV     Z=       1.000000 lam=       0.000000
     -------------------------------------------------------------------


     ik =      15 coord.:    0.0000000   0.3333333   0.3333333
     -------------------------------------------------------------------
     E(   2 )=  -6.0857 eV   Re[Sigma]=       0.000000 meV Im[Sigma]=       0.000000 meV     Z=       1.000000 lam=       0.000000
     E(   3 )=  -3.4997 eV   Re[Sigma]=       0.000000 meV Im[Sigma]=       0.000000 meV     Z=       1.000000 lam=       0.000000
     E(   4 )=  -3.4997 eV   Re[Sigma]=       0.000000 meV Im[Sigma]=       0.000000 meV     Z=       1.000000 lam=       0.000000
     -------------------------------------------------------------------


     ik =      16 coord.:    0.0000000   0.3333333   0.5000000
     -------------------------------------------------------------------
     E(   2 )=  -7.9843 eV   Re[Sigma]=       0.000000 meV Im[Sigma]=       0.000000 meV     Z=       1.000000 lam=       0.000000
     E(   3 )=  -5.1567 eV   Re[Sigma]=       0.000000 meV Im[Sigma]=       0.000000 meV     Z=       1.000000 lam=       0.000000
     E(   4 )=  -3.9611 eV   Re[Sigma]=       0.000000 meV Im[Sigma]=       0.000000 meV     Z=       1.000000 lam=       0.000000
     -------------------------------------------------------------------


     ik =      17 coord.:    0.0000000   0.3333333   0.6666667
     -------------------------------------------------------------------
     E(   2 )=  -8.0736 eV   Re[Sigma]=       0.000000 meV Im[Sigma]=       0.000000 meV     Z=       1.000000 lam=       0.000000
     E(   3 )=  -6.6678 eV   Re[Sigma]=       0.000000 meV Im[Sigma]=       0.000000 meV     Z=       1.000000 lam=       0.000000
     E(   4 )=  -3.0550 eV   Re[Sigma]=       0.000000 meV Im[Sigma]=       0.000000 meV     Z=       1.000000 lam=       0.000000
     -------------------------------------------------------------------


     ik =      18 coord.:    0.0000000   0.3333333   0.8333333
     -------------------------------------------------------------------
     E(   2 )=  -8.1322 eV   Re[Sigma]=      13.764737 meV Im[Sigma]=      48.397172 meV     Z=       1.100195 lam=      -0.091070
     E(   3 )=  -3.8650 eV   Re[Sigma]=      11.649267 meV Im[Sigma]=      40.435118 meV     Z=       1.057284 lam=      -0.054181
     E(   4 )=  -1.8117 eV   Re[Sigma]=       4.419350 meV Im[Sigma]=      56.559356 meV     Z=       0.970164 lam=       0.030753
     -------------------------------------------------------------------


     ik =      19 coord.:    0.0000000   0.5000000   0.0000000
     -------------------------------------------------------------------
     E(   2 )=  -9.7707 eV   Re[Sigma]=       0.000000 meV Im[Sigma]=       0.000000 meV     Z=       1.000000 lam=       0.000000
     E(   3 )=  -2.0290 eV   Re[Sigma]=       0.000000 meV Im[Sigma]=       0.000000 meV     Z=       1.000000 lam=       0.000000
     E(   4 )=  -2.0290 eV   Re[Sigma]=       0.000000 meV Im[Sigma]=       0.000000 meV     Z=       1.000000 lam=       0.000000
     -------------------------------------------------------------------


     ik =      20 coord.:    0.0000000   0.5000000   0.1666667
     -------------------------------------------------------------------
     E(   2 )=  -8.9978 eV   Re[Sigma]=       0.000000 meV Im[Sigma]=       0.000000 meV     Z=       1.000000 lam=       0.000000
     E(   3 )=  -3.3853 eV   Re[Sigma]=       0.000000 meV Im[Sigma]=       0.000000 meV     Z=       1.000000 lam=       0.000000
     E(   4 )=  -2.6317 eV   Re[Sigma]=       0.000000 meV Im[Sigma]=       0.000000 meV     Z=       1.000000 lam=       0.000000
     -------------------------------------------------------------------


     ik =      21 coord.:    0.0000000   0.5000000   0.3333333
     -------------------------------------------------------------------
     E(   2 )=  -7.9843 eV   Re[Sigma]=       0.000000 meV Im[Sigma]=       0.000000 meV     Z=       1.000000 lam=       0.000000
     E(   3 )=  -5.1567 eV   Re[Sigma]=       0.000000 meV Im[Sigma]=       0.000000 meV     Z=       1.000000 lam=       0.000000
     E(   4 )=  -3.9611 eV   Re[Sigma]=       0.000000 meV Im[Sigma]=       0.000000 meV     Z=       1.000000 lam=       0.000000
     -------------------------------------------------------------------


     ik =      22 coord.:    0.0000000   0.5000000   0.5000000
     -------------------------------------------------------------------
     E(   2 )=  -8.4913 eV   Re[Sigma]=       0.000000 meV Im[Sigma]=       0.000000 meV     Z=       1.000000 lam=       0.000000
     E(   3 )=  -4.6878 eV   Re[Sigma]=       0.000000 meV Im[Sigma]=       0.000000 meV     Z=       1.000000 lam=       0.000000
     E(   4 )=  -4.6878 eV   Re[Sigma]=       0.000000 meV Im[Sigma]=       0.000000 meV     Z=       1.000000 lam=       0.000000
     -------------------------------------------------------------------


     ik =      23 coord.:    0.0000000   0.5000000   0.6666667
     -------------------------------------------------------------------
     E(   2 )=  -7.9843 eV   Re[Sigma]=       0.000000 meV Im[Sigma]=       0.000000 meV     Z=       1.000000 lam=       0.000000
     E(   3 )=  -5.1567 eV   Re[Sigma]=       0.000000 meV Im[Sigma]=       0.000000 meV     Z=       1.000000 lam=       0.000000
     E(   4 )=  -3.9611 eV   Re[Sigma]=       0.000000 meV Im[Sigma]=       0.000000 meV     Z=       1.000000 lam=       0.000000
     -------------------------------------------------------------------


     ik =      24 coord.:    0.0000000   0.5000000   0.8333333
     -------------------------------------------------------------------
     E(   2 )=  -8.9978 eV   Re[Sigma]=       0.000000 meV Im[Sigma]=       0.000000 meV     Z=       1.000000 lam=       0.000000
     E(   3 )=  -3.3853 eV   Re[Sigma]=       0.000000 meV Im[Sigma]=       0.000000 meV     Z=       1.000000 lam=       0.000000
     E(   4 )=  -2.6317 eV   Re[Sigma]=       0.000000 meV Im[Sigma]=       0.000000 meV     Z=       1.000000 lam=       0.000000
     -------------------------------------------------------------------


     ik =      25 coord.:    0.0000000   0.6666667   0.0000000
     -------------------------------------------------------------------
     E(   2 )=  -7.2166 eV   Re[Sigma]=       5.960994 meV Im[Sigma]=      10.692129 meV     Z=       1.000494 lam=      -0.000494
     E(   3 )=  -1.5211 eV   Re[Sigma]=      17.934706 meV Im[Sigma]=      85.715405 meV     Z=       1.128047 lam=      -0.113512
     E(   4 )=  -1.5211 eV   Re[Sigma]=      17.934706 meV Im[Sigma]=      85.715405 meV     Z=       1.128047 lam=      -0.113512
     -------------------------------------------------------------------


     ik =      26 coord.:    0.0000000   0.6666667   0.1666667
     -------------------------------------------------------------------
     E(   2 )=  -8.1322 eV   Re[Sigma]=      13.764889 meV Im[Sigma]=      48.397588 meV     Z=       1.100195 lam=      -0.091071
     E(   3 )=  -3.8650 eV   Re[Sigma]=      11.649048 meV Im[Sigma]=      40.434863 meV     Z=       1.057286 lam=      -0.054182
     E(   4 )=  -1.8117 eV   Re[Sigma]=       4.420081 meV Im[Sigma]=      56.559235 meV     Z=       0.970162 lam=       0.030755
     -------------------------------------------------------------------


     ik =      27 coord.:    0.0000000   0.6666667   0.3333333
     -------------------------------------------------------------------
     E(   2 )=  -8.0736 eV   Re[Sigma]=       0.000000 meV Im[Sigma]=       0.000000 meV     Z=       1.000000 lam=       0.000000
     E(   3 )=  -6.6678 eV   Re[Sigma]=       0.000000 meV Im[Sigma]=       0.000000 meV     Z=       1.000000 lam=       0.000000
     E(   4 )=  -3.0550 eV   Re[Sigma]=       0.000000 meV Im[Sigma]=       0.000000 meV     Z=       1.000000 lam=       0.000000
     -------------------------------------------------------------------


     ik =      28 coord.:    0.0000000   0.6666667   0.5000000
     -------------------------------------------------------------------
     E(   2 )=  -7.9843 eV   Re[Sigma]=       0.000000 meV Im[Sigma]=       0.000000 meV     Z=       1.000000 lam=       0.000000
     E(   3 )=  -5.1567 eV   Re[Sigma]=       0.000000 meV Im[Sigma]=       0.000000 meV     Z=       1.000000 lam=       0.000000
     E(   4 )=  -3.9611 eV   Re[Sigma]=       0.000000 meV Im[Sigma]=       0.000000 meV     Z=       1.000000 lam=       0.000000
     -------------------------------------------------------------------


     ik =      29 coord.:    0.0000000   0.6666667   0.6666667
     -------------------------------------------------------------------
     E(   2 )=  -6.0857 eV   Re[Sigma]=       0.000000 meV Im[Sigma]=       0.000000 meV     Z=       1.000000 lam=       0.000000
     E(   3 )=  -3.4997 eV   Re[Sigma]=       0.000000 meV Im[Sigma]=       0.000000 meV     Z=       1.000000 lam=       0.000000
     E(   4 )=  -3.4997 eV   Re[Sigma]=       0.000000 meV Im[Sigma]=       0.000000 meV     Z=       1.000000 lam=       0.000000
     -------------------------------------------------------------------


     ik =      30 coord.:    0.0000000   0.6666667   0.8333333
     -------------------------------------------------------------------
     E(   2 )=  -5.6531 eV   Re[Sigma]=       0.000000 meV Im[Sigma]=       0.000000 meV     Z=       1.000000 lam=       0.000000
     E(   3 )=  -2.3031 eV   Re[Sigma]=       0.000000 meV Im[Sigma]=       0.000000 meV     Z=       1.000000 lam=       0.000000
     E(   4 )=  -2.0700 eV   Re[Sigma]=       0.000000 meV Im[Sigma]=       0.000000 meV     Z=       1.000000 lam=       0.000000
     -------------------------------------------------------------------


     ik =      31 coord.:    0.0000000   0.8333333   0.0000000
     -------------------------------------------------------------------
     E(   2 )=  -2.4953 eV   Re[Sigma]=      -3.976930 meV Im[Sigma]=      20.576032 meV     Z=       0.936004 lam=       0.068372
     E(   3 )=  -0.7227 eV   Re[Sigma]=      67.328019 meV Im[Sigma]=      53.899762 meV     Z=       0.988521 lam=       0.011613
     E(   4 )=  -0.7227 eV   Re[Sigma]=      67.328019 meV Im[Sigma]=      53.899762 meV     Z=       0.988521 lam=       0.011613
     -------------------------------------------------------------------


     ik =      32 coord.:    0.0000000   0.8333333   0.1666667
     -------------------------------------------------------------------
     E(   2 )=  -4.5583 eV   Re[Sigma]=      -5.938957 meV Im[Sigma]=      23.284382 meV     Z=       1.003436 lam=      -0.003424
     E(   3 )=  -2.5632 eV   Re[Sigma]=      -3.725908 meV Im[Sigma]=      58.633004 meV     Z=       1.180006 lam=      -0.152547
     E(   4 )=  -0.8338 eV   Re[Sigma]=      33.090426 meV Im[Sigma]=     135.987880 meV     Z=       2.045988 lam=      -0.511239
     -------------------------------------------------------------------


     ik =      33 coord.:    0.0000000   0.8333333   0.3333333
     -------------------------------------------------------------------
     E(   2 )=  -8.1322 eV   Re[Sigma]=      14.202626 meV Im[Sigma]=      51.540755 meV     Z=       1.114433 lam=      -0.102683
     E(   3 )=  -3.8650 eV   Re[Sigma]=      11.537112 meV Im[Sigma]=      40.275451 meV     Z=       1.054512 lam=      -0.051694
     E(   4 )=  -1.8117 eV   Re[Sigma]=       4.728173 meV Im[Sigma]=      57.351830 meV     Z=       0.976266 lam=       0.024311
     -------------------------------------------------------------------


     ik =      34 coord.:    0.0000000   0.8333333   0.5000000
     -------------------------------------------------------------------
     E(   2 )=  -8.9978 eV   Re[Sigma]=       0.000000 meV Im[Sigma]=       0.000000 meV     Z=       1.000000 lam=       0.000000
     E(   3 )=  -3.3853 eV   Re[Sigma]=       0.000000 meV Im[Sigma]=       0.000000 meV     Z=       1.000000 lam=       0.000000
     E(   4 )=  -2.6317 eV   Re[Sigma]=       0.000000 meV Im[Sigma]=       0.000000 meV     Z=       1.000000 lam=       0.000000
     -------------------------------------------------------------------


     ik =      35 coord.:    0.0000000   0.8333333   0.6666667
     -------------------------------------------------------------------
     E(   2 )=  -5.6531 eV   Re[Sigma]=       0.000000 meV Im[Sigma]=       0.000000 meV     Z=       1.000000 lam=       0.000000
     E(   3 )=  -2.3031 eV   Re[Sigma]=       0.000000 meV Im[Sigma]=       0.000000 meV     Z=       1.000000 lam=       0.000000
     E(   4 )=  -2.0700 eV   Re[Sigma]=       0.000000 meV Im[Sigma]=       0.000000 meV     Z=       1.000000 lam=       0.000000
     -------------------------------------------------------------------


     ik =      36 coord.:    0.0000000   0.8333333   0.8333333
     -------------------------------------------------------------------
     E(   2 )=  -2.0553 eV   Re[Sigma]=     -36.158671 meV Im[Sigma]=      23.369252 meV     Z=       0.874332 lam=       0.143730
     E(   3 )=  -1.3719 eV   Re[Sigma]=      42.815687 meV Im[Sigma]=      30.075931 meV     Z=       0.912623 lam=       0.095742
     E(   4 )=  -1.3719 eV   Re[Sigma]=      42.815687 meV Im[Sigma]=      30.075931 meV     Z=       0.912623 lam=       0.095742
     -------------------------------------------------------------------


     ik =      37 coord.:    0.1666667   0.0000000   0.0000000
     -------------------------------------------------------------------
     E(   2 )=  -2.4953 eV   Re[Sigma]=      -2.653606 meV Im[Sigma]=      21.506949 meV     Z=       0.938777 lam=       0.065215
     E(   3 )=  -0.7227 eV   Re[Sigma]=      68.473135 meV Im[Sigma]=      52.109002 meV     Z=       0.979103 lam=       0.021343
     E(   4 )=  -0.7227 eV   Re[Sigma]=      68.473135 meV Im[Sigma]=      52.109002 meV     Z=       0.979103 lam=       0.021343
     -------------------------------------------------------------------


     ik =      38 coord.:    0.1666667   0.0000000   0.1666667
     -------------------------------------------------------------------
     E(   2 )=  -2.0553 eV   Re[Sigma]=     -36.158672 meV Im[Sigma]=      23.369252 meV     Z=       0.874332 lam=       0.143730
     E(   3 )=  -1.3719 eV   Re[Sigma]=      42.815687 meV Im[Sigma]=      30.075930 meV     Z=       0.912623 lam=       0.095742
     E(   4 )=  -1.3719 eV   Re[Sigma]=      42.815687 meV Im[Sigma]=      30.075930 meV     Z=       0.912623 lam=       0.095742
     -------------------------------------------------------------------


     ik =      39 coord.:    0.1666667   0.0000000   0.3333333
     -------------------------------------------------------------------
     E(   2 )=  -5.6531 eV   Re[Sigma]=       0.000000 meV Im[Sigma]=       0.000000 meV     Z=       1.000000 lam=       0.000000
     E(   3 )=  -2.3031 eV   Re[Sigma]=       0.000000 meV Im[Sigma]=       0.000000 meV     Z=       1.000000 lam=       0.000000
     E(   4 )=  -2.0700 eV   Re[Sigma]=       0.000000 meV Im[Sigma]=       0.000000 meV     Z=       1.000000 lam=       0.000000
     -------------------------------------------------------------------


     ik =      40 coord.:    0.1666667   0.0000000   0.5000000
     -------------------------------------------------------------------
     E(   2 )=  -8.9978 eV   Re[Sigma]=       0.000000 meV Im[Sigma]=       0.000000 meV     Z=       1.000000 lam=       0.000000
     E(   3 )=  -3.3853 eV   Re[Sigma]=       0.000000 meV Im[Sigma]=       0.000000 meV     Z=       1.000000 lam=       0.000000
     E(   4 )=  -2.6317 eV   Re[Sigma]=       0.000000 meV Im[Sigma]=       0.000000 meV     Z=       1.000000 lam=       0.000000
     -------------------------------------------------------------------


     ik =      41 coord.:    0.1666667   0.0000000   0.6666667
     -------------------------------------------------------------------
     E(   2 )=  -8.1322 eV   Re[Sigma]=      14.255652 meV Im[Sigma]=      50.500310 meV     Z=       1.109298 lam=      -0.098529
     E(   3 )=  -3.8650 eV   Re[Sigma]=      11.623970 meV Im[Sigma]=      40.191896 meV     Z=       1.054857 lam=      -0.052004
     E(   4 )=  -1.8117 eV   Re[Sigma]=       5.080271 meV Im[Sigma]=      57.841661 meV     Z=       0.967295 lam=       0.033811
     -------------------------------------------------------------------


     ik =      42 coord.:    0.1666667   0.0000000   0.8333333
     -------------------------------------------------------------------
     E(   2 )=  -4.5583 eV   Re[Sigma]=      -5.711970 meV Im[Sigma]=      23.183376 meV     Z=       1.003481 lam=      -0.003469
     E(   3 )=  -2.5632 eV   Re[Sigma]=      -3.571473 meV Im[Sigma]=      57.871049 meV     Z=       1.176613 lam=      -0.150103
     E(   4 )=  -0.8338 eV   Re[Sigma]=      34.611574 meV Im[Sigma]=     137.929002 meV     Z=       2.102601 lam=      -0.524399
     -------------------------------------------------------------------


     ik =      43 coord.:    0.1666667   0.1666667   0.0000000
     -------------------------------------------------------------------
     E(   2 )=  -2.0553 eV   Re[Sigma]=     -36.158786 meV Im[Sigma]=      23.369239 meV     Z=       0.874332 lam=       0.143730
     E(   3 )=  -1.3719 eV   Re[Sigma]=      42.815570 meV Im[Sigma]=      30.075949 meV     Z=       0.912624 lam=       0.095742
     E(   4 )=  -1.3719 eV   Re[Sigma]=      42.815570 meV Im[Sigma]=      30.075949 meV     Z=       0.912624 lam=       0.095742
     -------------------------------------------------------------------


     ik =      44 coord.:    0.1666667   0.1666667   0.1666667
     -------------------------------------------------------------------
     E(   2 )=  -2.4953 eV   Re[Sigma]=      -2.653664 meV Im[Sigma]=      21.507059 meV     Z=       0.938776 lam=       0.065216
     E(   3 )=  -0.7227 eV   Re[Sigma]=      68.472584 meV Im[Sigma]=      52.108824 meV     Z=       0.979104 lam=       0.021342
     E(   4 )=  -0.7227 eV   Re[Sigma]=      68.472584 meV Im[Sigma]=      52.108824 meV     Z=       0.979104 lam=       0.021342
     -------------------------------------------------------------------


     ik =      45 coord.:    0.1666667   0.1666667   0.3333333
     -------------------------------------------------------------------
     E(   2 )=  -4.5583 eV   Re[Sigma]=      -5.711970 meV Im[Sigma]=      23.183374 meV     Z=       1.003481 lam=      -0.003469
     E(   3 )=  -2.5632 eV   Re[Sigma]=      -3.571473 meV Im[Sigma]=      57.871046 meV     Z=       1.176613 lam=      -0.150103
     E(   4 )=  -0.8338 eV   Re[Sigma]=      34.611573 meV Im[Sigma]=     137.929002 meV     Z=       2.102601 lam=      -0.524399
     -------------------------------------------------------------------


     ik =      46 coord.:    0.1666667   0.1666667   0.5000000
     -------------------------------------------------------------------
     E(   2 )=  -8.1322 eV   Re[Sigma]=      14.255548 meV Im[Sigma]=      50.500217 meV     Z=       1.109299 lam=      -0.098529
     E(   3 )=  -3.8650 eV   Re[Sigma]=      11.624074 meV Im[Sigma]=      40.192248 meV     Z=       1.054857 lam=      -0.052004
     E(   4 )=  -1.8117 eV   Re[Sigma]=       5.079980 meV Im[Sigma]=      57.841149 meV     Z=       0.967292 lam=       0.033814
     -------------------------------------------------------------------


     ik =      47 coord.:    0.1666667   0.1666667   0.6666667
     -------------------------------------------------------------------
     E(   2 )=  -8.9978 eV   Re[Sigma]=       0.000000 meV Im[Sigma]=       0.000000 meV     Z=       1.000000 lam=       0.000000
     E(   3 )=  -3.3853 eV   Re[Sigma]=       0.000000 meV Im[Sigma]=       0.000000 meV     Z=       1.000000 lam=       0.000000
     E(   4 )=  -2.6317 eV   Re[Sigma]=       0.000000 meV Im[Sigma]=       0.000000 meV     Z=       1.000000 lam=       0.000000
     -------------------------------------------------------------------


     ik =      48 coord.:    0.1666667   0.1666667   0.8333333
     -------------------------------------------------------------------
     E(   2 )=  -5.6531 eV   Re[Sigma]=       0.000000 meV Im[Sigma]=       0.000000 meV     Z=       1.000000 lam=       0.000000
     E(   3 )=  -2.3031 eV   Re[Sigma]=       0.000000 meV Im[Sigma]=       0.000000 meV     Z=       1.000000 lam=       0.000000
     E(   4 )=  -2.0700 eV   Re[Sigma]=       0.000000 meV Im[Sigma]=       0.000000 meV     Z=       1.000000 lam=       0.000000
     -------------------------------------------------------------------


     ik =      49 coord.:    0.1666667   0.3333333   0.0000000
     -------------------------------------------------------------------
     E(   2 )=  -5.6531 eV   Re[Sigma]=       0.000000 meV Im[Sigma]=       0.000000 meV     Z=       1.000000 lam=       0.000000
     E(   3 )=  -2.3031 eV   Re[Sigma]=       0.000000 meV Im[Sigma]=       0.000000 meV     Z=       1.000000 lam=       0.000000
     E(   4 )=  -2.0700 eV   Re[Sigma]=       0.000000 meV Im[Sigma]=       0.000000 meV     Z=       1.000000 lam=       0.000000
     -------------------------------------------------------------------


     ik =      50 coord.:    0.1666667   0.3333333   0.1666667
     -------------------------------------------------------------------
     E(   2 )=  -4.5583 eV   Re[Sigma]=      -5.939018 meV Im[Sigma]=      23.284424 meV     Z=       1.003436 lam=      -0.003424
     E(   3 )=  -2.5632 eV   Re[Sigma]=      -3.726026 meV Im[Sigma]=      58.632898 meV     Z=       1.180006 lam=      -0.152547
     E(   4 )=  -0.8338 eV   Re[Sigma]=      33.090367 meV Im[Sigma]=     135.987163 meV     Z=       2.045972 lam=      -0.511235
     -------------------------------------------------------------------


     ik =      51 coord.:    0.1666667   0.3333333   0.3333333
     -------------------------------------------------------------------
     E(   2 )=  -5.6531 eV   Re[Sigma]=       0.000000 meV Im[Sigma]=       0.000000 meV     Z=       1.000000 lam=       0.000000
     E(   3 )=  -2.3031 eV   Re[Sigma]=       0.000000 meV Im[Sigma]=       0.000000 meV     Z=       1.000000 lam=       0.000000
     E(   4 )=  -2.0700 eV   Re[Sigma]=       0.000000 meV Im[Sigma]=       0.000000 meV     Z=       1.000000 lam=       0.000000
     -------------------------------------------------------------------


     ik =      52 coord.:    0.1666667   0.3333333   0.5000000
     -------------------------------------------------------------------
     E(   2 )=  -7.1570 eV   Re[Sigma]=       0.000000 meV Im[Sigma]=       0.000000 meV     Z=       1.000000 lam=       0.000000
     E(   3 )=  -4.9247 eV   Re[Sigma]=       0.000000 meV Im[Sigma]=       0.000000 meV     Z=       1.000000 lam=       0.000000
     E(   4 )=  -2.7572 eV   Re[Sigma]=       0.000000 meV Im[Sigma]=       0.000000 meV     Z=       1.000000 lam=       0.000000
     -------------------------------------------------------------------


     ik =      53 coord.:    0.1666667   0.3333333   0.6666667
     -------------------------------------------------------------------
     E(   2 )=  -8.4662 eV   Re[Sigma]=       0.000000 meV Im[Sigma]=       0.000000 meV     Z=       1.000000 lam=       0.000000
     E(   3 )=  -5.7618 eV   Re[Sigma]=       0.000000 meV Im[Sigma]=       0.000000 meV     Z=       1.000000 lam=       0.000000
     E(   4 )=  -3.5655 eV   Re[Sigma]=       0.000000 meV Im[Sigma]=       0.000000 meV     Z=       1.000000 lam=       0.000000
     -------------------------------------------------------------------


     ik =      54 coord.:    0.1666667   0.3333333   0.8333333
     -------------------------------------------------------------------
     E(   2 )=  -7.1570 eV   Re[Sigma]=       0.000000 meV Im[Sigma]=       0.000000 meV     Z=       1.000000 lam=       0.000000
     E(   3 )=  -4.9247 eV   Re[Sigma]=       0.000000 meV Im[Sigma]=       0.000000 meV     Z=       1.000000 lam=       0.000000
     E(   4 )=  -2.7572 eV   Re[Sigma]=       0.000000 meV Im[Sigma]=       0.000000 meV     Z=       1.000000 lam=       0.000000
     -------------------------------------------------------------------


     ik =      55 coord.:    0.1666667   0.5000000   0.0000000
     -------------------------------------------------------------------
     E(   2 )=  -8.9978 eV   Re[Sigma]=       0.000000 meV Im[Sigma]=       0.000000 meV     Z=       1.000000 lam=       0.000000
     E(   3 )=  -3.3853 eV   Re[Sigma]=       0.000000 meV Im[Sigma]=       0.000000 meV     Z=       1.000000 lam=       0.000000
     E(   4 )=  -2.6317 eV   Re[Sigma]=       0.000000 meV Im[Sigma]=       0.000000 meV     Z=       1.000000 lam=       0.000000
     -------------------------------------------------------------------


     ik =      56 coord.:    0.1666667   0.5000000   0.1666667
     -------------------------------------------------------------------
     E(   2 )=  -8.1322 eV   Re[Sigma]=      13.764737 meV Im[Sigma]=      48.397170 meV     Z=       1.100195 lam=      -0.091070
     E(   3 )=  -3.8650 eV   Re[Sigma]=      11.649268 meV Im[Sigma]=      40.435119 meV     Z=       1.057284 lam=      -0.054181
     E(   4 )=  -1.8117 eV   Re[Sigma]=       4.419350 meV Im[Sigma]=      56.559355 meV     Z=       0.970164 lam=       0.030753
     -------------------------------------------------------------------


     ik =      57 coord.:    0.1666667   0.5000000   0.3333333
     -------------------------------------------------------------------
     E(   2 )=  -7.1570 eV   Re[Sigma]=       0.000000 meV Im[Sigma]=       0.000000 meV     Z=       1.000000 lam=       0.000000
     E(   3 )=  -4.9247 eV   Re[Sigma]=       0.000000 meV Im[Sigma]=       0.000000 meV     Z=       1.000000 lam=       0.000000
     E(   4 )=  -2.7572 eV   Re[Sigma]=       0.000000 meV Im[Sigma]=       0.000000 meV     Z=       1.000000 lam=       0.000000
     -------------------------------------------------------------------


     ik =      58 coord.:    0.1666667   0.5000000   0.5000000
     -------------------------------------------------------------------
     E(   2 )=  -7.9843 eV   Re[Sigma]=       0.000000 meV Im[Sigma]=       0.000000 meV     Z=       1.000000 lam=       0.000000
     E(   3 )=  -5.1567 eV   Re[Sigma]=       0.000000 meV Im[Sigma]=       0.000000 meV     Z=       1.000000 lam=       0.000000
     E(   4 )=  -3.9611 eV   Re[Sigma]=       0.000000 meV Im[Sigma]=       0.000000 meV     Z=       1.000000 lam=       0.000000
     -------------------------------------------------------------------


     ik =      59 coord.:    0.1666667   0.5000000   0.6666667
     -------------------------------------------------------------------
     E(   2 )=  -8.2246 eV   Re[Sigma]=       0.000000 meV Im[Sigma]=       0.000000 meV     Z=       1.000000 lam=       0.000000
     E(   3 )=  -5.9488 eV   Re[Sigma]=       0.000000 meV Im[Sigma]=       0.000000 meV     Z=       1.000000 lam=       0.000000
     E(   4 )=  -4.7388 eV   Re[Sigma]=       0.000000 meV Im[Sigma]=       0.000000 meV     Z=       1.000000 lam=       0.000000
     -------------------------------------------------------------------


     ik =      60 coord.:    0.1666667   0.5000000   0.8333333
     -------------------------------------------------------------------
     E(   2 )=  -8.4662 eV   Re[Sigma]=       0.000000 meV Im[Sigma]=       0.000000 meV     Z=       1.000000 lam=       0.000000
     E(   3 )=  -5.7618 eV   Re[Sigma]=       0.000000 meV Im[Sigma]=       0.000000 meV     Z=       1.000000 lam=       0.000000
     E(   4 )=  -3.5655 eV   Re[Sigma]=       0.000000 meV Im[Sigma]=       0.000000 meV     Z=       1.000000 lam=       0.000000
     -------------------------------------------------------------------


     ik =      61 coord.:    0.1666667   0.6666667   0.0000000
     -------------------------------------------------------------------
     E(   2 )=  -8.1322 eV   Re[Sigma]=      13.764889 meV Im[Sigma]=      48.397587 meV     Z=       1.100195 lam=      -0.091071
     E(   3 )=  -3.8650 eV   Re[Sigma]=      11.649048 meV Im[Sigma]=      40.434862 meV     Z=       1.057286 lam=      -0.054182
     E(   4 )=  -1.8117 eV   Re[Sigma]=       4.420080 meV Im[Sigma]=      56.559235 meV     Z=       0.970162 lam=       0.030755
     -------------------------------------------------------------------


     ik =      62 coord.:    0.1666667   0.6666667   0.1666667
     -------------------------------------------------------------------
     E(   2 )=  -8.9978 eV   Re[Sigma]=       0.000000 meV Im[Sigma]=       0.000000 meV     Z=       1.000000 lam=       0.000000
     E(   3 )=  -3.3853 eV   Re[Sigma]=       0.000000 meV Im[Sigma]=       0.000000 meV     Z=       1.000000 lam=       0.000000
     E(   4 )=  -2.6317 eV   Re[Sigma]=       0.000000 meV Im[Sigma]=       0.000000 meV     Z=       1.000000 lam=       0.000000
     -------------------------------------------------------------------


     ik =      63 coord.:    0.1666667   0.6666667   0.3333333
     -------------------------------------------------------------------
     E(   2 )=  -8.4662 eV   Re[Sigma]=       0.000000 meV Im[Sigma]=       0.000000 meV     Z=       1.000000 lam=       0.000000
     E(   3 )=  -5.7618 eV   Re[Sigma]=       0.000000 meV Im[Sigma]=       0.000000 meV     Z=       1.000000 lam=       0.000000
     E(   4 )=  -3.5655 eV   Re[Sigma]=       0.000000 meV Im[Sigma]=       0.000000 meV     Z=       1.000000 lam=       0.000000
     -------------------------------------------------------------------


     ik =      64 coord.:    0.1666667   0.6666667   0.5000000
     -------------------------------------------------------------------
     E(   2 )=  -8.2246 eV   Re[Sigma]=       0.000000 meV Im[Sigma]=       0.000000 meV     Z=       1.000000 lam=       0.000000
     E(   3 )=  -5.9488 eV   Re[Sigma]=       0.000000 meV Im[Sigma]=       0.000000 meV     Z=       1.000000 lam=       0.000000
     E(   4 )=  -4.7388 eV   Re[Sigma]=       0.000000 meV Im[Sigma]=       0.000000 meV     Z=       1.000000 lam=       0.000000
     -------------------------------------------------------------------


     ik =      65 coord.:    0.1666667   0.6666667   0.6666667
     -------------------------------------------------------------------
     E(   2 )=  -7.9843 eV   Re[Sigma]=       0.000000 meV Im[Sigma]=       0.000000 meV     Z=       1.000000 lam=       0.000000
     E(   3 )=  -5.1567 eV   Re[Sigma]=       0.000000 meV Im[Sigma]=       0.000000 meV     Z=       1.000000 lam=       0.000000
     E(   4 )=  -3.9611 eV   Re[Sigma]=       0.000000 meV Im[Sigma]=       0.000000 meV     Z=       1.000000 lam=       0.000000
     -------------------------------------------------------------------


     ik =      66 coord.:    0.1666667   0.6666667   0.8333333
     -------------------------------------------------------------------
     E(   2 )=  -7.1570 eV   Re[Sigma]=       0.000000 meV Im[Sigma]=       0.000000 meV     Z=       1.000000 lam=       0.000000
     E(   3 )=  -4.9247 eV   Re[Sigma]=       0.000000 meV Im[Sigma]=       0.000000 meV     Z=       1.000000 lam=       0.000000
     E(   4 )=  -2.7572 eV   Re[Sigma]=       0.000000 meV Im[Sigma]=       0.000000 meV     Z=       1.000000 lam=       0.000000
     -------------------------------------------------------------------


     ik =      67 coord.:    0.1666667   0.8333333   0.0000000
     -------------------------------------------------------------------
     E(   2 )=  -4.5583 eV   Re[Sigma]=      -5.938957 meV Im[Sigma]=      23.284380 meV     Z=       1.003436 lam=      -0.003424
     E(   3 )=  -2.5632 eV   Re[Sigma]=      -3.725908 meV Im[Sigma]=      58.633006 meV     Z=       1.180006 lam=      -0.152547
     E(   4 )=  -0.8338 eV   Re[Sigma]=      33.090428 meV Im[Sigma]=     135.987884 meV     Z=       2.045988 lam=      -0.511239
     -------------------------------------------------------------------


     ik =      68 coord.:    0.1666667   0.8333333   0.1666667
     -------------------------------------------------------------------
     E(   2 )=  -5.6531 eV   Re[Sigma]=       0.000000 meV Im[Sigma]=       0.000000 meV     Z=       1.000000 lam=       0.000000
     E(   3 )=  -2.3031 eV   Re[Sigma]=       0.000000 meV Im[Sigma]=       0.000000 meV     Z=       1.000000 lam=       0.000000
     E(   4 )=  -2.0700 eV   Re[Sigma]=       0.000000 meV Im[Sigma]=       0.000000 meV     Z=       1.000000 lam=       0.000000
     -------------------------------------------------------------------


     ik =      69 coord.:    0.1666667   0.8333333   0.3333333
     -------------------------------------------------------------------
     E(   2 )=  -7.1570 eV   Re[Sigma]=       0.000000 meV Im[Sigma]=       0.000000 meV     Z=       1.000000 lam=       0.000000
     E(   3 )=  -4.9247 eV   Re[Sigma]=       0.000000 meV Im[Sigma]=       0.000000 meV     Z=       1.000000 lam=       0.000000
     E(   4 )=  -2.7572 eV   Re[Sigma]=       0.000000 meV Im[Sigma]=       0.000000 meV     Z=       1.000000 lam=       0.000000
     -------------------------------------------------------------------


     ik =      70 coord.:    0.1666667   0.8333333   0.5000000
     -------------------------------------------------------------------
     E(   2 )=  -8.4662 eV   Re[Sigma]=       0.000000 meV Im[Sigma]=       0.000000 meV     Z=       1.000000 lam=       0.000000
     E(   3 )=  -5.7618 eV   Re[Sigma]=       0.000000 meV Im[Sigma]=       0.000000 meV     Z=       1.000000 lam=       0.000000
     E(   4 )=  -3.5655 eV   Re[Sigma]=       0.000000 meV Im[Sigma]=       0.000000 meV     Z=       1.000000 lam=       0.000000
     -------------------------------------------------------------------


     ik =      71 coord.:    0.1666667   0.8333333   0.6666667
     -------------------------------------------------------------------
     E(   2 )=  -7.1570 eV   Re[Sigma]=       0.000000 meV Im[Sigma]=       0.000000 meV     Z=       1.000000 lam=       0.000000
     E(   3 )=  -4.9247 eV   Re[Sigma]=       0.000000 meV Im[Sigma]=       0.000000 meV     Z=       1.000000 lam=       0.000000
     E(   4 )=  -2.7572 eV   Re[Sigma]=       0.000000 meV Im[Sigma]=       0.000000 meV     Z=       1.000000 lam=       0.000000
     -------------------------------------------------------------------


     ik =      72 coord.:    0.1666667   0.8333333   0.8333333
     -------------------------------------------------------------------
     E(   2 )=  -5.6531 eV   Re[Sigma]=       0.000000 meV Im[Sigma]=       0.000000 meV     Z=       1.000000 lam=       0.000000
     E(   3 )=  -2.3031 eV   Re[Sigma]=       0.000000 meV Im[Sigma]=       0.000000 meV     Z=       1.000000 lam=       0.000000
     E(   4 )=  -2.0700 eV   Re[Sigma]=       0.000000 meV Im[Sigma]=       0.000000 meV     Z=       1.000000 lam=       0.000000
     -------------------------------------------------------------------


     ik =      73 coord.:    0.3333333   0.0000000   0.0000000
     -------------------------------------------------------------------
     E(   2 )=  -7.2166 eV   Re[Sigma]=       6.188709 meV Im[Sigma]=      10.691943 meV     Z=       1.000332 lam=      -0.000332
     E(   3 )=  -1.5211 eV   Re[Sigma]=      18.459124 meV Im[Sigma]=      85.866253 meV     Z=       1.127073 lam=      -0.112746
     E(   4 )=  -1.5211 eV   Re[Sigma]=      18.459124 meV Im[Sigma]=      85.866253 meV     Z=       1.127073 lam=      -0.112746
     -------------------------------------------------------------------


     ik =      74 coord.:    0.3333333   0.0000000   0.1666667
     -------------------------------------------------------------------
     E(   2 )=  -5.6531 eV   Re[Sigma]=       0.000000 meV Im[Sigma]=       0.000000 meV     Z=       1.000000 lam=       0.000000
     E(   3 )=  -2.3031 eV   Re[Sigma]=       0.000000 meV Im[Sigma]=       0.000000 meV     Z=       1.000000 lam=       0.000000
     E(   4 )=  -2.0700 eV   Re[Sigma]=       0.000000 meV Im[Sigma]=       0.000000 meV     Z=       1.000000 lam=       0.000000
     -------------------------------------------------------------------


     ik =      75 coord.:    0.3333333   0.0000000   0.3333333
     -------------------------------------------------------------------
     E(   2 )=  -6.0857 eV   Re[Sigma]=       0.000000 meV Im[Sigma]=       0.000000 meV     Z=       1.000000 lam=       0.000000
     E(   3 )=  -3.4997 eV   Re[Sigma]=       0.000000 meV Im[Sigma]=       0.000000 meV     Z=       1.000000 lam=       0.000000
     E(   4 )=  -3.4997 eV   Re[Sigma]=       0.000000 meV Im[Sigma]=       0.000000 meV     Z=       1.000000 lam=       0.000000
     -------------------------------------------------------------------


     ik =      76 coord.:    0.3333333   0.0000000   0.5000000
     -------------------------------------------------------------------
     E(   2 )=  -7.9843 eV   Re[Sigma]=       0.000000 meV Im[Sigma]=       0.000000 meV     Z=       1.000000 lam=       0.000000
     E(   3 )=  -5.1567 eV   Re[Sigma]=       0.000000 meV Im[Sigma]=       0.000000 meV     Z=       1.000000 lam=       0.000000
     E(   4 )=  -3.9611 eV   Re[Sigma]=       0.000000 meV Im[Sigma]=       0.000000 meV     Z=       1.000000 lam=       0.000000
     -------------------------------------------------------------------


     ik =      77 coord.:    0.3333333   0.0000000   0.6666667
     -------------------------------------------------------------------
     E(   2 )=  -8.0736 eV   Re[Sigma]=       0.000000 meV Im[Sigma]=       0.000000 meV     Z=       1.000000 lam=       0.000000
     E(   3 )=  -6.6678 eV   Re[Sigma]=       0.000000 meV Im[Sigma]=       0.000000 meV     Z=       1.000000 lam=       0.000000
     E(   4 )=  -3.0550 eV   Re[Sigma]=       0.000000 meV Im[Sigma]=       0.000000 meV     Z=       1.000000 lam=       0.000000
     -------------------------------------------------------------------


     ik =      78 coord.:    0.3333333   0.0000000   0.8333333
     -------------------------------------------------------------------
     E(   2 )=  -8.1322 eV   Re[Sigma]=      14.255548 meV Im[Sigma]=      50.500219 meV     Z=       1.109299 lam=      -0.098529
     E(   3 )=  -3.8650 eV   Re[Sigma]=      11.624074 meV Im[Sigma]=      40.192249 meV     Z=       1.054857 lam=      -0.052004
     E(   4 )=  -1.8117 eV   Re[Sigma]=       5.079980 meV Im[Sigma]=      57.841150 meV     Z=       0.967292 lam=       0.033814
     -------------------------------------------------------------------


     ik =      79 coord.:    0.3333333   0.1666667   0.0000000
     -------------------------------------------------------------------
     E(   2 )=  -5.6531 eV   Re[Sigma]=       0.000000 meV Im[Sigma]=       0.000000 meV     Z=       1.000000 lam=       0.000000
     E(   3 )=  -2.3031 eV   Re[Sigma]=       0.000000 meV Im[Sigma]=       0.000000 meV     Z=       1.000000 lam=       0.000000
     E(   4 )=  -2.0700 eV   Re[Sigma]=       0.000000 meV Im[Sigma]=       0.000000 meV     Z=       1.000000 lam=       0.000000
     -------------------------------------------------------------------


     ik =      80 coord.:    0.3333333   0.1666667   0.1666667
     -------------------------------------------------------------------
     E(   2 )=  -4.5583 eV   Re[Sigma]=      -5.711970 meV Im[Sigma]=      23.183375 meV     Z=       1.003481 lam=      -0.003469
     E(   3 )=  -2.5632 eV   Re[Sigma]=      -3.571473 meV Im[Sigma]=      57.871048 meV     Z=       1.176613 lam=      -0.150103
     E(   4 )=  -0.8338 eV   Re[Sigma]=      34.611574 meV Im[Sigma]=     137.929007 meV     Z=       2.102601 lam=      -0.524399
     -------------------------------------------------------------------


     ik =      81 coord.:    0.3333333   0.1666667   0.3333333
     -------------------------------------------------------------------
     E(   2 )=  -5.6531 eV   Re[Sigma]=       0.000000 meV Im[Sigma]=       0.000000 meV     Z=       1.000000 lam=       0.000000
     E(   3 )=  -2.3031 eV   Re[Sigma]=       0.000000 meV Im[Sigma]=       0.000000 meV     Z=       1.000000 lam=       0.000000
     E(   4 )=  -2.0700 eV   Re[Sigma]=       0.000000 meV Im[Sigma]=       0.000000 meV     Z=       1.000000 lam=       0.000000
     -------------------------------------------------------------------


     ik =      82 coord.:    0.3333333   0.1666667   0.5000000
     -------------------------------------------------------------------
     E(   2 )=  -7.1570 eV   Re[Sigma]=       0.000000 meV Im[Sigma]=       0.000000 meV     Z=       1.000000 lam=       0.000000
     E(   3 )=  -4.9247 eV   Re[Sigma]=       0.000000 meV Im[Sigma]=       0.000000 meV     Z=       1.000000 lam=       0.000000
     E(   4 )=  -2.7572 eV   Re[Sigma]=       0.000000 meV Im[Sigma]=       0.000000 meV     Z=       1.000000 lam=       0.000000
     -------------------------------------------------------------------


     ik =      83 coord.:    0.3333333   0.1666667   0.6666667
     -------------------------------------------------------------------
     E(   2 )=  -8.4662 eV   Re[Sigma]=       0.000000 meV Im[Sigma]=       0.000000 meV     Z=       1.000000 lam=       0.000000
     E(   3 )=  -5.7618 eV   Re[Sigma]=       0.000000 meV Im[Sigma]=       0.000000 meV     Z=       1.000000 lam=       0.000000
     E(   4 )=  -3.5655 eV   Re[Sigma]=       0.000000 meV Im[Sigma]=       0.000000 meV     Z=       1.000000 lam=       0.000000
     -------------------------------------------------------------------


     ik =      84 coord.:    0.3333333   0.1666667   0.8333333
     -------------------------------------------------------------------
     E(   2 )=  -7.1570 eV   Re[Sigma]=       0.000000 meV Im[Sigma]=       0.000000 meV     Z=       1.000000 lam=       0.000000
     E(   3 )=  -4.9247 eV   Re[Sigma]=       0.000000 meV Im[Sigma]=       0.000000 meV     Z=       1.000000 lam=       0.000000
     E(   4 )=  -2.7572 eV   Re[Sigma]=       0.000000 meV Im[Sigma]=       0.000000 meV     Z=       1.000000 lam=       0.000000
     -------------------------------------------------------------------


     ik =      85 coord.:    0.3333333   0.3333333   0.0000000
     -------------------------------------------------------------------
     E(   2 )=  -6.0857 eV   Re[Sigma]=       0.000000 meV Im[Sigma]=       0.000000 meV     Z=       1.000000 lam=       0.000000
     E(   3 )=  -3.4997 eV   Re[Sigma]=       0.000000 meV Im[Sigma]=       0.000000 meV     Z=       1.000000 lam=       0.000000
     E(   4 )=  -3.4997 eV   Re[Sigma]=       0.000000 meV Im[Sigma]=       0.000000 meV     Z=       1.000000 lam=       0.000000
     -------------------------------------------------------------------


     ik =      86 coord.:    0.3333333   0.3333333   0.1666667
     -------------------------------------------------------------------
     E(   2 )=  -5.6531 eV   Re[Sigma]=       0.000000 meV Im[Sigma]=       0.000000 meV     Z=       1.000000 lam=       0.000000
     E(   3 )=  -2.3031 eV   Re[Sigma]=       0.000000 meV Im[Sigma]=       0.000000 meV     Z=       1.000000 lam=       0.000000
     E(   4 )=  -2.0700 eV   Re[Sigma]=       0.000000 meV Im[Sigma]=       0.000000 meV     Z=       1.000000 lam=       0.000000
     -------------------------------------------------------------------


     ik =      87 coord.:    0.3333333   0.3333333   0.3333333
     -------------------------------------------------------------------
     E(   2 )=  -7.2166 eV   Re[Sigma]=       6.188858 meV Im[Sigma]=      10.692129 meV     Z=       1.000331 lam=      -0.000331
     E(   3 )=  -1.5211 eV   Re[Sigma]=      18.458616 meV Im[Sigma]=      85.864783 meV     Z=       1.127071 lam=      -0.112744
     E(   4 )=  -1.5211 eV   Re[Sigma]=      18.458616 meV Im[Sigma]=      85.864783 meV     Z=       1.127071 lam=      -0.112744
     -------------------------------------------------------------------


     ik =      88 coord.:    0.3333333   0.3333333   0.5000000
     -------------------------------------------------------------------
     E(   2 )=  -8.1322 eV   Re[Sigma]=      14.255652 meV Im[Sigma]=      50.500310 meV     Z=       1.109298 lam=      -0.098529
     E(   3 )=  -3.8650 eV   Re[Sigma]=      11.623970 meV Im[Sigma]=      40.191894 meV     Z=       1.054857 lam=      -0.052004
     E(   4 )=  -1.8117 eV   Re[Sigma]=       5.080271 meV Im[Sigma]=      57.841661 meV     Z=       0.967295 lam=       0.033811
     -------------------------------------------------------------------


     ik =      89 coord.:    0.3333333   0.3333333   0.6666667
     -------------------------------------------------------------------
     E(   2 )=  -8.0736 eV   Re[Sigma]=       0.000000 meV Im[Sigma]=       0.000000 meV     Z=       1.000000 lam=       0.000000
     E(   3 )=  -6.6678 eV   Re[Sigma]=       0.000000 meV Im[Sigma]=       0.000000 meV     Z=       1.000000 lam=       0.000000
     E(   4 )=  -3.0550 eV   Re[Sigma]=       0.000000 meV Im[Sigma]=       0.000000 meV     Z=       1.000000 lam=       0.000000
     -------------------------------------------------------------------


     ik =      90 coord.:    0.3333333   0.3333333   0.8333333
     -------------------------------------------------------------------
     E(   2 )=  -7.9843 eV   Re[Sigma]=       0.000000 meV Im[Sigma]=       0.000000 meV     Z=       1.000000 lam=       0.000000
     E(   3 )=  -5.1567 eV   Re[Sigma]=       0.000000 meV Im[Sigma]=       0.000000 meV     Z=       1.000000 lam=       0.000000
     E(   4 )=  -3.9611 eV   Re[Sigma]=       0.000000 meV Im[Sigma]=       0.000000 meV     Z=       1.000000 lam=       0.000000
     -------------------------------------------------------------------


     ik =      91 coord.:    0.3333333   0.5000000   0.0000000
     -------------------------------------------------------------------
     E(   2 )=  -7.9843 eV   Re[Sigma]=       0.000000 meV Im[Sigma]=       0.000000 meV     Z=       1.000000 lam=       0.000000
     E(   3 )=  -5.1567 eV   Re[Sigma]=       0.000000 meV Im[Sigma]=       0.000000 meV     Z=       1.000000 lam=       0.000000
     E(   4 )=  -3.9611 eV   Re[Sigma]=       0.000000 meV Im[Sigma]=       0.000000 meV     Z=       1.000000 lam=       0.000000
     -------------------------------------------------------------------


     ik =      92 coord.:    0.3333333   0.5000000   0.1666667
     -------------------------------------------------------------------
     E(   2 )=  -7.1570 eV   Re[Sigma]=       0.000000 meV Im[Sigma]=       0.000000 meV     Z=       1.000000 lam=       0.000000
     E(   3 )=  -4.9247 eV   Re[Sigma]=       0.000000 meV Im[Sigma]=       0.000000 meV     Z=       1.000000 lam=       0.000000
     E(   4 )=  -2.7572 eV   Re[Sigma]=       0.000000 meV Im[Sigma]=       0.000000 meV     Z=       1.000000 lam=       0.000000
     -------------------------------------------------------------------


     ik =      93 coord.:    0.3333333   0.5000000   0.3333333
     -------------------------------------------------------------------
     E(   2 )=  -8.1322 eV   Re[Sigma]=      14.202913 meV Im[Sigma]=      51.541361 meV     Z=       1.114434 lam=      -0.102683
     E(   3 )=  -3.8650 eV   Re[Sigma]=      11.537160 meV Im[Sigma]=      40.275484 meV     Z=       1.054513 lam=      -0.051695
     E(   4 )=  -1.8117 eV   Re[Sigma]=       4.728628 meV Im[Sigma]=      57.351490 meV     Z=       0.976263 lam=       0.024314
     -------------------------------------------------------------------


     ik =      94 coord.:    0.3333333   0.5000000   0.5000000
     -------------------------------------------------------------------
     E(   2 )=  -8.9978 eV   Re[Sigma]=       0.000000 meV Im[Sigma]=       0.000000 meV     Z=       1.000000 lam=       0.000000
     E(   3 )=  -3.3853 eV   Re[Sigma]=       0.000000 meV Im[Sigma]=       0.000000 meV     Z=       1.000000 lam=       0.000000
     E(   4 )=  -2.6317 eV   Re[Sigma]=       0.000000 meV Im[Sigma]=       0.000000 meV     Z=       1.000000 lam=       0.000000
     -------------------------------------------------------------------


     ik =      95 coord.:    0.3333333   0.5000000   0.6666667
     -------------------------------------------------------------------
     E(   2 )=  -8.4662 eV   Re[Sigma]=       0.000000 meV Im[Sigma]=       0.000000 meV     Z=       1.000000 lam=       0.000000
     E(   3 )=  -5.7618 eV   Re[Sigma]=       0.000000 meV Im[Sigma]=       0.000000 meV     Z=       1.000000 lam=       0.000000
     E(   4 )=  -3.5655 eV   Re[Sigma]=       0.000000 meV Im[Sigma]=       0.000000 meV     Z=       1.000000 lam=       0.000000
     -------------------------------------------------------------------


     ik =      96 coord.:    0.3333333   0.5000000   0.8333333
     -------------------------------------------------------------------
     E(   2 )=  -8.2246 eV   Re[Sigma]=       0.000000 meV Im[Sigma]=       0.000000 meV     Z=       1.000000 lam=       0.000000
     E(   3 )=  -5.9488 eV   Re[Sigma]=       0.000000 meV Im[Sigma]=       0.000000 meV     Z=       1.000000 lam=       0.000000
     E(   4 )=  -4.7388 eV   Re[Sigma]=       0.000000 meV Im[Sigma]=       0.000000 meV     Z=       1.000000 lam=       0.000000
     -------------------------------------------------------------------


     ik =      97 coord.:    0.3333333   0.6666667   0.0000000
     -------------------------------------------------------------------
     E(   2 )=  -8.0736 eV   Re[Sigma]=       0.000000 meV Im[Sigma]=       0.000000 meV     Z=       1.000000 lam=       0.000000
     E(   3 )=  -6.6678 eV   Re[Sigma]=       0.000000 meV Im[Sigma]=       0.000000 meV     Z=       1.000000 lam=       0.000000
     E(   4 )=  -3.0550 eV   Re[Sigma]=       0.000000 meV Im[Sigma]=       0.000000 meV     Z=       1.000000 lam=       0.000000
     -------------------------------------------------------------------


     ik =      98 coord.:    0.3333333   0.6666667   0.1666667
     -------------------------------------------------------------------
     E(   2 )=  -8.4662 eV   Re[Sigma]=       0.000000 meV Im[Sigma]=       0.000000 meV     Z=       1.000000 lam=       0.000000
     E(   3 )=  -5.7618 eV   Re[Sigma]=       0.000000 meV Im[Sigma]=       0.000000 meV     Z=       1.000000 lam=       0.000000
     E(   4 )=  -3.5655 eV   Re[Sigma]=       0.000000 meV Im[Sigma]=       0.000000 meV     Z=       1.000000 lam=       0.000000
     -------------------------------------------------------------------


     ik =      99 coord.:    0.3333333   0.6666667   0.3333333
     -------------------------------------------------------------------
     E(   2 )=  -8.0736 eV   Re[Sigma]=       0.000000 meV Im[Sigma]=       0.000000 meV     Z=       1.000000 lam=       0.000000
     E(   3 )=  -6.6678 eV   Re[Sigma]=       0.000000 meV Im[Sigma]=       0.000000 meV     Z=       1.000000 lam=       0.000000
     E(   4 )=  -3.0550 eV   Re[Sigma]=       0.000000 meV Im[Sigma]=       0.000000 meV     Z=       1.000000 lam=       0.000000
     -------------------------------------------------------------------


     ik =     100 coord.:    0.3333333   0.6666667   0.5000000
     -------------------------------------------------------------------
     E(   2 )=  -8.4662 eV   Re[Sigma]=       0.000000 meV Im[Sigma]=       0.000000 meV     Z=       1.000000 lam=       0.000000
     E(   3 )=  -5.7618 eV   Re[Sigma]=       0.000000 meV Im[Sigma]=       0.000000 meV     Z=       1.000000 lam=       0.000000
     E(   4 )=  -3.5655 eV   Re[Sigma]=       0.000000 meV Im[Sigma]=       0.000000 meV     Z=       1.000000 lam=       0.000000
     -------------------------------------------------------------------


     ik =     101 coord.:    0.3333333   0.6666667   0.6666667
     -------------------------------------------------------------------
     E(   2 )=  -8.0736 eV   Re[Sigma]=       0.000000 meV Im[Sigma]=       0.000000 meV     Z=       1.000000 lam=       0.000000
     E(   3 )=  -6.6678 eV   Re[Sigma]=       0.000000 meV Im[Sigma]=       0.000000 meV     Z=       1.000000 lam=       0.000000
     E(   4 )=  -3.0550 eV   Re[Sigma]=       0.000000 meV Im[Sigma]=       0.000000 meV     Z=       1.000000 lam=       0.000000
     -------------------------------------------------------------------


     ik =     102 coord.:    0.3333333   0.6666667   0.8333333
     -------------------------------------------------------------------
[...]
      202        3     -5.1567      0.0000      0.0000      1.0000      0.0000
      203        3     -4.9247      0.0000      0.0000      1.0000      0.0000
      204        3     -3.8650     11.6490     40.4349      1.0573     -0.0542
      205        3     -2.3031      0.0000      0.0000      1.0000      0.0000
      206        3     -4.9247      0.0000      0.0000      1.0000      0.0000
      207        3     -5.7618      0.0000      0.0000      1.0000      0.0000
      208        3     -4.9247      0.0000      0.0000      1.0000      0.0000
      209        3     -2.3031      0.0000      0.0000      1.0000      0.0000
      210        3     -2.5632     -3.7259     58.6330      1.1800     -0.1525
      211        3     -1.3719     42.8157     30.0759      0.9126      0.0957
      212        3     -2.3031      0.0000      0.0000      1.0000      0.0000
      213        3     -3.3853      0.0000      0.0000      1.0000      0.0000
      214        3     -3.8650     11.6240     40.1919      1.0549     -0.0520
      215        3     -2.5632     -3.5715     57.8710      1.1766     -0.1501
      216        3     -0.7227     68.4731     52.1090      0.9791      0.0213
  
        1        4     -0.4322     54.5021      4.2776      0.9286      0.0769
        2        4     -0.7227     68.4731     52.1090      0.9791      0.0213
        3        4     -1.5211     18.4591     85.8663      1.1271     -0.1127
        4        4     -2.0290      0.0000      0.0000      1.0000      0.0000
        5        4     -1.5211     18.4586     85.8648      1.1271     -0.1127
        6        4     -0.7227     68.4726     52.1088      0.9791      0.0213
        7        4     -0.7227     67.3279     53.9003      0.9885      0.0116
        8        4     -1.3719     42.8156     30.0759      0.9126      0.0957
        9        4     -2.0700      0.0000      0.0000      1.0000      0.0000
       10        4     -2.6317      0.0000      0.0000      1.0000      0.0000
       11        4     -1.8117      4.7286     57.3515      0.9763      0.0243
       12        4     -0.8338     33.0904    135.9872      2.0460     -0.5112
       13        4     -1.5211     17.9354     85.7164      1.1280     -0.1135
       14        4     -2.0700      0.0000      0.0000      1.0000      0.0000
       15        4     -3.4997      0.0000      0.0000      1.0000      0.0000
       16        4     -3.9611      0.0000      0.0000      1.0000      0.0000
       17        4     -3.0550      0.0000      0.0000      1.0000      0.0000
       18        4     -1.8117      4.4194     56.5594      0.9702      0.0308
       19        4     -2.0290      0.0000      0.0000      1.0000      0.0000
       20        4     -2.6317      0.0000      0.0000      1.0000      0.0000
       21        4     -3.9611      0.0000      0.0000      1.0000      0.0000
       22        4     -4.6878      0.0000      0.0000      1.0000      0.0000
       23        4     -3.9611      0.0000      0.0000      1.0000      0.0000
       24        4     -2.6317      0.0000      0.0000      1.0000      0.0000
       25        4     -1.5211     17.9347     85.7154      1.1280     -0.1135
       26        4     -1.8117      4.4201     56.5592      0.9702      0.0308
       27        4     -3.0550      0.0000      0.0000      1.0000      0.0000
       28        4     -3.9611      0.0000      0.0000      1.0000      0.0000
       29        4     -3.4997      0.0000      0.0000      1.0000      0.0000
       30        4     -2.0700      0.0000      0.0000      1.0000      0.0000
       31        4     -0.7227     67.3280     53.8998      0.9885      0.0116
       32        4     -0.8338     33.0904    135.9879      2.0460     -0.5112
       33        4     -1.8117      4.7282     57.3518      0.9763      0.0243
       34        4     -2.6317      0.0000      0.0000      1.0000      0.0000
       35        4     -2.0700      0.0000      0.0000      1.0000      0.0000
       36        4     -1.3719     42.8157     30.0759      0.9126      0.0957
       37        4     -0.7227     68.4731     52.1090      0.9791      0.0213
       38        4     -1.3719     42.8157     30.0759      0.9126      0.0957
       39        4     -2.0700      0.0000      0.0000      1.0000      0.0000
       40        4     -2.6317      0.0000      0.0000      1.0000      0.0000
       41        4     -1.8117      5.0803     57.8417      0.9673      0.0338
       42        4     -0.8338     34.6116    137.9290      2.1026     -0.5244
       43        4     -1.3719     42.8156     30.0759      0.9126      0.0957
       44        4     -0.7227     68.4726     52.1088      0.9791      0.0213
       45        4     -0.8338     34.6116    137.9290      2.1026     -0.5244
       46        4     -1.8117      5.0800     57.8411      0.9673      0.0338
       47        4     -2.6317      0.0000      0.0000      1.0000      0.0000
       48        4     -2.0700      0.0000      0.0000      1.0000      0.0000
       49        4     -2.0700      0.0000      0.0000      1.0000      0.0000
       50        4     -0.8338     33.0904    135.9872      2.0460     -0.5112
       51        4     -2.0700      0.0000      0.0000      1.0000      0.0000
       52        4     -2.7572      0.0000      0.0000      1.0000      0.0000
       53        4     -3.5655      0.0000      0.0000      1.0000      0.0000
       54        4     -2.7572      0.0000      0.0000      1.0000      0.0000
       55        4     -2.6317      0.0000      0.0000      1.0000      0.0000
       56        4     -1.8117      4.4193     56.5594      0.9702      0.0308
       57        4     -2.7572      0.0000      0.0000      1.0000      0.0000
       58        4     -3.9611      0.0000      0.0000      1.0000      0.0000
       59        4     -4.7388      0.0000      0.0000      1.0000      0.0000
       60        4     -3.5655      0.0000      0.0000      1.0000      0.0000
       61        4     -1.8117      4.4201     56.5592      0.9702      0.0308
       62        4     -2.6317      0.0000      0.0000      1.0000      0.0000
       63        4     -3.5655      0.0000      0.0000      1.0000      0.0000
       64        4     -4.7388      0.0000      0.0000      1.0000      0.0000
       65        4     -3.9611      0.0000      0.0000      1.0000      0.0000
       66        4     -2.7572      0.0000      0.0000      1.0000      0.0000
       67        4     -0.8338     33.0904    135.9879      2.0460     -0.5112
       68        4     -2.0700      0.0000      0.0000      1.0000      0.0000
       69        4     -2.7572      0.0000      0.0000      1.0000      0.0000
       70        4     -3.5655      0.0000      0.0000      1.0000      0.0000
       71        4     -2.7572      0.0000      0.0000      1.0000      0.0000
       72        4     -2.0700      0.0000      0.0000      1.0000      0.0000
       73        4     -1.5211     18.4591     85.8663      1.1271     -0.1127
       74        4     -2.0700      0.0000      0.0000      1.0000      0.0000
       75        4     -3.4997      0.0000      0.0000      1.0000      0.0000
       76        4     -3.9611      0.0000      0.0000      1.0000      0.0000
       77        4     -3.0550      0.0000      0.0000      1.0000      0.0000
       78        4     -1.8117      5.0800     57.8411      0.9673      0.0338
       79        4     -2.0700      0.0000      0.0000      1.0000      0.0000
       80        4     -0.8338     34.6116    137.9290      2.1026     -0.5244
       81        4     -2.0700      0.0000      0.0000      1.0000      0.0000
       82        4     -2.7572      0.0000      0.0000      1.0000      0.0000
       83        4     -3.5655      0.0000      0.0000      1.0000      0.0000
       84        4     -2.7572      0.0000      0.0000      1.0000      0.0000
       85        4     -3.4997      0.0000      0.0000      1.0000      0.0000
       86        4     -2.0700      0.0000      0.0000      1.0000      0.0000
       87        4     -1.5211     18.4586     85.8648      1.1271     -0.1127
       88        4     -1.8117      5.0803     57.8417      0.9673      0.0338
       89        4     -3.0550      0.0000      0.0000      1.0000      0.0000
       90        4     -3.9611      0.0000      0.0000      1.0000      0.0000
       91        4     -3.9611      0.0000      0.0000      1.0000      0.0000
       92        4     -2.7572      0.0000      0.0000      1.0000      0.0000
       93        4     -1.8117      4.7286     57.3515      0.9763      0.0243
       94        4     -2.6317      0.0000      0.0000      1.0000      0.0000
       95        4     -3.5655      0.0000      0.0000      1.0000      0.0000
       96        4     -4.7388      0.0000      0.0000      1.0000      0.0000
       97        4     -3.0550      0.0000      0.0000      1.0000      0.0000
       98        4     -3.5655      0.0000      0.0000      1.0000      0.0000
       99        4     -3.0550      0.0000      0.0000      1.0000      0.0000
      100        4     -3.5655      0.0000      0.0000      1.0000      0.0000
      101        4     -3.0550      0.0000      0.0000      1.0000      0.0000
      102        4     -3.5655      0.0000      0.0000      1.0000      0.0000
      103        4     -1.8117      4.7282     57.3518      0.9763      0.0243
      104        4     -2.7572      0.0000      0.0000      1.0000      0.0000
      105        4     -3.9611      0.0000      0.0000      1.0000      0.0000
      106        4     -4.7388      0.0000      0.0000      1.0000      0.0000
      107        4     -3.5655      0.0000      0.0000      1.0000      0.0000
      108        4     -2.6317      0.0000      0.0000      1.0000      0.0000
      109        4     -2.0290      0.0000      0.0000      1.0000      0.0000
      110        4     -2.6317      0.0000      0.0000      1.0000      0.0000
      111        4     -3.9611      0.0000      0.0000      1.0000      0.0000
      112        4     -4.6878      0.0000      0.0000      1.0000      0.0000
      113        4     -3.9611      0.0000      0.0000      1.0000      0.0000
      114        4     -2.6317      0.0000      0.0000      1.0000      0.0000
      115        4     -2.6317      0.0000      0.0000      1.0000      0.0000
      116        4     -1.8117      5.0800     57.8411      0.9673      0.0338
      117        4     -2.7572      0.0000      0.0000      1.0000      0.0000
      118        4     -3.9611      0.0000      0.0000      1.0000      0.0000
      119        4     -4.7388      0.0000      0.0000      1.0000      0.0000
      120        4     -3.5655      0.0000      0.0000      1.0000      0.0000
      121        4     -3.9611      0.0000      0.0000      1.0000      0.0000
      122        4     -2.7572      0.0000      0.0000      1.0000      0.0000
      123        4     -1.8117      5.0803     57.8417      0.9673      0.0338
      124        4     -2.6317      0.0000      0.0000      1.0000      0.0000
      125        4     -3.5655      0.0000      0.0000      1.0000      0.0000
      126        4     -4.7388      0.0000      0.0000      1.0000      0.0000
      127        4     -4.6878      0.0000      0.0000      1.0000      0.0000
      128        4     -3.9611      0.0000      0.0000      1.0000      0.0000
      129        4     -2.6317      0.0000      0.0000      1.0000      0.0000
      130        4     -2.0290      0.0000      0.0000      1.0000      0.0000
      131        4     -2.6317      0.0000      0.0000      1.0000      0.0000
      132        4     -3.9611      0.0000      0.0000      1.0000      0.0000
      133        4     -3.9611      0.0000      0.0000      1.0000      0.0000
      134        4     -4.7388      0.0000      0.0000      1.0000      0.0000
      135        4     -3.5655      0.0000      0.0000      1.0000      0.0000
      136        4     -2.6317      0.0000      0.0000      1.0000      0.0000
      137        4     -1.8117      5.0800     57.8411      0.9673      0.0338
      138        4     -2.7572      0.0000      0.0000      1.0000      0.0000
      139        4     -2.6317      0.0000      0.0000      1.0000      0.0000
      140        4     -3.5655      0.0000      0.0000      1.0000      0.0000
      141        4     -4.7388      0.0000      0.0000      1.0000      0.0000
      142        4     -3.9611      0.0000      0.0000      1.0000      0.0000
      143        4     -2.7572      0.0000      0.0000      1.0000      0.0000
      144        4     -1.8117      5.0803     57.8417      0.9673      0.0338
      145        4     -1.5211     18.4586     85.8648      1.1271     -0.1127
      146        4     -1.8117      5.0803     57.8417      0.9673      0.0338
      147        4     -3.0550      0.0000      0.0000      1.0000      0.0000
      148        4     -3.9611      0.0000      0.0000      1.0000      0.0000
      149        4     -3.4997      0.0000      0.0000      1.0000      0.0000
      150        4     -2.0700      0.0000      0.0000      1.0000      0.0000
      151        4     -1.8117      4.7286     57.3515      0.9763      0.0243
      152        4     -2.6317      0.0000      0.0000      1.0000      0.0000
      153        4     -3.5655      0.0000      0.0000      1.0000      0.0000
      154        4     -4.7388      0.0000      0.0000      1.0000      0.0000
      155        4     -3.9611      0.0000      0.0000      1.0000      0.0000
      156        4     -2.7572      0.0000      0.0000      1.0000      0.0000
      157        4     -3.0550      0.0000      0.0000      1.0000      0.0000
      158        4     -3.5655      0.0000      0.0000      1.0000      0.0000
      159        4     -3.0550      0.0000      0.0000      1.0000      0.0000
      160        4     -3.5655      0.0000      0.0000      1.0000      0.0000
      161        4     -3.0550      0.0000      0.0000      1.0000      0.0000
      162        4     -3.5655      0.0000      0.0000      1.0000      0.0000
      163        4     -3.9611      0.0000      0.0000      1.0000      0.0000
      164        4     -4.7388      0.0000      0.0000      1.0000      0.0000
      165        4     -3.5655      0.0000      0.0000      1.0000      0.0000
      166        4     -2.6317      0.0000      0.0000      1.0000      0.0000
      167        4     -1.8117      4.7282     57.3518      0.9763      0.0243
      168        4     -2.7572      0.0000      0.0000      1.0000      0.0000
      169        4     -3.4997      0.0000      0.0000      1.0000      0.0000
      170        4     -3.9611      0.0000      0.0000      1.0000      0.0000
      171        4     -3.0550      0.0000      0.0000      1.0000      0.0000
      172        4     -1.8117      5.0800     57.8411      0.9673      0.0338
      173        4     -1.5211     18.4591     85.8663      1.1271     -0.1127
      174        4     -2.0700      0.0000      0.0000      1.0000      0.0000
      175        4     -2.0700      0.0000      0.0000      1.0000      0.0000
      176        4     -2.7572      0.0000      0.0000      1.0000      0.0000
      177        4     -3.5655      0.0000      0.0000      1.0000      0.0000
      178        4     -2.7572      0.0000      0.0000      1.0000      0.0000
      179        4     -2.0700      0.0000      0.0000      1.0000      0.0000
      180        4     -0.8338     34.6116    137.9290      2.1026     -0.5244
      181        4     -0.7227     68.4726     52.1088      0.9791      0.0213
      182        4     -0.8338     34.6116    137.9290      2.1026     -0.5244
      183        4     -1.8117      5.0800     57.8411      0.9673      0.0338
      184        4     -2.6317      0.0000      0.0000      1.0000      0.0000
      185        4     -2.0700      0.0000      0.0000      1.0000      0.0000
      186        4     -1.3719     42.8156     30.0759      0.9126      0.0957
      187        4     -0.8338     33.0904    135.9872      2.0460     -0.5112
      188        4     -2.0700      0.0000      0.0000      1.0000      0.0000
      189        4     -2.7572      0.0000      0.0000      1.0000      0.0000
      190        4     -3.5655      0.0000      0.0000      1.0000      0.0000
      191        4     -2.7572      0.0000      0.0000      1.0000      0.0000
      192        4     -2.0700      0.0000      0.0000      1.0000      0.0000
      193        4     -1.8117      4.4193     56.5594      0.9702      0.0308
      194        4     -2.7572      0.0000      0.0000      1.0000      0.0000
      195        4     -3.9611      0.0000      0.0000      1.0000      0.0000
      196        4     -4.7388      0.0000      0.0000      1.0000      0.0000
      197        4     -3.5655      0.0000      0.0000      1.0000      0.0000
      198        4     -2.6317      0.0000      0.0000      1.0000      0.0000
      199        4     -2.6317      0.0000      0.0000      1.0000      0.0000
      200        4     -3.5655      0.0000      0.0000      1.0000      0.0000
      201        4     -4.7388      0.0000      0.0000      1.0000      0.0000
      202        4     -3.9611      0.0000      0.0000      1.0000      0.0000
      203        4     -2.7572      0.0000      0.0000      1.0000      0.0000
      204        4     -1.8117      4.4201     56.5592      0.9702      0.0308
      205        4     -2.0700      0.0000      0.0000      1.0000      0.0000
      206        4     -2.7572      0.0000      0.0000      1.0000      0.0000
      207        4     -3.5655      0.0000      0.0000      1.0000      0.0000
      208        4     -2.7572      0.0000      0.0000      1.0000      0.0000
      209        4     -2.0700      0.0000      0.0000      1.0000      0.0000
      210        4     -0.8338     33.0904    135.9879      2.0460     -0.5112
      211        4     -1.3719     42.8157     30.0759      0.9126      0.0957
      212        4     -2.0700      0.0000      0.0000      1.0000      0.0000
      213        4     -2.6317      0.0000      0.0000      1.0000      0.0000
      214        4     -1.8117      5.0803     57.8417      0.9673      0.0338
      215        4     -0.8338     34.6116    137.9290      2.1026     -0.5244
      216        4     -0.7227     68.4731     52.1090      0.9791      0.0213
  
     ===================================================================
     Memory usage:  VmHWM =        88Mb
                   VmPeak =      2616Mb
     ===================================================================


     Unfolding on the coarse grid
     elphon_wrap  :      1.46s CPU      1.55s WALL (       1 calls)

     INITIALIZATION: 

     init_vloc    :      0.00s CPU      0.00s WALL (       1 calls)
     init_us_1    :      0.01s CPU      0.01s WALL (       2 calls)



     Electron-Phonon interpolation
     ephwann      :      0.40s CPU      0.46s WALL (       1 calls)
     ep-interp    :      0.32s CPU      0.38s WALL (     216 calls)

     Ham: step 1  :      0.00s CPU      0.00s WALL (       1 calls)
     Ham: step 2  :      0.00s CPU      0.00s WALL (       1 calls)
     ep: step 1   :      0.00s CPU      0.00s WALL (     162 calls)
     ep: step 2   :      0.37s CPU      0.42s WALL (       1 calls)
     DynW2B       :      0.01s CPU      0.01s WALL (     216 calls)
     HamW2B       :      0.11s CPU      0.13s WALL (   23490 calls)
     ephW2Bp      :      0.05s CPU      0.06s WALL (     216 calls)
     ephW2B       :      0.01s CPU      0.01s WALL (    1534 calls)


     Total program execution
     EPW          :      2.24s CPU      2.42s WALL

     ===============================================================================
     The functionality-dependent EPW.bib file was created with suggested citations. 
     Please consider citing the papers listed in EPW.bib.                           
     ===============================================================================
                                                                                    
