                                                                                      
                                       ``:oss/                                        
                           `.+s+.     .+ys--yh+     `./ss+.                           
                          -sh//yy+`   +yy   +yy    -+h+-oyy                           
                          -yh- .oyy/.-sh.   .syo-.:sy-  /yh                           
                 `.-.`    `yh+   -oyyyo.     `/syys:    oys      `.`                  
               `/+ssys+-` `sh+      `                   oys`   .:osyo`                
               -yh- ./syyooyo`                          .sys+/oyo--yh/                
               `yy+    .-:-.                             `-/+/:`  -sh-                
                /yh.                                              oys                 
          ``..---hho---------`   .---------..`      `.-----.`    -hd+---.             
       `./osmNMMMMMMMMMMMMMMMs. +NNMMMMMMMMNNmh+.   yNMMMMMNm-  oNMMMMMNmo++:`        
       +sy--/sdMMMhyyyyyyyNMMh- .oyNMMmyyyyyhNMMm+` -yMMMdyyo:` .oyyNMMNhs+syy`       
       -yy/   /MMM+.`-+/``mMMy-   `mMMh:`````.dMMN:` `MMMy-`-dhhy```mMMy:``+hs        
        -yy+` /MMMo:-mMM+`-oo/.    mMMh:     `dMMN/`  dMMm:`dMMMMy..MMMo-.+yo`        
         .sys`/MMMMNNMMMs-         mMMmyooooymMMNo:   oMMM/sMMMMMM++MMN//oh:          
          `sh+/MMMhyyMMMs- `-`     mMMMMMMMMMNmy+-`   -MMMhMMMsmMMmdMMd/yy+           
    `-/+++oyy-/MMM+.`/hh/.`mNm:`   mMMd+/////:-.`      NMMMMMd/:NMMMMMy:/yyo/:.`      
   +os+//:-..-oMMMo:--:::-/MMMo. .-mMMd+---`           hMMMMN+. oMMMMMo. `-+osyso:`   
   syo     `mNMMMMMNNNNNNNNMMMo.oNNMMMMMNNNN:`         +MMMMs:`  dMMMN/`     ``:syo   
   /yh`     :syyyyyyyyyyyyyyyy+.`+syyyyyyyyo:`         .oyys:`   .oyys:`        +yh   
   -yh-        ````````````````    `````````              ``        ``          oys   
   -+h/------------------------::::::::://////++++++++++++++++++++++///////::::/yd:   
   shdddddddddddddddddddddddddddddhhhhhhhhyyyyyssssssssssssssssyyyyyyyhhhhhhhddddh`   
                                                                                      
  S. Ponce, E. R. Margine, C. Verdi, and F. Giustino,                                 
                                                Comput. Phys. Commun. 209, 116 (2016) 
                                                                                      

     Program EPW v.5.0.0 starts on  1Jul2018 at 16: 1: 8 

     This program is part of the open-source Quantum ESPRESSO suite
     for quantum simulation of materials; please cite
         "P. Giannozzi et al., J. Phys.:Condens. Matter 21 395502 (2009);
         "P. Giannozzi et al., J. Phys.:Condens. Matter 29 465901 (2017);
          URL http://www.quantum-espresso.org", 
     in publications or presentations arising from this work. More details at
     http://www.quantum-espresso.org/quote

     Parallel version (MPI), running on     1 processors

     MPI processes distributed on     1 nodes

     Reading data from directory:
     ./sic.save/

     IMPORTANT: XC functional enforced from input :
     Exchange-correlation      = PZ ( 1  1  0  0 0 0)
     Any further DFT definition will be discarded
     Please, verify this is what you really want

               file C.UPF: wavefunction(s)  3d renormalized
 
     G-vector sticks info
     --------------------
     sticks:   dense  smooth     PW     G-vecs:    dense   smooth      PW
     Sum         187     187     73                 1687     1687     387
 

     --                                                                         

     bravais-lattice index     =            2
     lattice parameter (a_0)   =       8.2370  a.u.
     unit-cell volume          =     139.7163 (a.u.)^3
     number of atoms/cell      =            2
     number of atomic types    =            2
     kinetic-energy cut-off    =      20.0000  Ry
     charge density cut-off    =      80.0000  Ry
     convergence threshold     =      0.0E+00
     beta                      =       0.0000
     number of iterations used =            0
     Exchange-correlation      = PZ ( 1  1  0  0 0 0)


     celldm(1)=    8.23700  celldm(2)=    0.00000  celldm(3)=    0.00000
     celldm(4)=    0.00000  celldm(5)=    0.00000  celldm(6)=    0.00000

     crystal axes: (cart. coord. in units of a_0)
               a(1) = ( -0.5000  0.0000  0.5000 )  
               a(2) = (  0.0000  0.5000  0.5000 )  
               a(3) = ( -0.5000  0.5000  0.0000 )  

     reciprocal axes: (cart. coord. in units 2 pi/a_0)
               b(1) = ( -1.0000 -1.0000  1.0000 )  
               b(2) = (  1.0000  1.0000  1.0000 )  
               b(3) = ( -1.0000  1.0000 -1.0000 )  


     Atoms inside the unit cell: 

   Cartesian axes

     site n.  atom      mass           positions (a_0 units)
        1        Si  28.0879   tau( 1) = (    0.00000    0.00000    0.00000  )
        2        C   12.0118   tau( 2) = (    0.25000    0.25000    0.25000  )
 
     25 Sym.Ops. (with q -> -q+G )


     G cutoff =  137.4891  (   1687 G-vectors)     FFT grid: ( 18, 18, 18)
     number of k points=   27
                       cart. coord. in units 2pi/a_0
        k(    1) = (   0.0000000   0.0000000   0.0000000), wk =   0.0740741
        k(    2) = (  -0.3333333   0.3333333  -0.3333333), wk =   0.0740741
        k(    3) = (  -0.6666667   0.6666667  -0.6666667), wk =   0.0740741
        k(    4) = (   0.3333333   0.3333333   0.3333333), wk =   0.0740741
        k(    5) = (   0.0000000   0.6666667   0.0000000), wk =   0.0740741
        k(    6) = (  -0.3333333   1.0000000  -0.3333333), wk =   0.0740741
        k(    7) = (   0.6666667   0.6666667   0.6666667), wk =   0.0740741
        k(    8) = (   0.3333333   1.0000000   0.3333333), wk =   0.0740741
        k(    9) = (   0.0000000   1.3333333   0.0000000), wk =   0.0740741
        k(   10) = (  -0.3333333  -0.3333333   0.3333333), wk =   0.0740741
        k(   11) = (  -0.6666667   0.0000000   0.0000000), wk =   0.0740741
        k(   12) = (  -1.0000000   0.3333333  -0.3333333), wk =   0.0740741
        k(   13) = (   0.0000000   0.0000000   0.6666667), wk =   0.0740741
        k(   14) = (  -0.3333333   0.3333333   0.3333333), wk =   0.0740741
        k(   15) = (  -0.6666667   0.6666667  -0.0000000), wk =   0.0740741
        k(   16) = (   0.3333333   0.3333333   1.0000000), wk =   0.0740741
        k(   17) = (   0.0000000   0.6666667   0.6666667), wk =   0.0740741
        k(   18) = (  -0.3333333   1.0000000   0.3333333), wk =   0.0740741
        k(   19) = (  -0.6666667  -0.6666667   0.6666667), wk =   0.0740741
        k(   20) = (  -1.0000000  -0.3333333   0.3333333), wk =   0.0740741
        k(   21) = (  -1.3333333   0.0000000   0.0000000), wk =   0.0740741
        k(   22) = (  -0.3333333  -0.3333333   1.0000000), wk =   0.0740741
        k(   23) = (  -0.6666667  -0.0000000   0.6666667), wk =   0.0740741
        k(   24) = (  -1.0000000   0.3333333   0.3333333), wk =   0.0740741
        k(   25) = (   0.0000000   0.0000000   1.3333333), wk =   0.0740741
        k(   26) = (  -0.3333333   0.3333333   1.0000000), wk =   0.0740741
        k(   27) = (  -0.6666667   0.6666667   0.6666667), wk =   0.0740741

     PseudoPot. # 1 for Si read from file:
     ./Si.pz-vbc.UPF
     MD5 check sum: 6dfa03ddd5817404712e03e4d12deb78
     Pseudo is Norm-conserving, Zval =  4.0
     Generated by new atomic code, or converted to UPF format
     Using radial grid of  431 points,  2 beta functions with: 
                l(1) =   0
                l(2) =   1

     PseudoPot. # 2 for C  read from file:
     ./C.UPF
     MD5 check sum: 4781e8ce5ee01a432381f51d0ea25c53
     Pseudo is Norm-conserving, Zval =  4.0
     Generated by new atomic code, or converted to UPF format
     Using radial grid of  461 points,  2 beta functions with: 
                l(1) =   0
                l(2) =   1
     EPW          :     0.14s CPU         0.15s WALL

     EPW          :     0.19s CPU         0.19s WALL

     No wavefunction gauge setting applied
     -------------------------------------------------------------------
     Wannierization on  3 x  3 x  3 electronic grid
     -------------------------------------------------------------------
 
     Spin CASE ( default = unpolarized )
 
     Initializing Wannier90
 
 
     Initial Wannier projections
 
     (   0.00000   0.00000   0.00000) :  l =  -3 mr =   1
     (   0.00000   0.00000   0.00000) :  l =  -3 mr =   2
     (   0.00000   0.00000   0.00000) :  l =  -3 mr =   3
     (   0.00000   0.00000   0.00000) :  l =  -3 mr =   4

      - Number of bands is (  8)
      - Number of total bands is (  8)
      - Number of excluded bands is (  0)
      - Number of wannier functions is (  4)
      - All guiding functions are given 
 
  Reading data about k-point neighbours 
 
      - All neighbours are found 
 
     AMN
      k points =    27 in    1 pools
            1 of   27 on ionode
            2 of   27 on ionode
            3 of   27 on ionode
            4 of   27 on ionode
            5 of   27 on ionode
            6 of   27 on ionode
            7 of   27 on ionode
            8 of   27 on ionode
            9 of   27 on ionode
           10 of   27 on ionode
           11 of   27 on ionode
           12 of   27 on ionode
           13 of   27 on ionode
           14 of   27 on ionode
           15 of   27 on ionode
           16 of   27 on ionode
           17 of   27 on ionode
           18 of   27 on ionode
           19 of   27 on ionode
           20 of   27 on ionode
           21 of   27 on ionode
           22 of   27 on ionode
           23 of   27 on ionode
           24 of   27 on ionode
           25 of   27 on ionode
           26 of   27 on ionode
           27 of   27 on ionode
 
     AMN calculated
 
     MMN
      k points =    27 in    1 pools
            1 of   27 on ionode
            2 of   27 on ionode
            3 of   27 on ionode
            4 of   27 on ionode
            5 of   27 on ionode
            6 of   27 on ionode
            7 of   27 on ionode
            8 of   27 on ionode
            9 of   27 on ionode
           10 of   27 on ionode
           11 of   27 on ionode
           12 of   27 on ionode
           13 of   27 on ionode
           14 of   27 on ionode
           15 of   27 on ionode
           16 of   27 on ionode
           17 of   27 on ionode
           18 of   27 on ionode
           19 of   27 on ionode
           20 of   27 on ionode
           21 of   27 on ionode
           22 of   27 on ionode
           23 of   27 on ionode
           24 of   27 on ionode
           25 of   27 on ionode
           26 of   27 on ionode
           27 of   27 on ionode
     MMN calculated
 
     Running Wannier90
 
     Wannier Function centers (cartesian, alat) and spreads (ang):
 
     (   0.16068   0.16068   0.16068) :   0.89056
     (   0.16068  -0.16068  -0.16068) :   0.89056
     (  -0.16068   0.16068  -0.16068) :   0.89056
     (  -0.16068  -0.16068   0.16068) :   0.89056
 
     -------------------------------------------------------------------
     WANNIER      :      1.75s CPU      1.82s WALL (       1 calls)
     -------------------------------------------------------------------

     Dipole matrix elements calculated
 

     Calculating kmap and kgmap
     Progress  kmap: ###########################
     Progress kgmap: ########################################
     kmaps        :      0.36s CPU      0.41s WALL (       1 calls)
     Symmetries of bravais lattice:  48
     Symmetries of crystal:          24


     ===================================================================
     irreducible q point #    1
     ===================================================================

     Symmetries of small group of q: 24
          in addition sym. q -> -q+G:
 
     Number of q in the star =    1
     List of q in the star:
          1   0.000000000   0.000000000   0.000000000
     Imposing acoustic sum rule on the dynamical matrix
     Read dielectric tensor and effective charges
 
        q(    1 ) = (   0.0000000   0.0000000   0.0000000 )


     ===================================================================
     irreducible q point #    2
     ===================================================================

     Symmetries of small group of q:  6
 
     Number of q in the star =    4
     List of q in the star:
          1  -0.333333333   0.333333333  -0.333333333
          2   0.333333333   0.333333333   0.333333333
          3   0.333333333  -0.333333333  -0.333333333
          4  -0.333333333  -0.333333333   0.333333333
     In addition there is the -q list: 
          1   0.333333333  -0.333333333   0.333333333
          2  -0.333333333  -0.333333333  -0.333333333
          3  -0.333333333   0.333333333   0.333333333
          4   0.333333333   0.333333333  -0.333333333
 
        q(    2 ) = (  -0.3333333   0.3333333  -0.3333333 )
 
        q(    3 ) = (   0.3333333  -0.3333333   0.3333333 )
        q(    4 ) = (   0.3333333   0.3333333   0.3333333 )
        q(    5 ) = (  -0.3333333  -0.3333333  -0.3333333 )
        q(    6 ) = (   0.3333333  -0.3333333  -0.3333333 )
        q(    7 ) = (  -0.3333333   0.3333333   0.3333333 )
        q(    8 ) = (  -0.3333333  -0.3333333   0.3333333 )
        q(    9 ) = (   0.3333333   0.3333333  -0.3333333 )


     ===================================================================
     irreducible q point #    3
     ===================================================================

     Symmetries of small group of q:  4
 
     Number of q in the star =    6
     List of q in the star:
          1   0.000000000   0.666666667   0.000000000
          2   0.000000000   0.000000000  -0.666666667
          3  -0.666666667   0.000000000   0.000000000
          4   0.666666667   0.000000000   0.000000000
          5   0.000000000  -0.666666667   0.000000000
          6   0.000000000   0.000000000   0.666666667
 
        q(   10 ) = (   0.0000000   0.6666667   0.0000000 )
        q(   11 ) = (   0.0000000   0.0000000  -0.6666667 )
        q(   12 ) = (  -0.6666667   0.0000000   0.0000000 )
        q(   13 ) = (   0.6666667   0.0000000   0.0000000 )
        q(   14 ) = (   0.0000000  -0.6666667   0.0000000 )
        q(   15 ) = (   0.0000000   0.0000000   0.6666667 )


     ===================================================================
     irreducible q point #    4
     ===================================================================

     Symmetries of small group of q:  2
 
     Number of q in the star =   12
     List of q in the star:
          1   0.666666667   0.000000000   0.666666667
          2  -0.666666667   0.000000000  -0.666666667
          3   0.666666667  -0.666666667   0.000000000
          4   0.000000000  -0.666666667   0.666666667
          5   0.000000000  -0.666666667  -0.666666667
          6  -0.666666667   0.000000000   0.666666667
          7   0.666666667   0.666666667   0.000000000
          8  -0.666666667  -0.666666667   0.000000000
          9  -0.666666667   0.666666667   0.000000000
         10   0.666666667   0.000000000  -0.666666667
         11   0.000000000   0.666666667   0.666666667
         12   0.000000000   0.666666667  -0.666666667
 
        q(   16 ) = (   0.6666667   0.0000000   0.6666667 )
        q(   17 ) = (  -0.6666667   0.0000000  -0.6666667 )
        q(   18 ) = (   0.6666667  -0.6666667   0.0000000 )
        q(   19 ) = (   0.0000000  -0.6666667   0.6666667 )
        q(   20 ) = (   0.0000000  -0.6666667  -0.6666667 )
        q(   21 ) = (  -0.6666667   0.0000000   0.6666667 )
        q(   22 ) = (   0.6666667   0.6666667   0.0000000 )
        q(   23 ) = (  -0.6666667  -0.6666667   0.0000000 )
        q(   24 ) = (  -0.6666667   0.6666667   0.0000000 )
        q(   25 ) = (   0.6666667   0.0000000  -0.6666667 )
        q(   26 ) = (   0.0000000   0.6666667   0.6666667 )
        q(   27 ) = (   0.0000000   0.6666667  -0.6666667 )

     Writing epmatq on .epb files


     The .epb files have been correctly written


              band disentanglement is used:  nbndsub =    4

     Writing Hamiltonian, Dynamical matrix and EP vertex in Wann rep to file


     Reading Hamiltonian, Dynamical matrix and EP vertex in Wann rep from file


     Finished reading Wann rep data from file

     ===================================================================
     Memory usage:  VmHWM =        43Mb
                   VmPeak =       275Mb
     ===================================================================
     
     Using uniform q-mesh:    6   6   6
     Size of q point mesh for interpolation:        216
     Using uniform k-mesh:    6   6   6
     Size of k point mesh for interpolation:        432
     Max number of k points per pool:              432

     Fermi energy coarse grid =   0.000000 eV

     Fermi energy is calculated from the fine k-mesh: Ef =  10.139039 eV

     Warning: check if difference with Fermi level fine grid makes sense

     ===================================================================

              ibndmin =     2  ebndmin =     0.602
              ibndmax =     4  ebndmax =     0.739


     Number of ep-matrix elements per pool :        11664 ~=   91.12 Kb (@ 8 bytes/ DP)

     ===================================================================
     Electron (Imaginary) Self-Energy in the Migdal Approximation
     ===================================================================


     Fermi Surface thickness =   2.000000 eV

     Golden Rule strictly enforced with T =   0.025852 eV
     Gaussian Broadening:   0.100000 eV, ngauss=   1
 
     Progression iq (fine) =         50/       216
     Progression iq (fine) =        100/       216
     Progression iq (fine) =        150/       216
     Progression iq (fine) =        200/       216
     Average over degenerate eigenstates is performed
     WARNING: only the eigenstates within the Fermi window are meaningful

     ik =       1 coord.:    0.0000000   0.0000000   0.0000000
     -------------------------------------------------------------------
     E(   2 )=  -0.0842 eV   Re[Sigma]=      75.059599 meV Im[Sigma]=       4.275450 meV     Z=       0.911113 lam=       0.097559
     E(   3 )=  -0.0842 eV   Re[Sigma]=      75.059599 meV Im[Sigma]=       4.275450 meV     Z=       0.911113 lam=       0.097559
     E(   4 )=  -0.0842 eV   Re[Sigma]=      75.059599 meV Im[Sigma]=       4.275450 meV     Z=       0.911113 lam=       0.097559
     -------------------------------------------------------------------


     ik =       2 coord.:    0.0000000   0.0000000   0.1666667
     -------------------------------------------------------------------
     E(   2 )=  -2.1472 eV   Re[Sigma]=     -73.772037 meV Im[Sigma]=      66.428957 meV     Z=       0.898431 lam=       0.113051
     E(   3 )=  -0.3746 eV   Re[Sigma]=      85.851157 meV Im[Sigma]=      73.478774 meV     Z=       1.083403 lam=      -0.076983
     E(   4 )=  -0.3746 eV   Re[Sigma]=      85.851157 meV Im[Sigma]=      73.478774 meV     Z=       1.083403 lam=      -0.076983
     -------------------------------------------------------------------


     ik =       3 coord.:    0.0000000   0.0000000   0.3333333
     -------------------------------------------------------------------
     E(   2 )=  -6.8685 eV   Re[Sigma]=      -0.299512 meV Im[Sigma]=      10.691590 meV     Z=       0.996729 lam=       0.003282
     E(   3 )=  -1.1730 eV   Re[Sigma]=      53.611451 meV Im[Sigma]=      73.260170 meV     Z=       1.016694 lam=      -0.016420
     E(   4 )=  -1.1730 eV   Re[Sigma]=      53.611451 meV Im[Sigma]=      73.260170 meV     Z=       1.016694 lam=      -0.016420
     -------------------------------------------------------------------


     ik =       4 coord.:    0.0000000   0.0000000   0.5000000
     -------------------------------------------------------------------
     E(   2 )=  -9.4227 eV   Re[Sigma]=      -8.135781 meV Im[Sigma]=       6.593834 meV     Z=       1.006096 lam=      -0.006059
     E(   3 )=  -1.6810 eV   Re[Sigma]=      22.745577 meV Im[Sigma]=     101.132092 meV     Z=       0.949584 lam=       0.053093
     E(   4 )=  -1.6810 eV   Re[Sigma]=      22.745577 meV Im[Sigma]=     101.132092 meV     Z=       0.949584 lam=       0.053093
     -------------------------------------------------------------------


     ik =       5 coord.:    0.0000000   0.0000000   0.6666667
     -------------------------------------------------------------------
     E(   2 )=  -6.8685 eV   Re[Sigma]=      -0.299509 meV Im[Sigma]=      10.691786 meV     Z=       0.996729 lam=       0.003282
     E(   3 )=  -1.1730 eV   Re[Sigma]=      53.610611 meV Im[Sigma]=      73.258781 meV     Z=       1.016694 lam=      -0.016420
     E(   4 )=  -1.1730 eV   Re[Sigma]=      53.610611 meV Im[Sigma]=      73.258781 meV     Z=       1.016694 lam=      -0.016420
     -------------------------------------------------------------------


     ik =       6 coord.:    0.0000000   0.0000000   0.8333333
     -------------------------------------------------------------------
     E(   2 )=  -2.1472 eV   Re[Sigma]=     -73.773871 meV Im[Sigma]=      66.430172 meV     Z=       0.898430 lam=       0.113053
     E(   3 )=  -0.3746 eV   Re[Sigma]=      85.850434 meV Im[Sigma]=      73.478407 meV     Z=       1.083404 lam=      -0.076983
     E(   4 )=  -0.3746 eV   Re[Sigma]=      85.850434 meV Im[Sigma]=      73.478407 meV     Z=       1.083404 lam=      -0.076983
     -------------------------------------------------------------------


     ik =       7 coord.:    0.0000000   0.1666667   0.0000000
     -------------------------------------------------------------------
     E(   2 )=  -2.1472 eV   Re[Sigma]=     -73.173641 meV Im[Sigma]=      76.017359 meV     Z=       0.921446 lam=       0.085250
     E(   3 )=  -0.3746 eV   Re[Sigma]=      76.479153 meV Im[Sigma]=     103.051484 meV     Z=       1.374015 lam=      -0.272206
     E(   4 )=  -0.3746 eV   Re[Sigma]=      76.479153 meV Im[Sigma]=     103.051484 meV     Z=       1.374015 lam=      -0.272206
     -------------------------------------------------------------------


     ik =       8 coord.:    0.0000000   0.1666667   0.1666667
     -------------------------------------------------------------------
     E(   2 )=  -1.7072 eV   Re[Sigma]=      19.471471 meV Im[Sigma]=     139.884967 meV     Z=       1.152669 lam=      -0.132448
     E(   3 )=  -1.0239 eV   Re[Sigma]=      68.583077 meV Im[Sigma]=      47.706370 meV     Z=       0.954840 lam=       0.047296
     E(   4 )=  -1.0239 eV   Re[Sigma]=      68.583077 meV Im[Sigma]=      47.706370 meV     Z=       0.954840 lam=       0.047296
     -------------------------------------------------------------------


     ik =       9 coord.:    0.0000000   0.1666667   0.3333333
     -------------------------------------------------------------------
     E(   2 )=  -5.3050 eV   Re[Sigma]=       4.032521 meV Im[Sigma]=      59.975476 meV     Z=       1.203476 lam=      -0.169073
     E(   3 )=  -1.9550 eV   Re[Sigma]=     -37.428985 meV Im[Sigma]=      88.241474 meV     Z=       0.979834 lam=       0.020581
     E(   4 )=  -1.7220 eV   Re[Sigma]=      13.891102 meV Im[Sigma]=     126.410915 meV     Z=       1.123131 lam=      -0.109632
     -------------------------------------------------------------------


     ik =      10 coord.:    0.0000000   0.1666667   0.5000000
     -------------------------------------------------------------------
     E(   2 )=  -8.6498 eV   Re[Sigma]=       0.000000 meV Im[Sigma]=       0.000000 meV     Z=       1.000000 lam=       0.000000
     E(   3 )=  -3.0372 eV   Re[Sigma]=       0.000000 meV Im[Sigma]=       0.000000 meV     Z=       1.000000 lam=       0.000000
     E(   4 )=  -2.2836 eV   Re[Sigma]=       0.000000 meV Im[Sigma]=       0.000000 meV     Z=       1.000000 lam=       0.000000
     -------------------------------------------------------------------


     ik =      11 coord.:    0.0000000   0.1666667   0.6666667
     -------------------------------------------------------------------
     E(   2 )=  -7.7841 eV   Re[Sigma]=       9.256085 meV Im[Sigma]=      62.175203 meV     Z=       1.204635 lam=      -0.169873
     E(   3 )=  -3.5170 eV   Re[Sigma]=       1.505224 meV Im[Sigma]=      41.630615 meV     Z=       1.078686 lam=      -0.072946
     E(   4 )=  -1.4636 eV   Re[Sigma]=      44.770667 meV Im[Sigma]=      71.028381 meV     Z=       0.995314 lam=       0.004708
     -------------------------------------------------------------------


     ik =      12 coord.:    0.0000000   0.1666667   0.8333333
     -------------------------------------------------------------------
     E(   2 )=  -4.2102 eV   Re[Sigma]=      -8.101291 meV Im[Sigma]=      32.730983 meV     Z=       1.060769 lam=      -0.057288
     E(   3 )=  -2.2152 eV   Re[Sigma]=     -65.044416 meV Im[Sigma]=      66.141421 meV     Z=       1.039487 lam=      -0.037987
     E(   4 )=  -0.4858 eV   Re[Sigma]=      32.651160 meV Im[Sigma]=     131.604595 meV     Z=       1.595846 lam=      -0.373373
     -------------------------------------------------------------------


     ik =      13 coord.:    0.0000000   0.3333333   0.0000000
     -------------------------------------------------------------------
     E(   2 )=  -6.8685 eV   Re[Sigma]=      -0.908894 meV Im[Sigma]=      10.691590 meV     Z=       0.997099 lam=       0.002910
     E(   3 )=  -1.1730 eV   Re[Sigma]=      51.465455 meV Im[Sigma]=      69.085046 meV     Z=       0.982010 lam=       0.018319
     E(   4 )=  -1.1730 eV   Re[Sigma]=      51.465455 meV Im[Sigma]=      69.085046 meV     Z=       0.982010 lam=       0.018319
     -------------------------------------------------------------------


     ik =      14 coord.:    0.0000000   0.3333333   0.1666667
     -------------------------------------------------------------------
     E(   2 )=  -5.3050 eV   Re[Sigma]=       9.806692 meV Im[Sigma]=      48.461024 meV     Z=       1.068213 lam=      -0.063857
     E(   3 )=  -1.9550 eV   Re[Sigma]=     -32.332794 meV Im[Sigma]=      72.360966 meV     Z=       0.901707 lam=       0.109008
     E(   4 )=  -1.7220 eV   Re[Sigma]=      12.075788 meV Im[Sigma]=     126.858581 meV     Z=       1.188703 lam=      -0.158747
     -------------------------------------------------------------------


     ik =      15 coord.:    0.0000000   0.3333333   0.3333333
     -------------------------------------------------------------------
     E(   2 )=  -5.7377 eV   Re[Sigma]=       0.000000 meV Im[Sigma]=       0.000000 meV     Z=       1.000000 lam=       0.000000
     E(   3 )=  -3.1516 eV   Re[Sigma]=       0.000000 meV Im[Sigma]=       0.000000 meV     Z=       1.000000 lam=       0.000000
     E(   4 )=  -3.1516 eV   Re[Sigma]=       0.000000 meV Im[Sigma]=       0.000000 meV     Z=       1.000000 lam=       0.000000
     -------------------------------------------------------------------


     ik =      16 coord.:    0.0000000   0.3333333   0.5000000
     -------------------------------------------------------------------
     E(   2 )=  -7.6363 eV   Re[Sigma]=       0.000000 meV Im[Sigma]=       0.000000 meV     Z=       1.000000 lam=       0.000000
     E(   3 )=  -4.8087 eV   Re[Sigma]=       0.000000 meV Im[Sigma]=       0.000000 meV     Z=       1.000000 lam=       0.000000
     E(   4 )=  -3.6130 eV   Re[Sigma]=       0.000000 meV Im[Sigma]=       0.000000 meV     Z=       1.000000 lam=       0.000000
     -------------------------------------------------------------------


     ik =      17 coord.:    0.0000000   0.3333333   0.6666667
     -------------------------------------------------------------------
     E(   2 )=  -7.7256 eV   Re[Sigma]=       0.000000 meV Im[Sigma]=       0.000000 meV     Z=       1.000000 lam=       0.000000
     E(   3 )=  -6.3198 eV   Re[Sigma]=       0.000000 meV Im[Sigma]=       0.000000 meV     Z=       1.000000 lam=       0.000000
     E(   4 )=  -2.7070 eV   Re[Sigma]=       0.000000 meV Im[Sigma]=       0.000000 meV     Z=       1.000000 lam=       0.000000
     -------------------------------------------------------------------


     ik =      18 coord.:    0.0000000   0.3333333   0.8333333
     -------------------------------------------------------------------
     E(   2 )=  -7.7841 eV   Re[Sigma]=       9.574668 meV Im[Sigma]=      50.981307 meV     Z=       1.121086 lam=      -0.108007
     E(   3 )=  -3.5170 eV   Re[Sigma]=       0.521525 meV Im[Sigma]=      41.363425 meV     Z=       1.086831 lam=      -0.079894
     E(   4 )=  -1.4636 eV   Re[Sigma]=      48.661584 meV Im[Sigma]=      64.831242 meV     Z=       0.924400 lam=       0.081783
     -------------------------------------------------------------------


     ik =      19 coord.:    0.0000000   0.5000000   0.0000000
     -------------------------------------------------------------------
     E(   2 )=  -9.4227 eV   Re[Sigma]=      -7.526407 meV Im[Sigma]=       6.699421 meV     Z=       1.006867 lam=      -0.006820
     E(   3 )=  -1.6810 eV   Re[Sigma]=      25.482482 meV Im[Sigma]=     106.325599 meV     Z=       0.956844 lam=       0.045103
     E(   4 )=  -1.6810 eV   Re[Sigma]=      25.482482 meV Im[Sigma]=     106.325599 meV     Z=       0.956844 lam=       0.045103
     -------------------------------------------------------------------


     ik =      20 coord.:    0.0000000   0.5000000   0.1666667
     -------------------------------------------------------------------
     E(   2 )=  -8.6498 eV   Re[Sigma]=       0.000000 meV Im[Sigma]=       0.000000 meV     Z=       1.000000 lam=       0.000000
     E(   3 )=  -3.0372 eV   Re[Sigma]=       0.000000 meV Im[Sigma]=       0.000000 meV     Z=       1.000000 lam=       0.000000
     E(   4 )=  -2.2836 eV   Re[Sigma]=       0.000000 meV Im[Sigma]=       0.000000 meV     Z=       1.000000 lam=       0.000000
     -------------------------------------------------------------------


     ik =      21 coord.:    0.0000000   0.5000000   0.3333333
     -------------------------------------------------------------------
     E(   2 )=  -7.6363 eV   Re[Sigma]=       0.000000 meV Im[Sigma]=       0.000000 meV     Z=       1.000000 lam=       0.000000
     E(   3 )=  -4.8087 eV   Re[Sigma]=       0.000000 meV Im[Sigma]=       0.000000 meV     Z=       1.000000 lam=       0.000000
     E(   4 )=  -3.6130 eV   Re[Sigma]=       0.000000 meV Im[Sigma]=       0.000000 meV     Z=       1.000000 lam=       0.000000
     -------------------------------------------------------------------


     ik =      22 coord.:    0.0000000   0.5000000   0.5000000
     -------------------------------------------------------------------
     E(   2 )=  -8.1432 eV   Re[Sigma]=       0.000000 meV Im[Sigma]=       0.000000 meV     Z=       1.000000 lam=       0.000000
     E(   3 )=  -4.3397 eV   Re[Sigma]=       0.000000 meV Im[Sigma]=       0.000000 meV     Z=       1.000000 lam=       0.000000
     E(   4 )=  -4.3397 eV   Re[Sigma]=       0.000000 meV Im[Sigma]=       0.000000 meV     Z=       1.000000 lam=       0.000000
     -------------------------------------------------------------------


     ik =      23 coord.:    0.0000000   0.5000000   0.6666667
     -------------------------------------------------------------------
     E(   2 )=  -7.6363 eV   Re[Sigma]=       0.000000 meV Im[Sigma]=       0.000000 meV     Z=       1.000000 lam=       0.000000
     E(   3 )=  -4.8087 eV   Re[Sigma]=       0.000000 meV Im[Sigma]=       0.000000 meV     Z=       1.000000 lam=       0.000000
     E(   4 )=  -3.6130 eV   Re[Sigma]=       0.000000 meV Im[Sigma]=       0.000000 meV     Z=       1.000000 lam=       0.000000
     -------------------------------------------------------------------


     ik =      24 coord.:    0.0000000   0.5000000   0.8333333
     -------------------------------------------------------------------
     E(   2 )=  -8.6498 eV   Re[Sigma]=       0.000000 meV Im[Sigma]=       0.000000 meV     Z=       1.000000 lam=       0.000000
     E(   3 )=  -3.0372 eV   Re[Sigma]=       0.000000 meV Im[Sigma]=       0.000000 meV     Z=       1.000000 lam=       0.000000
     E(   4 )=  -2.2836 eV   Re[Sigma]=       0.000000 meV Im[Sigma]=       0.000000 meV     Z=       1.000000 lam=       0.000000
     -------------------------------------------------------------------


     ik =      25 coord.:    0.0000000   0.6666667   0.0000000
     -------------------------------------------------------------------
     E(   2 )=  -6.8685 eV   Re[Sigma]=      -0.908924 meV Im[Sigma]=      10.691786 meV     Z=       0.997099 lam=       0.002910
     E(   3 )=  -1.1730 eV   Re[Sigma]=      51.464327 meV Im[Sigma]=      69.083748 meV     Z=       0.982012 lam=       0.018318
     E(   4 )=  -1.1730 eV   Re[Sigma]=      51.464327 meV Im[Sigma]=      69.083748 meV     Z=       0.982012 lam=       0.018318
     -------------------------------------------------------------------


     ik =      26 coord.:    0.0000000   0.6666667   0.1666667
     -------------------------------------------------------------------
     E(   2 )=  -7.7841 eV   Re[Sigma]=       9.574581 meV Im[Sigma]=      50.981143 meV     Z=       1.121084 lam=      -0.108006
     E(   3 )=  -3.5170 eV   Re[Sigma]=       0.521674 meV Im[Sigma]=      41.363303 meV     Z=       1.086832 lam=      -0.079894
     E(   4 )=  -1.4636 eV   Re[Sigma]=      48.662311 meV Im[Sigma]=      64.830417 meV     Z=       0.924396 lam=       0.081788
     -------------------------------------------------------------------


     ik =      27 coord.:    0.0000000   0.6666667   0.3333333
     -------------------------------------------------------------------
     E(   2 )=  -7.7256 eV   Re[Sigma]=       0.000000 meV Im[Sigma]=       0.000000 meV     Z=       1.000000 lam=       0.000000
     E(   3 )=  -6.3198 eV   Re[Sigma]=       0.000000 meV Im[Sigma]=       0.000000 meV     Z=       1.000000 lam=       0.000000
     E(   4 )=  -2.7070 eV   Re[Sigma]=       0.000000 meV Im[Sigma]=       0.000000 meV     Z=       1.000000 lam=       0.000000
     -------------------------------------------------------------------


     ik =      28 coord.:    0.0000000   0.6666667   0.5000000
     -------------------------------------------------------------------
     E(   2 )=  -7.6363 eV   Re[Sigma]=       0.000000 meV Im[Sigma]=       0.000000 meV     Z=       1.000000 lam=       0.000000
     E(   3 )=  -4.8087 eV   Re[Sigma]=       0.000000 meV Im[Sigma]=       0.000000 meV     Z=       1.000000 lam=       0.000000
     E(   4 )=  -3.6130 eV   Re[Sigma]=       0.000000 meV Im[Sigma]=       0.000000 meV     Z=       1.000000 lam=       0.000000
     -------------------------------------------------------------------


     ik =      29 coord.:    0.0000000   0.6666667   0.6666667
     -------------------------------------------------------------------
     E(   2 )=  -5.7377 eV   Re[Sigma]=       0.000000 meV Im[Sigma]=       0.000000 meV     Z=       1.000000 lam=       0.000000
     E(   3 )=  -3.1516 eV   Re[Sigma]=       0.000000 meV Im[Sigma]=       0.000000 meV     Z=       1.000000 lam=       0.000000
     E(   4 )=  -3.1516 eV   Re[Sigma]=       0.000000 meV Im[Sigma]=       0.000000 meV     Z=       1.000000 lam=       0.000000
     -------------------------------------------------------------------


     ik =      30 coord.:    0.0000000   0.6666667   0.8333333
     -------------------------------------------------------------------
     E(   2 )=  -5.3050 eV   Re[Sigma]=       9.806552 meV Im[Sigma]=      48.460982 meV     Z=       1.068212 lam=      -0.063856
     E(   3 )=  -1.9550 eV   Re[Sigma]=     -32.332262 meV Im[Sigma]=      72.360079 meV     Z=       0.901708 lam=       0.109006
     E(   4 )=  -1.7220 eV   Re[Sigma]=      12.076682 meV Im[Sigma]=     126.856253 meV     Z=       1.188685 lam=      -0.158734
     -------------------------------------------------------------------


     ik =      31 coord.:    0.0000000   0.8333333   0.0000000
     -------------------------------------------------------------------
     E(   2 )=  -2.1472 eV   Re[Sigma]=     -73.175659 meV Im[Sigma]=      76.017645 meV     Z=       0.921441 lam=       0.085257
     E(   3 )=  -0.3746 eV   Re[Sigma]=      76.478772 meV Im[Sigma]=     103.049792 meV     Z=       1.373999 lam=      -0.272198
     E(   4 )=  -0.3746 eV   Re[Sigma]=      76.478772 meV Im[Sigma]=     103.049792 meV     Z=       1.373999 lam=      -0.272198
     -------------------------------------------------------------------


     ik =      32 coord.:    0.0000000   0.8333333   0.1666667
     -------------------------------------------------------------------
     E(   2 )=  -4.2102 eV   Re[Sigma]=      -8.101276 meV Im[Sigma]=      32.730827 meV     Z=       1.060769 lam=      -0.057287
     E(   3 )=  -2.2152 eV   Re[Sigma]=     -65.044386 meV Im[Sigma]=      66.141380 meV     Z=       1.039487 lam=      -0.037987
     E(   4 )=  -0.4858 eV   Re[Sigma]=      32.651134 meV Im[Sigma]=     131.604654 meV     Z=       1.595849 lam=      -0.373374
     -------------------------------------------------------------------


     ik =      33 coord.:    0.0000000   0.8333333   0.3333333
     -------------------------------------------------------------------
     E(   2 )=  -7.7841 eV   Re[Sigma]=       9.256054 meV Im[Sigma]=      62.175152 meV     Z=       1.204636 lam=      -0.169873
     E(   3 )=  -3.5170 eV   Re[Sigma]=       1.504921 meV Im[Sigma]=      41.630767 meV     Z=       1.078686 lam=      -0.072947
     E(   4 )=  -1.4636 eV   Re[Sigma]=      44.770068 meV Im[Sigma]=      71.029399 meV     Z=       0.995323 lam=       0.004699
     -------------------------------------------------------------------


     ik =      34 coord.:    0.0000000   0.8333333   0.5000000
     -------------------------------------------------------------------
     E(   2 )=  -8.6498 eV   Re[Sigma]=       0.000000 meV Im[Sigma]=       0.000000 meV     Z=       1.000000 lam=       0.000000
     E(   3 )=  -3.0372 eV   Re[Sigma]=       0.000000 meV Im[Sigma]=       0.000000 meV     Z=       1.000000 lam=       0.000000
     E(   4 )=  -2.2836 eV   Re[Sigma]=       0.000000 meV Im[Sigma]=       0.000000 meV     Z=       1.000000 lam=       0.000000
     -------------------------------------------------------------------


     ik =      35 coord.:    0.0000000   0.8333333   0.6666667
     -------------------------------------------------------------------
     E(   2 )=  -5.3050 eV   Re[Sigma]=       4.032237 meV Im[Sigma]=      59.976045 meV     Z=       1.203481 lam=      -0.169077
     E(   3 )=  -1.9550 eV   Re[Sigma]=     -37.428404 meV Im[Sigma]=      88.240222 meV     Z=       0.979836 lam=       0.020579
     E(   4 )=  -1.7220 eV   Re[Sigma]=      13.890565 meV Im[Sigma]=     126.410420 meV     Z=       1.123128 lam=      -0.109629
     -------------------------------------------------------------------


     ik =      36 coord.:    0.0000000   0.8333333   0.8333333
     -------------------------------------------------------------------
     E(   2 )=  -1.7072 eV   Re[Sigma]=      19.471510 meV Im[Sigma]=     139.886089 meV     Z=       1.152676 lam=      -0.132454
     E(   3 )=  -1.0239 eV   Re[Sigma]=      68.582953 meV Im[Sigma]=      47.706218 meV     Z=       0.954840 lam=       0.047296
     E(   4 )=  -1.0239 eV   Re[Sigma]=      68.582953 meV Im[Sigma]=      47.706218 meV     Z=       0.954840 lam=       0.047296
     -------------------------------------------------------------------


     ik =      37 coord.:    0.1666667   0.0000000   0.0000000
     -------------------------------------------------------------------
     E(   2 )=  -2.1472 eV   Re[Sigma]=     -73.772038 meV Im[Sigma]=      66.428958 meV     Z=       0.898431 lam=       0.113051
     E(   3 )=  -0.3746 eV   Re[Sigma]=      85.851155 meV Im[Sigma]=      73.478771 meV     Z=       1.083403 lam=      -0.076983
     E(   4 )=  -0.3746 eV   Re[Sigma]=      85.851155 meV Im[Sigma]=      73.478771 meV     Z=       1.083403 lam=      -0.076983
     -------------------------------------------------------------------


     ik =      38 coord.:    0.1666667   0.0000000   0.1666667
     -------------------------------------------------------------------
     E(   2 )=  -1.7072 eV   Re[Sigma]=      19.471511 meV Im[Sigma]=     139.886088 meV     Z=       1.152676 lam=      -0.132454
     E(   3 )=  -1.0239 eV   Re[Sigma]=      68.582953 meV Im[Sigma]=      47.706219 meV     Z=       0.954840 lam=       0.047296
     E(   4 )=  -1.0239 eV   Re[Sigma]=      68.582953 meV Im[Sigma]=      47.706219 meV     Z=       0.954840 lam=       0.047296
     -------------------------------------------------------------------


     ik =      39 coord.:    0.1666667   0.0000000   0.3333333
     -------------------------------------------------------------------
     E(   2 )=  -5.3050 eV   Re[Sigma]=       8.847902 meV Im[Sigma]=      52.667717 meV     Z=       1.107630 lam=      -0.097171
     E(   3 )=  -1.9550 eV   Re[Sigma]=     -30.060014 meV Im[Sigma]=      78.773081 meV     Z=       0.902104 lam=       0.108520
     E(   4 )=  -1.7220 eV   Re[Sigma]=      15.132225 meV Im[Sigma]=     122.377254 meV     Z=       1.144514 lam=      -0.126267
     -------------------------------------------------------------------


     ik =      40 coord.:    0.1666667   0.0000000   0.5000000
     -------------------------------------------------------------------
     E(   2 )=  -8.6498 eV   Re[Sigma]=       0.000000 meV Im[Sigma]=       0.000000 meV     Z=       1.000000 lam=       0.000000
     E(   3 )=  -3.0372 eV   Re[Sigma]=       0.000000 meV Im[Sigma]=       0.000000 meV     Z=       1.000000 lam=       0.000000
     E(   4 )=  -2.2836 eV   Re[Sigma]=       0.000000 meV Im[Sigma]=       0.000000 meV     Z=       1.000000 lam=       0.000000
     -------------------------------------------------------------------


     ik =      41 coord.:    0.1666667   0.0000000   0.6666667
     -------------------------------------------------------------------
     E(   2 )=  -7.7841 eV   Re[Sigma]=       8.769209 meV Im[Sigma]=      57.668039 meV     Z=       1.181212 lam=      -0.153412
     E(   3 )=  -3.5170 eV   Re[Sigma]=       0.579159 meV Im[Sigma]=      40.468846 meV     Z=       1.082544 lam=      -0.076250
     E(   4 )=  -1.4636 eV   Re[Sigma]=      48.824515 meV Im[Sigma]=      61.965913 meV     Z=       0.913225 lam=       0.095020
     -------------------------------------------------------------------


     ik =      42 coord.:    0.1666667   0.0000000   0.8333333
     -------------------------------------------------------------------
     E(   2 )=  -4.2102 eV   Re[Sigma]=      -7.753287 meV Im[Sigma]=      32.583630 meV     Z=       1.062746 lam=      -0.059041
     E(   3 )=  -2.2152 eV   Re[Sigma]=     -66.728988 meV Im[Sigma]=      64.562814 meV     Z=       1.029587 lam=      -0.028736
     E(   4 )=  -0.4858 eV   Re[Sigma]=      46.321222 meV Im[Sigma]=     142.798535 meV     Z=       2.184744 lam=      -0.542280
     -------------------------------------------------------------------


     ik =      43 coord.:    0.1666667   0.1666667   0.0000000
     -------------------------------------------------------------------
     E(   2 )=  -1.7072 eV   Re[Sigma]=      19.471471 meV Im[Sigma]=     139.884967 meV     Z=       1.152669 lam=      -0.132448
     E(   3 )=  -1.0239 eV   Re[Sigma]=      68.583078 meV Im[Sigma]=      47.706371 meV     Z=       0.954840 lam=       0.047296
     E(   4 )=  -1.0239 eV   Re[Sigma]=      68.583078 meV Im[Sigma]=      47.706371 meV     Z=       0.954840 lam=       0.047296
     -------------------------------------------------------------------


     ik =      44 coord.:    0.1666667   0.1666667   0.1666667
     -------------------------------------------------------------------
     E(   2 )=  -2.1472 eV   Re[Sigma]=     -73.773871 meV Im[Sigma]=      66.430172 meV     Z=       0.898430 lam=       0.113053
     E(   3 )=  -0.3746 eV   Re[Sigma]=      85.850434 meV Im[Sigma]=      73.478407 meV     Z=       1.083404 lam=      -0.076983
     E(   4 )=  -0.3746 eV   Re[Sigma]=      85.850434 meV Im[Sigma]=      73.478407 meV     Z=       1.083404 lam=      -0.076983
     -------------------------------------------------------------------


     ik =      45 coord.:    0.1666667   0.1666667   0.3333333
     -------------------------------------------------------------------
     E(   2 )=  -4.2102 eV   Re[Sigma]=      -7.753287 meV Im[Sigma]=      32.583629 meV     Z=       1.062746 lam=      -0.059041
     E(   3 )=  -2.2152 eV   Re[Sigma]=     -66.728988 meV Im[Sigma]=      64.562816 meV     Z=       1.029587 lam=      -0.028736
     E(   4 )=  -0.4858 eV   Re[Sigma]=      46.321222 meV Im[Sigma]=     142.798537 meV     Z=       2.184744 lam=      -0.542281
     -------------------------------------------------------------------


     ik =      46 coord.:    0.1666667   0.1666667   0.5000000
     -------------------------------------------------------------------
     E(   2 )=  -7.7841 eV   Re[Sigma]=       8.769340 meV Im[Sigma]=      57.668019 meV     Z=       1.181212 lam=      -0.153412
     E(   3 )=  -3.5170 eV   Re[Sigma]=       0.579076 meV Im[Sigma]=      40.469001 meV     Z=       1.082544 lam=      -0.076250
     E(   4 )=  -1.4636 eV   Re[Sigma]=      48.824352 meV Im[Sigma]=      61.964859 meV     Z=       0.913220 lam=       0.095026
     -------------------------------------------------------------------


     ik =      47 coord.:    0.1666667   0.1666667   0.6666667
     -------------------------------------------------------------------
     E(   2 )=  -8.6498 eV   Re[Sigma]=       0.000000 meV Im[Sigma]=       0.000000 meV     Z=       1.000000 lam=       0.000000
     E(   3 )=  -3.0372 eV   Re[Sigma]=       0.000000 meV Im[Sigma]=       0.000000 meV     Z=       1.000000 lam=       0.000000
     E(   4 )=  -2.2836 eV   Re[Sigma]=       0.000000 meV Im[Sigma]=       0.000000 meV     Z=       1.000000 lam=       0.000000
     -------------------------------------------------------------------


     ik =      48 coord.:    0.1666667   0.1666667   0.8333333
     -------------------------------------------------------------------
     E(   2 )=  -5.3050 eV   Re[Sigma]=       8.847789 meV Im[Sigma]=      52.668120 meV     Z=       1.107631 lam=      -0.097172
     E(   3 )=  -1.9550 eV   Re[Sigma]=     -30.059385 meV Im[Sigma]=      78.772311 meV     Z=       0.902105 lam=       0.108518
     E(   4 )=  -1.7220 eV   Re[Sigma]=      15.132482 meV Im[Sigma]=     122.376482 meV     Z=       1.144510 lam=      -0.126263
     -------------------------------------------------------------------


     ik =      49 coord.:    0.1666667   0.3333333   0.0000000
     -------------------------------------------------------------------
     E(   2 )=  -5.3050 eV   Re[Sigma]=       9.806692 meV Im[Sigma]=      48.461024 meV     Z=       1.068213 lam=      -0.063857
     E(   3 )=  -1.9550 eV   Re[Sigma]=     -32.332795 meV Im[Sigma]=      72.360965 meV     Z=       0.901707 lam=       0.109008
     E(   4 )=  -1.7220 eV   Re[Sigma]=      12.075788 meV Im[Sigma]=     126.858582 meV     Z=       1.188703 lam=      -0.158747
     -------------------------------------------------------------------


     ik =      50 coord.:    0.1666667   0.3333333   0.1666667
     -------------------------------------------------------------------
     E(   2 )=  -4.2102 eV   Re[Sigma]=      -8.101291 meV Im[Sigma]=      32.730983 meV     Z=       1.060769 lam=      -0.057288
     E(   3 )=  -2.2152 eV   Re[Sigma]=     -65.044415 meV Im[Sigma]=      66.141420 meV     Z=       1.039487 lam=      -0.037987
     E(   4 )=  -0.4858 eV   Re[Sigma]=      32.651160 meV Im[Sigma]=     131.604598 meV     Z=       1.595846 lam=      -0.373373
     -------------------------------------------------------------------


     ik =      51 coord.:    0.1666667   0.3333333   0.3333333
     -------------------------------------------------------------------
     E(   2 )=  -5.3050 eV   Re[Sigma]=       8.847789 meV Im[Sigma]=      52.668119 meV     Z=       1.107631 lam=      -0.097172
     E(   3 )=  -1.9550 eV   Re[Sigma]=     -30.059385 meV Im[Sigma]=      78.772312 meV     Z=       0.902105 lam=       0.108518
     E(   4 )=  -1.7220 eV   Re[Sigma]=      15.132481 meV Im[Sigma]=     122.376487 meV     Z=       1.144510 lam=      -0.126264
     -------------------------------------------------------------------


     ik =      52 coord.:    0.1666667   0.3333333   0.5000000
     -------------------------------------------------------------------
     E(   2 )=  -6.8089 eV   Re[Sigma]=       0.000000 meV Im[Sigma]=       0.000000 meV     Z=       1.000000 lam=       0.000000
     E(   3 )=  -4.5766 eV   Re[Sigma]=       0.000000 meV Im[Sigma]=       0.000000 meV     Z=       1.000000 lam=       0.000000
     E(   4 )=  -2.4092 eV   Re[Sigma]=       0.000000 meV Im[Sigma]=       0.000000 meV     Z=       1.000000 lam=       0.000000
     -------------------------------------------------------------------


     ik =      53 coord.:    0.1666667   0.3333333   0.6666667
     -------------------------------------------------------------------
     E(   2 )=  -8.1182 eV   Re[Sigma]=       0.000000 meV Im[Sigma]=       0.000000 meV     Z=       1.000000 lam=       0.000000
     E(   3 )=  -5.4137 eV   Re[Sigma]=       0.000000 meV Im[Sigma]=       0.000000 meV     Z=       1.000000 lam=       0.000000
     E(   4 )=  -3.2174 eV   Re[Sigma]=       0.000000 meV Im[Sigma]=       0.000000 meV     Z=       1.000000 lam=       0.000000
     -------------------------------------------------------------------


     ik =      54 coord.:    0.1666667   0.3333333   0.8333333
     -------------------------------------------------------------------
     E(   2 )=  -6.8089 eV   Re[Sigma]=       0.000000 meV Im[Sigma]=       0.000000 meV     Z=       1.000000 lam=       0.000000
     E(   3 )=  -4.5766 eV   Re[Sigma]=       0.000000 meV Im[Sigma]=       0.000000 meV     Z=       1.000000 lam=       0.000000
     E(   4 )=  -2.4092 eV   Re[Sigma]=       0.000000 meV Im[Sigma]=       0.000000 meV     Z=       1.000000 lam=       0.000000
     -------------------------------------------------------------------


     ik =      55 coord.:    0.1666667   0.5000000   0.0000000
     -------------------------------------------------------------------
     E(   2 )=  -8.6498 eV   Re[Sigma]=       0.000000 meV Im[Sigma]=       0.000000 meV     Z=       1.000000 lam=       0.000000
     E(   3 )=  -3.0372 eV   Re[Sigma]=       0.000000 meV Im[Sigma]=       0.000000 meV     Z=       1.000000 lam=       0.000000
     E(   4 )=  -2.2836 eV   Re[Sigma]=       0.000000 meV Im[Sigma]=       0.000000 meV     Z=       1.000000 lam=       0.000000
     -------------------------------------------------------------------


     ik =      56 coord.:    0.1666667   0.5000000   0.1666667
     -------------------------------------------------------------------
     E(   2 )=  -7.7841 eV   Re[Sigma]=       9.574668 meV Im[Sigma]=      50.981307 meV     Z=       1.121086 lam=      -0.108008
     E(   3 )=  -3.5170 eV   Re[Sigma]=       0.521525 meV Im[Sigma]=      41.363426 meV     Z=       1.086831 lam=      -0.079894
     E(   4 )=  -1.4636 eV   Re[Sigma]=      48.661584 meV Im[Sigma]=      64.831241 meV     Z=       0.924400 lam=       0.081783
     -------------------------------------------------------------------


     ik =      57 coord.:    0.1666667   0.5000000   0.3333333
     -------------------------------------------------------------------
     E(   2 )=  -6.8089 eV   Re[Sigma]=       0.000000 meV Im[Sigma]=       0.000000 meV     Z=       1.000000 lam=       0.000000
     E(   3 )=  -4.5766 eV   Re[Sigma]=       0.000000 meV Im[Sigma]=       0.000000 meV     Z=       1.000000 lam=       0.000000
     E(   4 )=  -2.4092 eV   Re[Sigma]=       0.000000 meV Im[Sigma]=       0.000000 meV     Z=       1.000000 lam=       0.000000
     -------------------------------------------------------------------


     ik =      58 coord.:    0.1666667   0.5000000   0.5000000
     -------------------------------------------------------------------
     E(   2 )=  -7.6363 eV   Re[Sigma]=       0.000000 meV Im[Sigma]=       0.000000 meV     Z=       1.000000 lam=       0.000000
     E(   3 )=  -4.8087 eV   Re[Sigma]=       0.000000 meV Im[Sigma]=       0.000000 meV     Z=       1.000000 lam=       0.000000
     E(   4 )=  -3.6130 eV   Re[Sigma]=       0.000000 meV Im[Sigma]=       0.000000 meV     Z=       1.000000 lam=       0.000000
     -------------------------------------------------------------------


     ik =      59 coord.:    0.1666667   0.5000000   0.6666667
     -------------------------------------------------------------------
     E(   2 )=  -7.8765 eV   Re[Sigma]=       0.000000 meV Im[Sigma]=       0.000000 meV     Z=       1.000000 lam=       0.000000
     E(   3 )=  -5.6007 eV   Re[Sigma]=       0.000000 meV Im[Sigma]=       0.000000 meV     Z=       1.000000 lam=       0.000000
     E(   4 )=  -4.3908 eV   Re[Sigma]=       0.000000 meV Im[Sigma]=       0.000000 meV     Z=       1.000000 lam=       0.000000
     -------------------------------------------------------------------


     ik =      60 coord.:    0.1666667   0.5000000   0.8333333
     -------------------------------------------------------------------
     E(   2 )=  -8.1182 eV   Re[Sigma]=       0.000000 meV Im[Sigma]=       0.000000 meV     Z=       1.000000 lam=       0.000000
     E(   3 )=  -5.4137 eV   Re[Sigma]=       0.000000 meV Im[Sigma]=       0.000000 meV     Z=       1.000000 lam=       0.000000
     E(   4 )=  -3.2174 eV   Re[Sigma]=       0.000000 meV Im[Sigma]=       0.000000 meV     Z=       1.000000 lam=       0.000000
     -------------------------------------------------------------------


     ik =      61 coord.:    0.1666667   0.6666667   0.0000000
     -------------------------------------------------------------------
     E(   2 )=  -7.7841 eV   Re[Sigma]=       9.574581 meV Im[Sigma]=      50.981143 meV     Z=       1.121084 lam=      -0.108006
     E(   3 )=  -3.5170 eV   Re[Sigma]=       0.521674 meV Im[Sigma]=      41.363302 meV     Z=       1.086832 lam=      -0.079894
     E(   4 )=  -1.4636 eV   Re[Sigma]=      48.662312 meV Im[Sigma]=      64.830417 meV     Z=       0.924396 lam=       0.081788
     -------------------------------------------------------------------


     ik =      62 coord.:    0.1666667   0.6666667   0.1666667
     -------------------------------------------------------------------
     E(   2 )=  -8.6498 eV   Re[Sigma]=       0.000000 meV Im[Sigma]=       0.000000 meV     Z=       1.000000 lam=       0.000000
     E(   3 )=  -3.0372 eV   Re[Sigma]=       0.000000 meV Im[Sigma]=       0.000000 meV     Z=       1.000000 lam=       0.000000
     E(   4 )=  -2.2836 eV   Re[Sigma]=       0.000000 meV Im[Sigma]=       0.000000 meV     Z=       1.000000 lam=       0.000000
     -------------------------------------------------------------------


     ik =      63 coord.:    0.1666667   0.6666667   0.3333333
     -------------------------------------------------------------------
     E(   2 )=  -8.1182 eV   Re[Sigma]=       0.000000 meV Im[Sigma]=       0.000000 meV     Z=       1.000000 lam=       0.000000
     E(   3 )=  -5.4137 eV   Re[Sigma]=       0.000000 meV Im[Sigma]=       0.000000 meV     Z=       1.000000 lam=       0.000000
     E(   4 )=  -3.2174 eV   Re[Sigma]=       0.000000 meV Im[Sigma]=       0.000000 meV     Z=       1.000000 lam=       0.000000
     -------------------------------------------------------------------


     ik =      64 coord.:    0.1666667   0.6666667   0.5000000
     -------------------------------------------------------------------
     E(   2 )=  -7.8765 eV   Re[Sigma]=       0.000000 meV Im[Sigma]=       0.000000 meV     Z=       1.000000 lam=       0.000000
     E(   3 )=  -5.6007 eV   Re[Sigma]=       0.000000 meV Im[Sigma]=       0.000000 meV     Z=       1.000000 lam=       0.000000
     E(   4 )=  -4.3908 eV   Re[Sigma]=       0.000000 meV Im[Sigma]=       0.000000 meV     Z=       1.000000 lam=       0.000000
     -------------------------------------------------------------------


     ik =      65 coord.:    0.1666667   0.6666667   0.6666667
     -------------------------------------------------------------------
     E(   2 )=  -7.6363 eV   Re[Sigma]=       0.000000 meV Im[Sigma]=       0.000000 meV     Z=       1.000000 lam=       0.000000
     E(   3 )=  -4.8087 eV   Re[Sigma]=       0.000000 meV Im[Sigma]=       0.000000 meV     Z=       1.000000 lam=       0.000000
     E(   4 )=  -3.6130 eV   Re[Sigma]=       0.000000 meV Im[Sigma]=       0.000000 meV     Z=       1.000000 lam=       0.000000
     -------------------------------------------------------------------


     ik =      66 coord.:    0.1666667   0.6666667   0.8333333
     -------------------------------------------------------------------
     E(   2 )=  -6.8089 eV   Re[Sigma]=       0.000000 meV Im[Sigma]=       0.000000 meV     Z=       1.000000 lam=       0.000000
     E(   3 )=  -4.5766 eV   Re[Sigma]=       0.000000 meV Im[Sigma]=       0.000000 meV     Z=       1.000000 lam=       0.000000
     E(   4 )=  -2.4092 eV   Re[Sigma]=       0.000000 meV Im[Sigma]=       0.000000 meV     Z=       1.000000 lam=       0.000000
     -------------------------------------------------------------------


     ik =      67 coord.:    0.1666667   0.8333333   0.0000000
     -------------------------------------------------------------------
     E(   2 )=  -4.2102 eV   Re[Sigma]=      -8.101276 meV Im[Sigma]=      32.730828 meV     Z=       1.060769 lam=      -0.057287
     E(   3 )=  -2.2152 eV   Re[Sigma]=     -65.044386 meV Im[Sigma]=      66.141379 meV     Z=       1.039487 lam=      -0.037987
     E(   4 )=  -0.4858 eV   Re[Sigma]=      32.651133 meV Im[Sigma]=     131.604653 meV     Z=       1.595849 lam=      -0.373374
     -------------------------------------------------------------------


     ik =      68 coord.:    0.1666667   0.8333333   0.1666667
     -------------------------------------------------------------------
     E(   2 )=  -5.3050 eV   Re[Sigma]=       9.806553 meV Im[Sigma]=      48.460982 meV     Z=       1.068212 lam=      -0.063856
     E(   3 )=  -1.9550 eV   Re[Sigma]=     -32.332262 meV Im[Sigma]=      72.360079 meV     Z=       0.901708 lam=       0.109006
     E(   4 )=  -1.7220 eV   Re[Sigma]=      12.076682 meV Im[Sigma]=     126.856252 meV     Z=       1.188685 lam=      -0.158734
     -------------------------------------------------------------------


     ik =      69 coord.:    0.1666667   0.8333333   0.3333333
     -------------------------------------------------------------------
     E(   2 )=  -6.8089 eV   Re[Sigma]=       0.000000 meV Im[Sigma]=       0.000000 meV     Z=       1.000000 lam=       0.000000
     E(   3 )=  -4.5766 eV   Re[Sigma]=       0.000000 meV Im[Sigma]=       0.000000 meV     Z=       1.000000 lam=       0.000000
     E(   4 )=  -2.4092 eV   Re[Sigma]=       0.000000 meV Im[Sigma]=       0.000000 meV     Z=       1.000000 lam=       0.000000
     -------------------------------------------------------------------


     ik =      70 coord.:    0.1666667   0.8333333   0.5000000
     -------------------------------------------------------------------
     E(   2 )=  -8.1182 eV   Re[Sigma]=       0.000000 meV Im[Sigma]=       0.000000 meV     Z=       1.000000 lam=       0.000000
     E(   3 )=  -5.4137 eV   Re[Sigma]=       0.000000 meV Im[Sigma]=       0.000000 meV     Z=       1.000000 lam=       0.000000
     E(   4 )=  -3.2174 eV   Re[Sigma]=       0.000000 meV Im[Sigma]=       0.000000 meV     Z=       1.000000 lam=       0.000000
     -------------------------------------------------------------------


     ik =      71 coord.:    0.1666667   0.8333333   0.6666667
     -------------------------------------------------------------------
     E(   2 )=  -6.8089 eV   Re[Sigma]=       0.000000 meV Im[Sigma]=       0.000000 meV     Z=       1.000000 lam=       0.000000
     E(   3 )=  -4.5766 eV   Re[Sigma]=       0.000000 meV Im[Sigma]=       0.000000 meV     Z=       1.000000 lam=       0.000000
     E(   4 )=  -2.4092 eV   Re[Sigma]=       0.000000 meV Im[Sigma]=       0.000000 meV     Z=       1.000000 lam=       0.000000
     -------------------------------------------------------------------


     ik =      72 coord.:    0.1666667   0.8333333   0.8333333
     -------------------------------------------------------------------
     E(   2 )=  -5.3050 eV   Re[Sigma]=       8.847902 meV Im[Sigma]=      52.667717 meV     Z=       1.107630 lam=      -0.097171
     E(   3 )=  -1.9550 eV   Re[Sigma]=     -30.060015 meV Im[Sigma]=      78.773082 meV     Z=       0.902104 lam=       0.108520
     E(   4 )=  -1.7220 eV   Re[Sigma]=      15.132224 meV Im[Sigma]=     122.377254 meV     Z=       1.144514 lam=      -0.126267
     -------------------------------------------------------------------


     ik =      73 coord.:    0.3333333   0.0000000   0.0000000
     -------------------------------------------------------------------
     E(   2 )=  -6.8685 eV   Re[Sigma]=      -0.299512 meV Im[Sigma]=      10.691590 meV     Z=       0.996729 lam=       0.003282
     E(   3 )=  -1.1730 eV   Re[Sigma]=      53.611452 meV Im[Sigma]=      73.260169 meV     Z=       1.016694 lam=      -0.016420
     E(   4 )=  -1.1730 eV   Re[Sigma]=      53.611452 meV Im[Sigma]=      73.260169 meV     Z=       1.016694 lam=      -0.016420
     -------------------------------------------------------------------


     ik =      74 coord.:    0.3333333   0.0000000   0.1666667
     -------------------------------------------------------------------
     E(   2 )=  -5.3050 eV   Re[Sigma]=       8.847902 meV Im[Sigma]=      52.667717 meV     Z=       1.107630 lam=      -0.097171
     E(   3 )=  -1.9550 eV   Re[Sigma]=     -30.060014 meV Im[Sigma]=      78.773081 meV     Z=       0.902104 lam=       0.108520
     E(   4 )=  -1.7220 eV   Re[Sigma]=      15.132224 meV Im[Sigma]=     122.377254 meV     Z=       1.144514 lam=      -0.126267
     -------------------------------------------------------------------


     ik =      75 coord.:    0.3333333   0.0000000   0.3333333
     -------------------------------------------------------------------
     E(   2 )=  -5.7377 eV   Re[Sigma]=       0.000000 meV Im[Sigma]=       0.000000 meV     Z=       1.000000 lam=       0.000000
     E(   3 )=  -3.1516 eV   Re[Sigma]=       0.000000 meV Im[Sigma]=       0.000000 meV     Z=       1.000000 lam=       0.000000
     E(   4 )=  -3.1516 eV   Re[Sigma]=       0.000000 meV Im[Sigma]=       0.000000 meV     Z=       1.000000 lam=       0.000000
     -------------------------------------------------------------------


     ik =      76 coord.:    0.3333333   0.0000000   0.5000000
     -------------------------------------------------------------------
     E(   2 )=  -7.6363 eV   Re[Sigma]=       0.000000 meV Im[Sigma]=       0.000000 meV     Z=       1.000000 lam=       0.000000
     E(   3 )=  -4.8087 eV   Re[Sigma]=       0.000000 meV Im[Sigma]=       0.000000 meV     Z=       1.000000 lam=       0.000000
     E(   4 )=  -3.6130 eV   Re[Sigma]=       0.000000 meV Im[Sigma]=       0.000000 meV     Z=       1.000000 lam=       0.000000
     -------------------------------------------------------------------


     ik =      77 coord.:    0.3333333   0.0000000   0.6666667
     -------------------------------------------------------------------
     E(   2 )=  -7.7256 eV   Re[Sigma]=       0.000000 meV Im[Sigma]=       0.000000 meV     Z=       1.000000 lam=       0.000000
     E(   3 )=  -6.3198 eV   Re[Sigma]=       0.000000 meV Im[Sigma]=       0.000000 meV     Z=       1.000000 lam=       0.000000
     E(   4 )=  -2.7070 eV   Re[Sigma]=       0.000000 meV Im[Sigma]=       0.000000 meV     Z=       1.000000 lam=       0.000000
     -------------------------------------------------------------------


     ik =      78 coord.:    0.3333333   0.0000000   0.8333333
     -------------------------------------------------------------------
     E(   2 )=  -7.7841 eV   Re[Sigma]=       8.769340 meV Im[Sigma]=      57.668021 meV     Z=       1.181212 lam=      -0.153412
     E(   3 )=  -3.5170 eV   Re[Sigma]=       0.579076 meV Im[Sigma]=      40.469000 meV     Z=       1.082544 lam=      -0.076250
     E(   4 )=  -1.4636 eV   Re[Sigma]=      48.824352 meV Im[Sigma]=      61.964859 meV     Z=       0.913220 lam=       0.095026
     -------------------------------------------------------------------


     ik =      79 coord.:    0.3333333   0.1666667   0.0000000
     -------------------------------------------------------------------
     E(   2 )=  -5.3050 eV   Re[Sigma]=       4.032521 meV Im[Sigma]=      59.975477 meV     Z=       1.203476 lam=      -0.169073
     E(   3 )=  -1.9550 eV   Re[Sigma]=     -37.428985 meV Im[Sigma]=      88.241474 meV     Z=       0.979834 lam=       0.020581
     E(   4 )=  -1.7220 eV   Re[Sigma]=      13.891103 meV Im[Sigma]=     126.410916 meV     Z=       1.123131 lam=      -0.109632
     -------------------------------------------------------------------


     ik =      80 coord.:    0.3333333   0.1666667   0.1666667
     -------------------------------------------------------------------
     E(   2 )=  -4.2102 eV   Re[Sigma]=      -7.753287 meV Im[Sigma]=      32.583630 meV     Z=       1.062746 lam=      -0.059041
     E(   3 )=  -2.2152 eV   Re[Sigma]=     -66.728989 meV Im[Sigma]=      64.562816 meV     Z=       1.029587 lam=      -0.028736
     E(   4 )=  -0.4858 eV   Re[Sigma]=      46.321222 meV Im[Sigma]=     142.798536 meV     Z=       2.184744 lam=      -0.542280
     -------------------------------------------------------------------


     ik =      81 coord.:    0.3333333   0.1666667   0.3333333
     -------------------------------------------------------------------
     E(   2 )=  -5.3050 eV   Re[Sigma]=       4.032237 meV Im[Sigma]=      59.976043 meV     Z=       1.203481 lam=      -0.169077
     E(   3 )=  -1.9550 eV   Re[Sigma]=     -37.428404 meV Im[Sigma]=      88.240225 meV     Z=       0.979836 lam=       0.020579
     E(   4 )=  -1.7220 eV   Re[Sigma]=      13.890565 meV Im[Sigma]=     126.410420 meV     Z=       1.123128 lam=      -0.109629
     -------------------------------------------------------------------


     ik =      82 coord.:    0.3333333   0.1666667   0.5000000
     -------------------------------------------------------------------
     E(   2 )=  -6.8089 eV   Re[Sigma]=       0.000000 meV Im[Sigma]=       0.000000 meV     Z=       1.000000 lam=       0.000000
     E(   3 )=  -4.5766 eV   Re[Sigma]=       0.000000 meV Im[Sigma]=       0.000000 meV     Z=       1.000000 lam=       0.000000
     E(   4 )=  -2.4092 eV   Re[Sigma]=       0.000000 meV Im[Sigma]=       0.000000 meV     Z=       1.000000 lam=       0.000000
     -------------------------------------------------------------------


     ik =      83 coord.:    0.3333333   0.1666667   0.6666667
     -------------------------------------------------------------------
     E(   2 )=  -8.1182 eV   Re[Sigma]=       0.000000 meV Im[Sigma]=       0.000000 meV     Z=       1.000000 lam=       0.000000
     E(   3 )=  -5.4137 eV   Re[Sigma]=       0.000000 meV Im[Sigma]=       0.000000 meV     Z=       1.000000 lam=       0.000000
     E(   4 )=  -3.2174 eV   Re[Sigma]=       0.000000 meV Im[Sigma]=       0.000000 meV     Z=       1.000000 lam=       0.000000
     -------------------------------------------------------------------


     ik =      84 coord.:    0.3333333   0.1666667   0.8333333
     -------------------------------------------------------------------
     E(   2 )=  -6.8089 eV   Re[Sigma]=       0.000000 meV Im[Sigma]=       0.000000 meV     Z=       1.000000 lam=       0.000000
     E(   3 )=  -4.5766 eV   Re[Sigma]=       0.000000 meV Im[Sigma]=       0.000000 meV     Z=       1.000000 lam=       0.000000
     E(   4 )=  -2.4092 eV   Re[Sigma]=       0.000000 meV Im[Sigma]=       0.000000 meV     Z=       1.000000 lam=       0.000000
     -------------------------------------------------------------------


     ik =      85 coord.:    0.3333333   0.3333333   0.0000000
     -------------------------------------------------------------------
     E(   2 )=  -5.7377 eV   Re[Sigma]=       0.000000 meV Im[Sigma]=       0.000000 meV     Z=       1.000000 lam=       0.000000
     E(   3 )=  -3.1516 eV   Re[Sigma]=       0.000000 meV Im[Sigma]=       0.000000 meV     Z=       1.000000 lam=       0.000000
     E(   4 )=  -3.1516 eV   Re[Sigma]=       0.000000 meV Im[Sigma]=       0.000000 meV     Z=       1.000000 lam=       0.000000
     -------------------------------------------------------------------


     ik =      86 coord.:    0.3333333   0.3333333   0.1666667
     -------------------------------------------------------------------
     E(   2 )=  -5.3050 eV   Re[Sigma]=       8.847789 meV Im[Sigma]=      52.668120 meV     Z=       1.107631 lam=      -0.097172
     E(   3 )=  -1.9550 eV   Re[Sigma]=     -30.059385 meV Im[Sigma]=      78.772313 meV     Z=       0.902105 lam=       0.108518
     E(   4 )=  -1.7220 eV   Re[Sigma]=      15.132482 meV Im[Sigma]=     122.376485 meV     Z=       1.144510 lam=      -0.126263
     -------------------------------------------------------------------


     ik =      87 coord.:    0.3333333   0.3333333   0.3333333
     -------------------------------------------------------------------
     E(   2 )=  -6.8685 eV   Re[Sigma]=      -0.299509 meV Im[Sigma]=      10.691786 meV     Z=       0.996729 lam=       0.003282
     E(   3 )=  -1.1730 eV   Re[Sigma]=      53.610611 meV Im[Sigma]=      73.258782 meV     Z=       1.016694 lam=      -0.016420
     E(   4 )=  -1.1730 eV   Re[Sigma]=      53.610611 meV Im[Sigma]=      73.258782 meV     Z=       1.016694 lam=      -0.016420
     -------------------------------------------------------------------


     ik =      88 coord.:    0.3333333   0.3333333   0.5000000
     -------------------------------------------------------------------
     E(   2 )=  -7.7841 eV   Re[Sigma]=       8.769209 meV Im[Sigma]=      57.668038 meV     Z=       1.181212 lam=      -0.153412
     E(   3 )=  -3.5170 eV   Re[Sigma]=       0.579160 meV Im[Sigma]=      40.468847 meV     Z=       1.082544 lam=      -0.076250
     E(   4 )=  -1.4636 eV   Re[Sigma]=      48.824515 meV Im[Sigma]=      61.965913 meV     Z=       0.913225 lam=       0.095020
     -------------------------------------------------------------------


     ik =      89 coord.:    0.3333333   0.3333333   0.6666667
     -------------------------------------------------------------------
     E(   2 )=  -7.7256 eV   Re[Sigma]=       0.000000 meV Im[Sigma]=       0.000000 meV     Z=       1.000000 lam=       0.000000
     E(   3 )=  -6.3198 eV   Re[Sigma]=       0.000000 meV Im[Sigma]=       0.000000 meV     Z=       1.000000 lam=       0.000000
     E(   4 )=  -2.7070 eV   Re[Sigma]=       0.000000 meV Im[Sigma]=       0.000000 meV     Z=       1.000000 lam=       0.000000
     -------------------------------------------------------------------


     ik =      90 coord.:    0.3333333   0.3333333   0.8333333
     -------------------------------------------------------------------
     E(   2 )=  -7.6363 eV   Re[Sigma]=       0.000000 meV Im[Sigma]=       0.000000 meV     Z=       1.000000 lam=       0.000000
     E(   3 )=  -4.8087 eV   Re[Sigma]=       0.000000 meV Im[Sigma]=       0.000000 meV     Z=       1.000000 lam=       0.000000
     E(   4 )=  -3.6130 eV   Re[Sigma]=       0.000000 meV Im[Sigma]=       0.000000 meV     Z=       1.000000 lam=       0.000000
     -------------------------------------------------------------------


     ik =      91 coord.:    0.3333333   0.5000000   0.0000000
     -------------------------------------------------------------------
     E(   2 )=  -7.6363 eV   Re[Sigma]=       0.000000 meV Im[Sigma]=       0.000000 meV     Z=       1.000000 lam=       0.000000
     E(   3 )=  -4.8087 eV   Re[Sigma]=       0.000000 meV Im[Sigma]=       0.000000 meV     Z=       1.000000 lam=       0.000000
     E(   4 )=  -3.6130 eV   Re[Sigma]=       0.000000 meV Im[Sigma]=       0.000000 meV     Z=       1.000000 lam=       0.000000
     -------------------------------------------------------------------


     ik =      92 coord.:    0.3333333   0.5000000   0.1666667
     -------------------------------------------------------------------
     E(   2 )=  -6.8089 eV   Re[Sigma]=       0.000000 meV Im[Sigma]=       0.000000 meV     Z=       1.000000 lam=       0.000000
     E(   3 )=  -4.5766 eV   Re[Sigma]=       0.000000 meV Im[Sigma]=       0.000000 meV     Z=       1.000000 lam=       0.000000
     E(   4 )=  -2.4092 eV   Re[Sigma]=       0.000000 meV Im[Sigma]=       0.000000 meV     Z=       1.000000 lam=       0.000000
     -------------------------------------------------------------------


     ik =      93 coord.:    0.3333333   0.5000000   0.3333333
     -------------------------------------------------------------------
     E(   2 )=  -7.7841 eV   Re[Sigma]=       9.256085 meV Im[Sigma]=      62.175203 meV     Z=       1.204635 lam=      -0.169873
     E(   3 )=  -3.5170 eV   Re[Sigma]=       1.505223 meV Im[Sigma]=      41.630616 meV     Z=       1.078686 lam=      -0.072946
     E(   4 )=  -1.4636 eV   Re[Sigma]=      44.770668 meV Im[Sigma]=      71.028382 meV     Z=       0.995314 lam=       0.004708
     -------------------------------------------------------------------


     ik =      94 coord.:    0.3333333   0.5000000   0.5000000
     -------------------------------------------------------------------
     E(   2 )=  -8.6498 eV   Re[Sigma]=       0.000000 meV Im[Sigma]=       0.000000 meV     Z=       1.000000 lam=       0.000000
     E(   3 )=  -3.0372 eV   Re[Sigma]=       0.000000 meV Im[Sigma]=       0.000000 meV     Z=       1.000000 lam=       0.000000
     E(   4 )=  -2.2836 eV   Re[Sigma]=       0.000000 meV Im[Sigma]=       0.000000 meV     Z=       1.000000 lam=       0.000000
     -------------------------------------------------------------------


     ik =      95 coord.:    0.3333333   0.5000000   0.6666667
     -------------------------------------------------------------------
     E(   2 )=  -8.1182 eV   Re[Sigma]=       0.000000 meV Im[Sigma]=       0.000000 meV     Z=       1.000000 lam=       0.000000
     E(   3 )=  -5.4137 eV   Re[Sigma]=       0.000000 meV Im[Sigma]=       0.000000 meV     Z=       1.000000 lam=       0.000000
     E(   4 )=  -3.2174 eV   Re[Sigma]=       0.000000 meV Im[Sigma]=       0.000000 meV     Z=       1.000000 lam=       0.000000
     -------------------------------------------------------------------


     ik =      96 coord.:    0.3333333   0.5000000   0.8333333
     -------------------------------------------------------------------
     E(   2 )=  -7.8765 eV   Re[Sigma]=       0.000000 meV Im[Sigma]=       0.000000 meV     Z=       1.000000 lam=       0.000000
     E(   3 )=  -5.6007 eV   Re[Sigma]=       0.000000 meV Im[Sigma]=       0.000000 meV     Z=       1.000000 lam=       0.000000
     E(   4 )=  -4.3908 eV   Re[Sigma]=       0.000000 meV Im[Sigma]=       0.000000 meV     Z=       1.000000 lam=       0.000000
     -------------------------------------------------------------------


     ik =      97 coord.:    0.3333333   0.6666667   0.0000000
     -------------------------------------------------------------------
     E(   2 )=  -7.7256 eV   Re[Sigma]=       0.000000 meV Im[Sigma]=       0.000000 meV     Z=       1.000000 lam=       0.000000
     E(   3 )=  -6.3198 eV   Re[Sigma]=       0.000000 meV Im[Sigma]=       0.000000 meV     Z=       1.000000 lam=       0.000000
     E(   4 )=  -2.7070 eV   Re[Sigma]=       0.000000 meV Im[Sigma]=       0.000000 meV     Z=       1.000000 lam=       0.000000
     -------------------------------------------------------------------


     ik =      98 coord.:    0.3333333   0.6666667   0.1666667
     -------------------------------------------------------------------
     E(   2 )=  -8.1182 eV   Re[Sigma]=       0.000000 meV Im[Sigma]=       0.000000 meV     Z=       1.000000 lam=       0.000000
     E(   3 )=  -5.4137 eV   Re[Sigma]=       0.000000 meV Im[Sigma]=       0.000000 meV     Z=       1.000000 lam=       0.000000
     E(   4 )=  -3.2174 eV   Re[Sigma]=       0.000000 meV Im[Sigma]=       0.000000 meV     Z=       1.000000 lam=       0.000000
     -------------------------------------------------------------------


     ik =      99 coord.:    0.3333333   0.6666667   0.3333333
     -------------------------------------------------------------------
     E(   2 )=  -7.7256 eV   Re[Sigma]=       0.000000 meV Im[Sigma]=       0.000000 meV     Z=       1.000000 lam=       0.000000
     E(   3 )=  -6.3198 eV   Re[Sigma]=       0.000000 meV Im[Sigma]=       0.000000 meV     Z=       1.000000 lam=       0.000000
     E(   4 )=  -2.7070 eV   Re[Sigma]=       0.000000 meV Im[Sigma]=       0.000000 meV     Z=       1.000000 lam=       0.000000
     -------------------------------------------------------------------


     ik =     100 coord.:    0.3333333   0.6666667   0.5000000
     -------------------------------------------------------------------
     E(   2 )=  -8.1182 eV   Re[Sigma]=       0.000000 meV Im[Sigma]=       0.000000 meV     Z=       1.000000 lam=       0.000000
     E(   3 )=  -5.4137 eV   Re[Sigma]=       0.000000 meV Im[Sigma]=       0.000000 meV     Z=       1.000000 lam=       0.000000
     E(   4 )=  -3.2174 eV   Re[Sigma]=       0.000000 meV Im[Sigma]=       0.000000 meV     Z=       1.000000 lam=       0.000000
     -------------------------------------------------------------------


     ik =     101 coord.:    0.3333333   0.6666667   0.6666667
     -------------------------------------------------------------------
     E(   2 )=  -7.7256 eV   Re[Sigma]=       0.000000 meV Im[Sigma]=       0.000000 meV     Z=       1.000000 lam=       0.000000
     E(   3 )=  -6.3198 eV   Re[Sigma]=       0.000000 meV Im[Sigma]=       0.000000 meV     Z=       1.000000 lam=       0.000000
     E(   4 )=  -2.7070 eV   Re[Sigma]=       0.000000 meV Im[Sigma]=       0.000000 meV     Z=       1.000000 lam=       0.000000
     -------------------------------------------------------------------


     ik =     102 coord.:    0.3333333   0.6666667   0.8333333
     -------------------------------------------------------------------
     E(   2 )=  -8.1182 eV   Re[Sigma]=       0.000000 meV Im[Sigma]=       0.000000 meV     Z=       1.000000 lam=       0.000000
     E(   3 )=  -5.4137 eV   Re[Sigma]=       0.000000 meV Im[Sigma]=       0.000000 meV     Z=       1.000000 lam=       0.000000
     E(   4 )=  -3.2174 eV   Re[Sigma]=       0.000000 meV Im[Sigma]=       0.000000 meV     Z=       1.000000 lam=       0.000000
     -------------------------------------------------------------------


     ik =     103 coord.:    0.3333333   0.8333333   0.0000000
     -------------------------------------------------------------------
     E(   2 )=  -7.7841 eV   Re[Sigma]=       9.256054 meV Im[Sigma]=      62.175152 meV     Z=       1.204636 lam=      -0.169873
[...]
      206        3     -4.5766      0.0000      0.0000      1.0000      0.0000
      207        3     -5.4137      0.0000      0.0000      1.0000      0.0000
      208        3     -4.5766      0.0000      0.0000      1.0000      0.0000
      209        3     -1.9550    -30.0600     78.7731      0.9021      0.1085
      210        3     -2.2152    -65.0444     66.1414      1.0395     -0.0380
      211        3     -1.0239     68.5830     47.7062      0.9548      0.0473
      212        3     -1.9550    -30.0600     78.7731      0.9021      0.1085
      213        3     -3.0372      0.0000      0.0000      1.0000      0.0000
      214        3     -3.5170      0.5792     40.4688      1.0825     -0.0763
      215        3     -2.2152    -66.7290     64.5628      1.0296     -0.0287
      216        3     -0.3746     85.8512     73.4788      1.0834     -0.0770
  
        1        4     -0.0842     75.0596      4.2755      0.9111      0.0976
        2        4     -0.3746     85.8512     73.4788      1.0834     -0.0770
        3        4     -1.1730     53.6115     73.2602      1.0167     -0.0164
        4        4     -1.6810     22.7456    101.1321      0.9496      0.0531
        5        4     -1.1730     53.6106     73.2588      1.0167     -0.0164
        6        4     -0.3746     85.8504     73.4784      1.0834     -0.0770
        7        4     -0.3746     76.4792    103.0515      1.3740     -0.2722
        8        4     -1.0239     68.5831     47.7064      0.9548      0.0473
        9        4     -1.7220     13.8911    126.4109      1.1231     -0.1096
       10        4     -2.2836      0.0000      0.0000      1.0000      0.0000
       11        4     -1.4636     44.7707     71.0284      0.9953      0.0047
       12        4     -0.4858     32.6512    131.6046      1.5958     -0.3734
       13        4     -1.1730     51.4655     69.0850      0.9820      0.0183
       14        4     -1.7220     12.0758    126.8586      1.1887     -0.1587
       15        4     -3.1516      0.0000      0.0000      1.0000      0.0000
       16        4     -3.6130      0.0000      0.0000      1.0000      0.0000
       17        4     -2.7070      0.0000      0.0000      1.0000      0.0000
       18        4     -1.4636     48.6616     64.8312      0.9244      0.0818
       19        4     -1.6810     25.4825    106.3256      0.9568      0.0451
       20        4     -2.2836      0.0000      0.0000      1.0000      0.0000
       21        4     -3.6130      0.0000      0.0000      1.0000      0.0000
       22        4     -4.3397      0.0000      0.0000      1.0000      0.0000
       23        4     -3.6130      0.0000      0.0000      1.0000      0.0000
       24        4     -2.2836      0.0000      0.0000      1.0000      0.0000
       25        4     -1.1730     51.4643     69.0837      0.9820      0.0183
       26        4     -1.4636     48.6623     64.8304      0.9244      0.0818
       27        4     -2.7070      0.0000      0.0000      1.0000      0.0000
       28        4     -3.6130      0.0000      0.0000      1.0000      0.0000
       29        4     -3.1516      0.0000      0.0000      1.0000      0.0000
       30        4     -1.7220     12.0767    126.8563      1.1887     -0.1587
       31        4     -0.3746     76.4788    103.0498      1.3740     -0.2722
       32        4     -0.4858     32.6511    131.6047      1.5958     -0.3734
       33        4     -1.4636     44.7701     71.0294      0.9953      0.0047
       34        4     -2.2836      0.0000      0.0000      1.0000      0.0000
       35        4     -1.7220     13.8906    126.4104      1.1231     -0.1096
       36        4     -1.0239     68.5830     47.7062      0.9548      0.0473
       37        4     -0.3746     85.8512     73.4788      1.0834     -0.0770
       38        4     -1.0239     68.5830     47.7062      0.9548      0.0473
       39        4     -1.7220     15.1322    122.3773      1.1445     -0.1263
       40        4     -2.2836      0.0000      0.0000      1.0000      0.0000
       41        4     -1.4636     48.8245     61.9659      0.9132      0.0950
       42        4     -0.4858     46.3212    142.7985      2.1847     -0.5423
       43        4     -1.0239     68.5831     47.7064      0.9548      0.0473
       44        4     -0.3746     85.8504     73.4784      1.0834     -0.0770
       45        4     -0.4858     46.3212    142.7985      2.1847     -0.5423
       46        4     -1.4636     48.8244     61.9649      0.9132      0.0950
       47        4     -2.2836      0.0000      0.0000      1.0000      0.0000
       48        4     -1.7220     15.1325    122.3765      1.1445     -0.1263
       49        4     -1.7220     12.0758    126.8586      1.1887     -0.1587
       50        4     -0.4858     32.6512    131.6046      1.5958     -0.3734
       51        4     -1.7220     15.1325    122.3765      1.1445     -0.1263
       52        4     -2.4092      0.0000      0.0000      1.0000      0.0000
       53        4     -3.2174      0.0000      0.0000      1.0000      0.0000
       54        4     -2.4092      0.0000      0.0000      1.0000      0.0000
       55        4     -2.2836      0.0000      0.0000      1.0000      0.0000
       56        4     -1.4636     48.6616     64.8312      0.9244      0.0818
       57        4     -2.4092      0.0000      0.0000      1.0000      0.0000
       58        4     -3.6130      0.0000      0.0000      1.0000      0.0000
       59        4     -4.3908      0.0000      0.0000      1.0000      0.0000
       60        4     -3.2174      0.0000      0.0000      1.0000      0.0000
       61        4     -1.4636     48.6623     64.8304      0.9244      0.0818
       62        4     -2.2836      0.0000      0.0000      1.0000      0.0000
       63        4     -3.2174      0.0000      0.0000      1.0000      0.0000
       64        4     -4.3908      0.0000      0.0000      1.0000      0.0000
       65        4     -3.6130      0.0000      0.0000      1.0000      0.0000
       66        4     -2.4092      0.0000      0.0000      1.0000      0.0000
       67        4     -0.4858     32.6511    131.6047      1.5958     -0.3734
       68        4     -1.7220     12.0767    126.8563      1.1887     -0.1587
       69        4     -2.4092      0.0000      0.0000      1.0000      0.0000
       70        4     -3.2174      0.0000      0.0000      1.0000      0.0000
       71        4     -2.4092      0.0000      0.0000      1.0000      0.0000
       72        4     -1.7220     15.1322    122.3773      1.1445     -0.1263
       73        4     -1.1730     53.6115     73.2602      1.0167     -0.0164
       74        4     -1.7220     15.1322    122.3773      1.1445     -0.1263
       75        4     -3.1516      0.0000      0.0000      1.0000      0.0000
       76        4     -3.6130      0.0000      0.0000      1.0000      0.0000
       77        4     -2.7070      0.0000      0.0000      1.0000      0.0000
       78        4     -1.4636     48.8244     61.9649      0.9132      0.0950
       79        4     -1.7220     13.8911    126.4109      1.1231     -0.1096
       80        4     -0.4858     46.3212    142.7985      2.1847     -0.5423
       81        4     -1.7220     13.8906    126.4104      1.1231     -0.1096
       82        4     -2.4092      0.0000      0.0000      1.0000      0.0000
       83        4     -3.2174      0.0000      0.0000      1.0000      0.0000
       84        4     -2.4092      0.0000      0.0000      1.0000      0.0000
       85        4     -3.1516      0.0000      0.0000      1.0000      0.0000
       86        4     -1.7220     15.1325    122.3765      1.1445     -0.1263
       87        4     -1.1730     53.6106     73.2588      1.0167     -0.0164
       88        4     -1.4636     48.8245     61.9659      0.9132      0.0950
       89        4     -2.7070      0.0000      0.0000      1.0000      0.0000
       90        4     -3.6130      0.0000      0.0000      1.0000      0.0000
       91        4     -3.6130      0.0000      0.0000      1.0000      0.0000
       92        4     -2.4092      0.0000      0.0000      1.0000      0.0000
       93        4     -1.4636     44.7707     71.0284      0.9953      0.0047
       94        4     -2.2836      0.0000      0.0000      1.0000      0.0000
       95        4     -3.2174      0.0000      0.0000      1.0000      0.0000
       96        4     -4.3908      0.0000      0.0000      1.0000      0.0000
       97        4     -2.7070      0.0000      0.0000      1.0000      0.0000
       98        4     -3.2174      0.0000      0.0000      1.0000      0.0000
       99        4     -2.7070      0.0000      0.0000      1.0000      0.0000
      100        4     -3.2174      0.0000      0.0000      1.0000      0.0000
      101        4     -2.7070      0.0000      0.0000      1.0000      0.0000
      102        4     -3.2174      0.0000      0.0000      1.0000      0.0000
      103        4     -1.4636     44.7701     71.0294      0.9953      0.0047
      104        4     -2.4092      0.0000      0.0000      1.0000      0.0000
      105        4     -3.6130      0.0000      0.0000      1.0000      0.0000
      106        4     -4.3908      0.0000      0.0000      1.0000      0.0000
      107        4     -3.2174      0.0000      0.0000      1.0000      0.0000
      108        4     -2.2836      0.0000      0.0000      1.0000      0.0000
      109        4     -1.6810     22.7456    101.1321      0.9496      0.0531
      110        4     -2.2836      0.0000      0.0000      1.0000      0.0000
      111        4     -3.6130      0.0000      0.0000      1.0000      0.0000
      112        4     -4.3397      0.0000      0.0000      1.0000      0.0000
      113        4     -3.6130      0.0000      0.0000      1.0000      0.0000
      114        4     -2.2836      0.0000      0.0000      1.0000      0.0000
      115        4     -2.2836      0.0000      0.0000      1.0000      0.0000
      116        4     -1.4636     48.8244     61.9649      0.9132      0.0950
      117        4     -2.4092      0.0000      0.0000      1.0000      0.0000
      118        4     -3.6130      0.0000      0.0000      1.0000      0.0000
      119        4     -4.3908      0.0000      0.0000      1.0000      0.0000
      120        4     -3.2174      0.0000      0.0000      1.0000      0.0000
      121        4     -3.6130      0.0000      0.0000      1.0000      0.0000
      122        4     -2.4092      0.0000      0.0000      1.0000      0.0000
      123        4     -1.4636     48.8245     61.9659      0.9132      0.0950
      124        4     -2.2836      0.0000      0.0000      1.0000      0.0000
      125        4     -3.2174      0.0000      0.0000      1.0000      0.0000
      126        4     -4.3908      0.0000      0.0000      1.0000      0.0000
      127        4     -4.3397      0.0000      0.0000      1.0000      0.0000
      128        4     -3.6130      0.0000      0.0000      1.0000      0.0000
      129        4     -2.2836      0.0000      0.0000      1.0000      0.0000
      130        4     -1.6810     22.7456    101.1321      0.9496      0.0531
      131        4     -2.2836      0.0000      0.0000      1.0000      0.0000
      132        4     -3.6130      0.0000      0.0000      1.0000      0.0000
      133        4     -3.6130      0.0000      0.0000      1.0000      0.0000
      134        4     -4.3908      0.0000      0.0000      1.0000      0.0000
      135        4     -3.2174      0.0000      0.0000      1.0000      0.0000
      136        4     -2.2836      0.0000      0.0000      1.0000      0.0000
      137        4     -1.4636     48.8244     61.9649      0.9132      0.0950
      138        4     -2.4092      0.0000      0.0000      1.0000      0.0000
      139        4     -2.2836      0.0000      0.0000      1.0000      0.0000
      140        4     -3.2174      0.0000      0.0000      1.0000      0.0000
      141        4     -4.3908      0.0000      0.0000      1.0000      0.0000
      142        4     -3.6130      0.0000      0.0000      1.0000      0.0000
      143        4     -2.4092      0.0000      0.0000      1.0000      0.0000
      144        4     -1.4636     48.8245     61.9659      0.9132      0.0950
      145        4     -1.1730     53.6106     73.2588      1.0167     -0.0164
      146        4     -1.4636     48.8245     61.9659      0.9132      0.0950
      147        4     -2.7070      0.0000      0.0000      1.0000      0.0000
      148        4     -3.6130      0.0000      0.0000      1.0000      0.0000
      149        4     -3.1516      0.0000      0.0000      1.0000      0.0000
      150        4     -1.7220     15.1325    122.3765      1.1445     -0.1263
      151        4     -1.4636     44.7707     71.0284      0.9953      0.0047
      152        4     -2.2836      0.0000      0.0000      1.0000      0.0000
      153        4     -3.2174      0.0000      0.0000      1.0000      0.0000
      154        4     -4.3908      0.0000      0.0000      1.0000      0.0000
      155        4     -3.6130      0.0000      0.0000      1.0000      0.0000
      156        4     -2.4092      0.0000      0.0000      1.0000      0.0000
      157        4     -2.7070      0.0000      0.0000      1.0000      0.0000
      158        4     -3.2174      0.0000      0.0000      1.0000      0.0000
      159        4     -2.7070      0.0000      0.0000      1.0000      0.0000
      160        4     -3.2174      0.0000      0.0000      1.0000      0.0000
      161        4     -2.7070      0.0000      0.0000      1.0000      0.0000
      162        4     -3.2174      0.0000      0.0000      1.0000      0.0000
      163        4     -3.6130      0.0000      0.0000      1.0000      0.0000
      164        4     -4.3908      0.0000      0.0000      1.0000      0.0000
      165        4     -3.2174      0.0000      0.0000      1.0000      0.0000
      166        4     -2.2836      0.0000      0.0000      1.0000      0.0000
      167        4     -1.4636     44.7701     71.0294      0.9953      0.0047
      168        4     -2.4092      0.0000      0.0000      1.0000      0.0000
      169        4     -3.1516      0.0000      0.0000      1.0000      0.0000
      170        4     -3.6130      0.0000      0.0000      1.0000      0.0000
      171        4     -2.7070      0.0000      0.0000      1.0000      0.0000
      172        4     -1.4636     48.8244     61.9649      0.9132      0.0950
      173        4     -1.1730     53.6115     73.2602      1.0167     -0.0164
      174        4     -1.7220     15.1322    122.3773      1.1445     -0.1263
      175        4     -1.7220     13.8906    126.4104      1.1231     -0.1096
      176        4     -2.4092      0.0000      0.0000      1.0000      0.0000
      177        4     -3.2174      0.0000      0.0000      1.0000      0.0000
      178        4     -2.4092      0.0000      0.0000      1.0000      0.0000
      179        4     -1.7220     13.8911    126.4109      1.1231     -0.1096
      180        4     -0.4858     46.3212    142.7985      2.1847     -0.5423
      181        4     -0.3746     85.8504     73.4784      1.0834     -0.0770
      182        4     -0.4858     46.3212    142.7985      2.1847     -0.5423
      183        4     -1.4636     48.8244     61.9649      0.9132      0.0950
      184        4     -2.2836      0.0000      0.0000      1.0000      0.0000
      185        4     -1.7220     15.1325    122.3765      1.1445     -0.1263
      186        4     -1.0239     68.5831     47.7064      0.9548      0.0473
      187        4     -0.4858     32.6512    131.6046      1.5958     -0.3734
      188        4     -1.7220     15.1325    122.3765      1.1445     -0.1263
      189        4     -2.4092      0.0000      0.0000      1.0000      0.0000
      190        4     -3.2174      0.0000      0.0000      1.0000      0.0000
      191        4     -2.4092      0.0000      0.0000      1.0000      0.0000
      192        4     -1.7220     12.0758    126.8586      1.1887     -0.1587
      193        4     -1.4636     48.6616     64.8312      0.9244      0.0818
      194        4     -2.4092      0.0000      0.0000      1.0000      0.0000
      195        4     -3.6130      0.0000      0.0000      1.0000      0.0000
      196        4     -4.3908      0.0000      0.0000      1.0000      0.0000
      197        4     -3.2174      0.0000      0.0000      1.0000      0.0000
      198        4     -2.2836      0.0000      0.0000      1.0000      0.0000
      199        4     -2.2836      0.0000      0.0000      1.0000      0.0000
      200        4     -3.2174      0.0000      0.0000      1.0000      0.0000
      201        4     -4.3908      0.0000      0.0000      1.0000      0.0000
      202        4     -3.6130      0.0000      0.0000      1.0000      0.0000
      203        4     -2.4092      0.0000      0.0000      1.0000      0.0000
      204        4     -1.4636     48.6623     64.8304      0.9244      0.0818
      205        4     -1.7220     12.0767    126.8563      1.1887     -0.1587
      206        4     -2.4092      0.0000      0.0000      1.0000      0.0000
      207        4     -3.2174      0.0000      0.0000      1.0000      0.0000
      208        4     -2.4092      0.0000      0.0000      1.0000      0.0000
      209        4     -1.7220     15.1322    122.3773      1.1445     -0.1263
      210        4     -0.4858     32.6511    131.6047      1.5958     -0.3734
      211        4     -1.0239     68.5830     47.7062      0.9548      0.0473
      212        4     -1.7220     15.1322    122.3773      1.1445     -0.1263
      213        4     -2.2836      0.0000      0.0000      1.0000      0.0000
      214        4     -1.4636     48.8245     61.9659      0.9132      0.0950
      215        4     -0.4858     46.3212    142.7985      2.1847     -0.5423
      216        4     -0.3746     85.8512     73.4788      1.0834     -0.0770
  
     ===================================================================
     Memory usage:  VmHWM =        43Mb
                   VmPeak =       275Mb
     ===================================================================

     Total time so far
     MOB          :      0.00s CPU      0.00s WALL (       1 calls)

 
     Unfolding on the coarse grid
     elphon_wrap  :     23.01s CPU     23.52s WALL (       1 calls)
 
     INITIALIZATION: 
 
     init_vloc    :      0.01s CPU      0.01s WALL (      29 calls)
     init_us_1    :      0.54s CPU      0.55s WALL (      29 calls)
 
 
     Electron-Phonon interpolation
     ephwann      :     11.32s CPU     12.01s WALL (       1 calls)
     ep-interp    :     11.04s CPU     11.65s WALL (     216 calls)
 
     Ham: step 1  :      0.00s CPU      0.00s WALL (       1 calls)
     Ham: step 2  :      0.00s CPU      0.00s WALL (       1 calls)
     ep: step 1   :      0.01s CPU      0.01s WALL (     162 calls)
     ep: step 2   :      0.03s CPU      0.05s WALL (     162 calls)
     DynW2B       :      0.02s CPU      0.01s WALL (     216 calls)
     HamW2B       :      5.41s CPU      5.61s WALL (  560304 calls)
     ephW2Bp      :      0.11s CPU      0.24s WALL (    1296 calls)
 
 
     Total program execution
     EPW          :    36.27s CPU        37.54s WALL

                                                                                          
 Please consider citing:                                                                  
 S. Ponce, E. R. Margine, C. Verdi and F. Giustino, Comput. Phys. Commun. 209, 116 (2016) 
                                                                                          
 In addition, if you used anisotropic Eliashberg superconductivity please cite:           
              E. R. Margine and F. Giustino, Phys. Rev. B 87, 024505 (2013)               
              if you used transport properties (scattering rates, mobility) please cite:  
              S. Ponce, E. R. Margine and F. Giustino, Phys. Rev. B 97, 121201 (2018)     
