                                                                                      
                                       ``:oss/                                        
                           `.+s+.     .+ys--yh+     `./ss+.                           
                          -sh//yy+`   +yy   +yy    -+h+-oyy                           
                          -yh- .oyy/.-sh.   .syo-.:sy-  /yh                           
                 `.-.`    `yh+   -oyyyo.     `/syys:    oys      `.`                  
               `/+ssys+-` `sh+      `                   oys`   .:osyo`                
               -yh- ./syyooyo`                          .sys+/oyo--yh/                
               `yy+    .-:-.                             `-/+/:`  -sh-                
                /yh.                                              oys                 
          ``..---hho---------`   .---------..`      `.-----.`    -hd+---.             
       `./osmNMMMMMMMMMMMMMMMs. +NNMMMMMMMMNNmh+.   yNMMMMMNm-  oNMMMMMNmo++:`        
       +sy--/sdMMMhyyyyyyyNMMh- .oyNMMmyyyyyhNMMm+` -yMMMdyyo:` .oyyNMMNhs+syy`       
       -yy/   /MMM+.`-+/``mMMy-   `mMMh:`````.dMMN:` `MMMy-`-dhhy```mMMy:``+hs        
        -yy+` /MMMo:-mMM+`-oo/.    mMMh:     `dMMN/`  dMMm:`dMMMMy..MMMo-.+yo`        
         .sys`/MMMMNNMMMs-         mMMmyooooymMMNo:   oMMM/sMMMMMM++MMN//oh:          
          `sh+/MMMhyyMMMs- `-`     mMMMMMMMMMNmy+-`   -MMMhMMMsmMMmdMMd/yy+           
    `-/+++oyy-/MMM+.`/hh/.`mNm:`   mMMd+/////:-.`      NMMMMMd/:NMMMMMy:/yyo/:.`      
   +os+//:-..-oMMMo:--:::-/MMMo. .-mMMd+---`           hMMMMN+. oMMMMMo. `-+osyso:`   
   syo     `mNMMMMMNNNNNNNNMMMo.oNNMMMMMNNNN:`         +MMMMs:`  dMMMN/`     ``:syo   
   /yh`     :syyyyyyyyyyyyyyyy+.`+syyyyyyyyo:`         .oyys:`   .oyys:`        +yh   
   -yh-        ````````````````    `````````              ``        ``          oys   
   -+h/------------------------::::::::://////++++++++++++++++++++++///////::::/yd:   
   shdddddddddddddddddddddddddddddhhhhhhhhyyyyyssssssssssssssssyyyyyyyhhhhhhhddddh`   
                                                                                      
  S. Ponce, E. R. Margine, C. Verdi, and F. Giustino,                                 
                                                Comput. Phys. Commun. 209, 116 (2016) 
                                                                                      

     Program EPW v.5.0.0 starts on  3Jul2018 at 12:58: 9 

     This program is part of the open-source Quantum ESPRESSO suite
     for quantum simulation of materials; please cite
         "P. Giannozzi et al., J. Phys.:Condens. Matter 21 395502 (2009);
         "P. Giannozzi et al., J. Phys.:Condens. Matter 29 465901 (2017);
          URL http://www.quantum-espresso.org", 
     in publications or presentations arising from this work. More details at
     http://www.quantum-espresso.org/quote

     Parallel version (MPI), running on     1 processors

     MPI processes distributed on     1 nodes

     Reading data from directory:
     ./sic.save/

     IMPORTANT: XC functional enforced from input :
     Exchange-correlation      = PZ ( 1  1  0  0 0 0)
     Any further DFT definition will be discarded
     Please, verify this is what you really want

               file C.UPF: wavefunction(s)  3d renormalized
 
     G-vector sticks info
     --------------------
     sticks:   dense  smooth     PW     G-vecs:    dense   smooth      PW
     Sum         187     187     73                 1687     1687     387
 

     --                                                                         

     bravais-lattice index     =            2
     lattice parameter (a_0)   =       8.2370  a.u.
     unit-cell volume          =     139.7163 (a.u.)^3
     number of atoms/cell      =            2
     number of atomic types    =            2
     kinetic-energy cut-off    =      20.0000  Ry
     charge density cut-off    =      80.0000  Ry
     convergence threshold     =      0.0E+00
     beta                      =       0.0000
     number of iterations used =            0
     Exchange-correlation      = PZ ( 1  1  0  0 0 0)


     celldm(1)=    8.23700  celldm(2)=    0.00000  celldm(3)=    0.00000
     celldm(4)=    0.00000  celldm(5)=    0.00000  celldm(6)=    0.00000

     crystal axes: (cart. coord. in units of a_0)
               a(1) = ( -0.5000  0.0000  0.5000 )  
               a(2) = (  0.0000  0.5000  0.5000 )  
               a(3) = ( -0.5000  0.5000  0.0000 )  

     reciprocal axes: (cart. coord. in units 2 pi/a_0)
               b(1) = ( -1.0000 -1.0000  1.0000 )  
               b(2) = (  1.0000  1.0000  1.0000 )  
               b(3) = ( -1.0000  1.0000 -1.0000 )  


     Atoms inside the unit cell: 

   Cartesian axes

     site n.  atom      mass           positions (a_0 units)
        1        Si  28.0879   tau( 1) = (    0.00000    0.00000    0.00000  )
        2        C   12.0118   tau( 2) = (    0.25000    0.25000    0.25000  )
 
     25 Sym.Ops. (with q -> -q+G )


     G cutoff =  137.4891  (   1687 G-vectors)     FFT grid: ( 18, 18, 18)
     number of k points=   27
                       cart. coord. in units 2pi/a_0
        k(    1) = (   0.0000000   0.0000000   0.0000000), wk =   0.0740741
        k(    2) = (  -0.3333333   0.3333333  -0.3333333), wk =   0.0740741
        k(    3) = (  -0.6666667   0.6666667  -0.6666667), wk =   0.0740741
        k(    4) = (   0.3333333   0.3333333   0.3333333), wk =   0.0740741
        k(    5) = (   0.0000000   0.6666667   0.0000000), wk =   0.0740741
        k(    6) = (  -0.3333333   1.0000000  -0.3333333), wk =   0.0740741
        k(    7) = (   0.6666667   0.6666667   0.6666667), wk =   0.0740741
        k(    8) = (   0.3333333   1.0000000   0.3333333), wk =   0.0740741
        k(    9) = (   0.0000000   1.3333333   0.0000000), wk =   0.0740741
        k(   10) = (  -0.3333333  -0.3333333   0.3333333), wk =   0.0740741
        k(   11) = (  -0.6666667   0.0000000   0.0000000), wk =   0.0740741
        k(   12) = (  -1.0000000   0.3333333  -0.3333333), wk =   0.0740741
        k(   13) = (   0.0000000   0.0000000   0.6666667), wk =   0.0740741
        k(   14) = (  -0.3333333   0.3333333   0.3333333), wk =   0.0740741
        k(   15) = (  -0.6666667   0.6666667  -0.0000000), wk =   0.0740741
        k(   16) = (   0.3333333   0.3333333   1.0000000), wk =   0.0740741
        k(   17) = (   0.0000000   0.6666667   0.6666667), wk =   0.0740741
        k(   18) = (  -0.3333333   1.0000000   0.3333333), wk =   0.0740741
        k(   19) = (  -0.6666667  -0.6666667   0.6666667), wk =   0.0740741
        k(   20) = (  -1.0000000  -0.3333333   0.3333333), wk =   0.0740741
        k(   21) = (  -1.3333333   0.0000000   0.0000000), wk =   0.0740741
        k(   22) = (  -0.3333333  -0.3333333   1.0000000), wk =   0.0740741
        k(   23) = (  -0.6666667  -0.0000000   0.6666667), wk =   0.0740741
        k(   24) = (  -1.0000000   0.3333333   0.3333333), wk =   0.0740741
        k(   25) = (   0.0000000   0.0000000   1.3333333), wk =   0.0740741
        k(   26) = (  -0.3333333   0.3333333   1.0000000), wk =   0.0740741
        k(   27) = (  -0.6666667   0.6666667   0.6666667), wk =   0.0740741

     PseudoPot. # 1 for Si read from file:
     ./Si.pz-vbc.UPF
     MD5 check sum: 6dfa03ddd5817404712e03e4d12deb78
     Pseudo is Norm-conserving, Zval =  4.0
     Generated by new atomic code, or converted to UPF format
     Using radial grid of  431 points,  2 beta functions with: 
                l(1) =   0
                l(2) =   1

     PseudoPot. # 2 for C  read from file:
     ./C.UPF
     MD5 check sum: 4781e8ce5ee01a432381f51d0ea25c53
     Pseudo is Norm-conserving, Zval =  4.0
     Generated by new atomic code, or converted to UPF format
     Using radial grid of  461 points,  2 beta functions with: 
                l(1) =   0
                l(2) =   1
     EPW          :     0.09s CPU         0.09s WALL

     EPW          :     0.12s CPU         0.13s WALL

     No wavefunction gauge setting applied
     -------------------------------------------------------------------
     Wannierization on  3 x  3 x  3 electronic grid
     -------------------------------------------------------------------
 
     Spin CASE ( default = unpolarized )
 
     Initializing Wannier90
 
 
     Initial Wannier projections
 
     (   0.00000   0.00000   0.00000) :  l =  -3 mr =   1
     (   0.00000   0.00000   0.00000) :  l =  -3 mr =   2
     (   0.00000   0.00000   0.00000) :  l =  -3 mr =   3
     (   0.00000   0.00000   0.00000) :  l =  -3 mr =   4

      - Number of bands is (  8)
      - Number of total bands is (  8)
      - Number of excluded bands is (  0)
      - Number of wannier functions is (  4)
      - All guiding functions are given 
 
  Reading data about k-point neighbours 
 
      - All neighbours are found 
 
     AMN
      k points =    27 in    1 pools
            1 of   27 on ionode
            2 of   27 on ionode
            3 of   27 on ionode
            4 of   27 on ionode
            5 of   27 on ionode
            6 of   27 on ionode
            7 of   27 on ionode
            8 of   27 on ionode
            9 of   27 on ionode
           10 of   27 on ionode
           11 of   27 on ionode
           12 of   27 on ionode
           13 of   27 on ionode
           14 of   27 on ionode
           15 of   27 on ionode
           16 of   27 on ionode
           17 of   27 on ionode
           18 of   27 on ionode
           19 of   27 on ionode
           20 of   27 on ionode
           21 of   27 on ionode
           22 of   27 on ionode
           23 of   27 on ionode
           24 of   27 on ionode
           25 of   27 on ionode
           26 of   27 on ionode
           27 of   27 on ionode
 
     AMN calculated
 
     MMN
      k points =    27 in    1 pools
            1 of   27 on ionode
            2 of   27 on ionode
            3 of   27 on ionode
            4 of   27 on ionode
            5 of   27 on ionode
            6 of   27 on ionode
            7 of   27 on ionode
            8 of   27 on ionode
            9 of   27 on ionode
           10 of   27 on ionode
           11 of   27 on ionode
           12 of   27 on ionode
           13 of   27 on ionode
           14 of   27 on ionode
           15 of   27 on ionode
           16 of   27 on ionode
           17 of   27 on ionode
           18 of   27 on ionode
           19 of   27 on ionode
           20 of   27 on ionode
           21 of   27 on ionode
           22 of   27 on ionode
           23 of   27 on ionode
           24 of   27 on ionode
           25 of   27 on ionode
           26 of   27 on ionode
           27 of   27 on ionode
     MMN calculated
 
     Running Wannier90
 
     Wannier Function centers (cartesian, alat) and spreads (ang):
 
     (   0.16068   0.16068   0.16068) :   0.89056
     (   0.16068  -0.16068  -0.16068) :   0.89056
     (  -0.16068   0.16068  -0.16068) :   0.89056
     (  -0.16068  -0.16068   0.16068) :   0.89056
 
     -------------------------------------------------------------------
     WANNIER      :      1.92s CPU      1.96s WALL (       1 calls)
     -------------------------------------------------------------------

     Dipole matrix elements calculated
 

     Calculating kmap and kgmap
     Progress  kmap: ###########################
     Progress kgmap: ########################################
     kmaps        :      0.41s CPU      0.45s WALL (       1 calls)
     Symmetries of bravais lattice:  48
     Symmetries of crystal:          24


     ===================================================================
     irreducible q point #    1
     ===================================================================

     Symmetries of small group of q: 24
          in addition sym. q -> -q+G:
 
     Number of q in the star =    1
     List of q in the star:
          1   0.000000000   0.000000000   0.000000000
     Imposing acoustic sum rule on the dynamical matrix
     Read dielectric tensor and effective charges
 
        q(    1 ) = (   0.0000000   0.0000000   0.0000000 )


     ===================================================================
     irreducible q point #    2
     ===================================================================

     Symmetries of small group of q:  6
 
     Number of q in the star =    4
     List of q in the star:
          1  -0.333333333   0.333333333  -0.333333333
          2   0.333333333   0.333333333   0.333333333
          3   0.333333333  -0.333333333  -0.333333333
          4  -0.333333333  -0.333333333   0.333333333
     In addition there is the -q list: 
          1   0.333333333  -0.333333333   0.333333333
          2  -0.333333333  -0.333333333  -0.333333333
          3  -0.333333333   0.333333333   0.333333333
          4   0.333333333   0.333333333  -0.333333333
 
        q(    2 ) = (  -0.3333333   0.3333333  -0.3333333 )
 
        q(    3 ) = (   0.3333333  -0.3333333   0.3333333 )
        q(    4 ) = (   0.3333333   0.3333333   0.3333333 )
        q(    5 ) = (  -0.3333333  -0.3333333  -0.3333333 )
        q(    6 ) = (   0.3333333  -0.3333333  -0.3333333 )
        q(    7 ) = (  -0.3333333   0.3333333   0.3333333 )
        q(    8 ) = (  -0.3333333  -0.3333333   0.3333333 )
        q(    9 ) = (   0.3333333   0.3333333  -0.3333333 )


     ===================================================================
     irreducible q point #    3
     ===================================================================

     Symmetries of small group of q:  4
 
     Number of q in the star =    6
     List of q in the star:
          1   0.000000000   0.666666667   0.000000000
          2   0.000000000   0.000000000  -0.666666667
          3  -0.666666667   0.000000000   0.000000000
          4   0.666666667   0.000000000   0.000000000
          5   0.000000000  -0.666666667   0.000000000
          6   0.000000000   0.000000000   0.666666667
 
        q(   10 ) = (   0.0000000   0.6666667   0.0000000 )
        q(   11 ) = (   0.0000000   0.0000000  -0.6666667 )
        q(   12 ) = (  -0.6666667   0.0000000   0.0000000 )
        q(   13 ) = (   0.6666667   0.0000000   0.0000000 )
        q(   14 ) = (   0.0000000  -0.6666667   0.0000000 )
        q(   15 ) = (   0.0000000   0.0000000   0.6666667 )


     ===================================================================
     irreducible q point #    4
     ===================================================================

     Symmetries of small group of q:  2
 
     Number of q in the star =   12
     List of q in the star:
          1   0.666666667   0.000000000   0.666666667
          2  -0.666666667   0.000000000  -0.666666667
          3   0.666666667  -0.666666667   0.000000000
          4   0.000000000  -0.666666667   0.666666667
          5   0.000000000  -0.666666667  -0.666666667
          6  -0.666666667   0.000000000   0.666666667
          7   0.666666667   0.666666667   0.000000000
          8  -0.666666667  -0.666666667   0.000000000
          9  -0.666666667   0.666666667   0.000000000
         10   0.666666667   0.000000000  -0.666666667
         11   0.000000000   0.666666667   0.666666667
         12   0.000000000   0.666666667  -0.666666667
 
        q(   16 ) = (   0.6666667   0.0000000   0.6666667 )
        q(   17 ) = (  -0.6666667   0.0000000  -0.6666667 )
        q(   18 ) = (   0.6666667  -0.6666667   0.0000000 )
        q(   19 ) = (   0.0000000  -0.6666667   0.6666667 )
        q(   20 ) = (   0.0000000  -0.6666667  -0.6666667 )
        q(   21 ) = (  -0.6666667   0.0000000   0.6666667 )
        q(   22 ) = (   0.6666667   0.6666667   0.0000000 )
        q(   23 ) = (  -0.6666667  -0.6666667   0.0000000 )
        q(   24 ) = (  -0.6666667   0.6666667   0.0000000 )
        q(   25 ) = (   0.6666667   0.0000000  -0.6666667 )
        q(   26 ) = (   0.0000000   0.6666667   0.6666667 )
        q(   27 ) = (   0.0000000   0.6666667  -0.6666667 )

     Writing epmatq on .epb files


     The .epb files have been correctly written


              band disentanglement is used:  nbndsub =    4

     Writing Hamiltonian, Dynamical matrix and EP vertex in Wann rep to file


     Reading Hamiltonian, Dynamical matrix and EP vertex in Wann rep from file


     Finished reading Wann rep data from file

     ===================================================================
     Memory usage:  VmHWM =        41Mb
                   VmPeak =       284Mb
     ===================================================================
     
     Using uniform q-mesh:    6   6   6
     Size of q point mesh for interpolation:        216
     Using uniform k-mesh:    6   6   6
     Size of k point mesh for interpolation:        432
     Max number of k points per pool:              432

     Fermi energy coarse grid =   0.000000 eV

     Fermi energy is calculated from the fine k-mesh: Ef =  10.139039 eV

     Warning: check if difference with Fermi level fine grid makes sense

     ===================================================================

              ibndmin =     2  ebndmin =     0.602
              ibndmax =     4  ebndmax =     0.739


     Number of ep-matrix elements per pool :        11664 ~=   91.12 Kb (@ 8 bytes/ DP)

     ===================================================================
     Electron (Imaginary) Self-Energy in the Migdal Approximation
     ===================================================================


     Fermi Surface thickness =   2.000000 eV

     Golden Rule strictly enforced with T =   0.025852 eV
     Gaussian Broadening:   0.100000 eV, ngauss=   1
 
     Progression iq (fine) =         50/       216
     Progression iq (fine) =        100/       216
     Progression iq (fine) =        150/       216
     Progression iq (fine) =        200/       216
     Average over degenerate eigenstates is performed
     WARNING: only the eigenstates within the Fermi window are meaningful

     ik =       1 coord.:    0.0000000   0.0000000   0.0000000
     -------------------------------------------------------------------
     E(   2 )=  -0.0842 eV   Re[Sigma]=      65.187573 meV Im[Sigma]=       4.275953 meV     Z=       0.924885 lam=       0.081215
     E(   3 )=  -0.0842 eV   Re[Sigma]=      65.187573 meV Im[Sigma]=       4.275953 meV     Z=       0.924885 lam=       0.081215
     E(   4 )=  -0.0842 eV   Re[Sigma]=      65.187573 meV Im[Sigma]=       4.275953 meV     Z=       0.924885 lam=       0.081215
     -------------------------------------------------------------------


     ik =       2 coord.:    0.0000000   0.0000000   0.1666667
     -------------------------------------------------------------------
     E(   2 )=  -2.1472 eV   Re[Sigma]=     -61.197756 meV Im[Sigma]=      60.226655 meV     Z=       0.877404 lam=       0.139725
     E(   3 )=  -0.3746 eV   Re[Sigma]=      81.155274 meV Im[Sigma]=      51.258934 meV     Z=       0.971530 lam=       0.029304
     E(   4 )=  -0.3746 eV   Re[Sigma]=      81.155274 meV Im[Sigma]=      51.258934 meV     Z=       0.971530 lam=       0.029304
     -------------------------------------------------------------------


     ik =       3 coord.:    0.0000000   0.0000000   0.3333333
     -------------------------------------------------------------------
     E(   2 )=  -6.8685 eV   Re[Sigma]=       0.206972 meV Im[Sigma]=      10.691657 meV     Z=       0.997096 lam=       0.002912
     E(   3 )=  -1.1730 eV   Re[Sigma]=      43.369605 meV Im[Sigma]=      85.938206 meV     Z=       1.087775 lam=      -0.080692
     E(   4 )=  -1.1730 eV   Re[Sigma]=      43.369605 meV Im[Sigma]=      85.938206 meV     Z=       1.087775 lam=      -0.080692
     -------------------------------------------------------------------


     ik =       4 coord.:    0.0000000   0.0000000   0.5000000
     -------------------------------------------------------------------
     E(   2 )=  -9.4227 eV   Re[Sigma]=      -6.771463 meV Im[Sigma]=       6.652225 meV     Z=       1.006445 lam=      -0.006404
     E(   3 )=  -1.6810 eV   Re[Sigma]=      22.626081 meV Im[Sigma]=      79.054232 meV     Z=       0.881686 lam=       0.134190
     E(   4 )=  -1.6810 eV   Re[Sigma]=      22.626081 meV Im[Sigma]=      79.054232 meV     Z=       0.881686 lam=       0.134190
     -------------------------------------------------------------------


     ik =       5 coord.:    0.0000000   0.0000000   0.6666667
     -------------------------------------------------------------------
     E(   2 )=  -6.8685 eV   Re[Sigma]=       0.207047 meV Im[Sigma]=      10.691753 meV     Z=       0.997096 lam=       0.002913
     E(   3 )=  -1.1730 eV   Re[Sigma]=      43.368961 meV Im[Sigma]=      85.937048 meV     Z=       1.087775 lam=      -0.080692
     E(   4 )=  -1.1730 eV   Re[Sigma]=      43.368961 meV Im[Sigma]=      85.937048 meV     Z=       1.087775 lam=      -0.080692
     -------------------------------------------------------------------


     ik =       6 coord.:    0.0000000   0.0000000   0.8333333
     -------------------------------------------------------------------
     E(   2 )=  -2.1472 eV   Re[Sigma]=     -61.198655 meV Im[Sigma]=      60.227682 meV     Z=       0.877404 lam=       0.139726
     E(   3 )=  -0.3746 eV   Re[Sigma]=      81.154712 meV Im[Sigma]=      51.258018 meV     Z=       0.971527 lam=       0.029308
     E(   4 )=  -0.3746 eV   Re[Sigma]=      81.154712 meV Im[Sigma]=      51.258018 meV     Z=       0.971527 lam=       0.029308
     -------------------------------------------------------------------


     ik =       7 coord.:    0.0000000   0.1666667   0.0000000
     -------------------------------------------------------------------
     E(   2 )=  -2.1472 eV   Re[Sigma]=     -61.197760 meV Im[Sigma]=      60.226659 meV     Z=       0.877404 lam=       0.139725
     E(   3 )=  -0.3746 eV   Re[Sigma]=      81.155271 meV Im[Sigma]=      51.258933 meV     Z=       0.971530 lam=       0.029304
     E(   4 )=  -0.3746 eV   Re[Sigma]=      81.155271 meV Im[Sigma]=      51.258933 meV     Z=       0.971530 lam=       0.029304
     -------------------------------------------------------------------


     ik =       8 coord.:    0.0000000   0.1666667   0.1666667
     -------------------------------------------------------------------
     E(   2 )=  -1.7072 eV   Re[Sigma]=      32.284283 meV Im[Sigma]=     112.277199 meV     Z=       0.964497 lam=       0.036810
     E(   3 )=  -1.0239 eV   Re[Sigma]=      64.826192 meV Im[Sigma]=      29.100640 meV     Z=       0.891030 lam=       0.122297
     E(   4 )=  -1.0239 eV   Re[Sigma]=      64.826192 meV Im[Sigma]=      29.100640 meV     Z=       0.891030 lam=       0.122297
     -------------------------------------------------------------------


     ik =       9 coord.:    0.0000000   0.1666667   0.3333333
     -------------------------------------------------------------------
     E(   2 )=  -5.3050 eV   Re[Sigma]=      11.111185 meV Im[Sigma]=      45.386732 meV     Z=       1.049613 lam=      -0.047268
     E(   3 )=  -1.9550 eV   Re[Sigma]=     -31.001393 meV Im[Sigma]=      73.582522 meV     Z=       0.887666 lam=       0.126550
     E(   4 )=  -1.7220 eV   Re[Sigma]=      26.790052 meV Im[Sigma]=     115.849073 meV     Z=       1.070485 lam=      -0.065844
     -------------------------------------------------------------------


     ik =      10 coord.:    0.0000000   0.1666667   0.5000000
     -------------------------------------------------------------------
     E(   2 )=  -8.6498 eV   Re[Sigma]=       0.000000 meV Im[Sigma]=       0.000000 meV     Z=       1.000000 lam=       0.000000
     E(   3 )=  -3.0372 eV   Re[Sigma]=       0.000000 meV Im[Sigma]=       0.000000 meV     Z=       1.000000 lam=       0.000000
     E(   4 )=  -2.2836 eV   Re[Sigma]=       0.000000 meV Im[Sigma]=       0.000000 meV     Z=       1.000000 lam=       0.000000
     -------------------------------------------------------------------


     ik =      11 coord.:    0.0000000   0.1666667   0.6666667
     -------------------------------------------------------------------
     E(   2 )=  -7.7841 eV   Re[Sigma]=      10.688797 meV Im[Sigma]=      49.807653 meV     Z=       1.104045 lam=      -0.094239
     E(   3 )=  -3.5170 eV   Re[Sigma]=       6.732513 meV Im[Sigma]=      40.011991 meV     Z=       1.046978 lam=      -0.044870
     E(   4 )=  -1.4636 eV   Re[Sigma]=      44.417632 meV Im[Sigma]=      57.683696 meV     Z=       0.893636 lam=       0.119024
     -------------------------------------------------------------------


     ik =      12 coord.:    0.0000000   0.1666667   0.8333333
     -------------------------------------------------------------------
     E(   2 )=  -4.2102 eV   Re[Sigma]=      -6.556303 meV Im[Sigma]=      22.901249 meV     Z=       0.994993 lam=       0.005032
     E(   3 )=  -2.2152 eV   Re[Sigma]=     -48.735126 meV Im[Sigma]=      63.453553 meV     Z=       1.030015 lam=      -0.029141
     E(   4 )=  -0.4858 eV   Re[Sigma]=      48.521753 meV Im[Sigma]=     135.140267 meV     Z=       2.004541 lam=      -0.501133
     -------------------------------------------------------------------


     ik =      13 coord.:    0.0000000   0.3333333   0.0000000
     -------------------------------------------------------------------
     E(   2 )=  -6.8685 eV   Re[Sigma]=       0.206972 meV Im[Sigma]=      10.691658 meV     Z=       0.997096 lam=       0.002912
     E(   3 )=  -1.1730 eV   Re[Sigma]=      43.369605 meV Im[Sigma]=      85.938204 meV     Z=       1.087775 lam=      -0.080692
     E(   4 )=  -1.1730 eV   Re[Sigma]=      43.369605 meV Im[Sigma]=      85.938204 meV     Z=       1.087775 lam=      -0.080692
     -------------------------------------------------------------------


     ik =      14 coord.:    0.0000000   0.3333333   0.1666667
     -------------------------------------------------------------------
     E(   2 )=  -5.3050 eV   Re[Sigma]=      11.111185 meV Im[Sigma]=      45.386734 meV     Z=       1.049613 lam=      -0.047268
     E(   3 )=  -1.9550 eV   Re[Sigma]=     -31.001393 meV Im[Sigma]=      73.582523 meV     Z=       0.887666 lam=       0.126550
     E(   4 )=  -1.7220 eV   Re[Sigma]=      26.790051 meV Im[Sigma]=     115.849070 meV     Z=       1.070485 lam=      -0.065844
     -------------------------------------------------------------------


     ik =      15 coord.:    0.0000000   0.3333333   0.3333333
     -------------------------------------------------------------------
     E(   2 )=  -5.7377 eV   Re[Sigma]=       0.000000 meV Im[Sigma]=       0.000000 meV     Z=       1.000000 lam=       0.000000
     E(   3 )=  -3.1516 eV   Re[Sigma]=       0.000000 meV Im[Sigma]=       0.000000 meV     Z=       1.000000 lam=       0.000000
     E(   4 )=  -3.1516 eV   Re[Sigma]=       0.000000 meV Im[Sigma]=       0.000000 meV     Z=       1.000000 lam=       0.000000
     -------------------------------------------------------------------


     ik =      16 coord.:    0.0000000   0.3333333   0.5000000
     -------------------------------------------------------------------
     E(   2 )=  -7.6363 eV   Re[Sigma]=       0.000000 meV Im[Sigma]=       0.000000 meV     Z=       1.000000 lam=       0.000000
     E(   3 )=  -4.8087 eV   Re[Sigma]=       0.000000 meV Im[Sigma]=       0.000000 meV     Z=       1.000000 lam=       0.000000
     E(   4 )=  -3.6130 eV   Re[Sigma]=       0.000000 meV Im[Sigma]=       0.000000 meV     Z=       1.000000 lam=       0.000000
     -------------------------------------------------------------------


     ik =      17 coord.:    0.0000000   0.3333333   0.6666667
     -------------------------------------------------------------------
     E(   2 )=  -7.7256 eV   Re[Sigma]=       0.000000 meV Im[Sigma]=       0.000000 meV     Z=       1.000000 lam=       0.000000
     E(   3 )=  -6.3198 eV   Re[Sigma]=       0.000000 meV Im[Sigma]=       0.000000 meV     Z=       1.000000 lam=       0.000000
     E(   4 )=  -2.7070 eV   Re[Sigma]=       0.000000 meV Im[Sigma]=       0.000000 meV     Z=       1.000000 lam=       0.000000
     -------------------------------------------------------------------


     ik =      18 coord.:    0.0000000   0.3333333   0.8333333
     -------------------------------------------------------------------
     E(   2 )=  -7.7841 eV   Re[Sigma]=      10.688694 meV Im[Sigma]=      49.807479 meV     Z=       1.104045 lam=      -0.094240
     E(   3 )=  -3.5170 eV   Re[Sigma]=       6.732535 meV Im[Sigma]=      40.012333 meV     Z=       1.046978 lam=      -0.044870
     E(   4 )=  -1.4636 eV   Re[Sigma]=      44.417525 meV Im[Sigma]=      57.684127 meV     Z=       0.893637 lam=       0.119022
     -------------------------------------------------------------------


     ik =      19 coord.:    0.0000000   0.5000000   0.0000000
     -------------------------------------------------------------------
     E(   2 )=  -9.4227 eV   Re[Sigma]=      -6.771463 meV Im[Sigma]=       6.652224 meV     Z=       1.006445 lam=      -0.006404
     E(   3 )=  -1.6810 eV   Re[Sigma]=      22.626082 meV Im[Sigma]=      79.054234 meV     Z=       0.881686 lam=       0.134190
     E(   4 )=  -1.6810 eV   Re[Sigma]=      22.626082 meV Im[Sigma]=      79.054234 meV     Z=       0.881686 lam=       0.134190
     -------------------------------------------------------------------


     ik =      20 coord.:    0.0000000   0.5000000   0.1666667
     -------------------------------------------------------------------
     E(   2 )=  -8.6498 eV   Re[Sigma]=       0.000000 meV Im[Sigma]=       0.000000 meV     Z=       1.000000 lam=       0.000000
     E(   3 )=  -3.0372 eV   Re[Sigma]=       0.000000 meV Im[Sigma]=       0.000000 meV     Z=       1.000000 lam=       0.000000
     E(   4 )=  -2.2836 eV   Re[Sigma]=       0.000000 meV Im[Sigma]=       0.000000 meV     Z=       1.000000 lam=       0.000000
     -------------------------------------------------------------------


     ik =      21 coord.:    0.0000000   0.5000000   0.3333333
     -------------------------------------------------------------------
     E(   2 )=  -7.6363 eV   Re[Sigma]=       0.000000 meV Im[Sigma]=       0.000000 meV     Z=       1.000000 lam=       0.000000
     E(   3 )=  -4.8087 eV   Re[Sigma]=       0.000000 meV Im[Sigma]=       0.000000 meV     Z=       1.000000 lam=       0.000000
     E(   4 )=  -3.6130 eV   Re[Sigma]=       0.000000 meV Im[Sigma]=       0.000000 meV     Z=       1.000000 lam=       0.000000
     -------------------------------------------------------------------


     ik =      22 coord.:    0.0000000   0.5000000   0.5000000
     -------------------------------------------------------------------
     E(   2 )=  -8.1432 eV   Re[Sigma]=       0.000000 meV Im[Sigma]=       0.000000 meV     Z=       1.000000 lam=       0.000000
     E(   3 )=  -4.3397 eV   Re[Sigma]=       0.000000 meV Im[Sigma]=       0.000000 meV     Z=       1.000000 lam=       0.000000
     E(   4 )=  -4.3397 eV   Re[Sigma]=       0.000000 meV Im[Sigma]=       0.000000 meV     Z=       1.000000 lam=       0.000000
     -------------------------------------------------------------------


     ik =      23 coord.:    0.0000000   0.5000000   0.6666667
     -------------------------------------------------------------------
     E(   2 )=  -7.6363 eV   Re[Sigma]=       0.000000 meV Im[Sigma]=       0.000000 meV     Z=       1.000000 lam=       0.000000
     E(   3 )=  -4.8087 eV   Re[Sigma]=       0.000000 meV Im[Sigma]=       0.000000 meV     Z=       1.000000 lam=       0.000000
     E(   4 )=  -3.6130 eV   Re[Sigma]=       0.000000 meV Im[Sigma]=       0.000000 meV     Z=       1.000000 lam=       0.000000
     -------------------------------------------------------------------


     ik =      24 coord.:    0.0000000   0.5000000   0.8333333
     -------------------------------------------------------------------
     E(   2 )=  -8.6498 eV   Re[Sigma]=       0.000000 meV Im[Sigma]=       0.000000 meV     Z=       1.000000 lam=       0.000000
     E(   3 )=  -3.0372 eV   Re[Sigma]=       0.000000 meV Im[Sigma]=       0.000000 meV     Z=       1.000000 lam=       0.000000
     E(   4 )=  -2.2836 eV   Re[Sigma]=       0.000000 meV Im[Sigma]=       0.000000 meV     Z=       1.000000 lam=       0.000000
     -------------------------------------------------------------------


     ik =      25 coord.:    0.0000000   0.6666667   0.0000000
     -------------------------------------------------------------------
     E(   2 )=  -6.8685 eV   Re[Sigma]=       0.207047 meV Im[Sigma]=      10.691753 meV     Z=       0.997096 lam=       0.002913
     E(   3 )=  -1.1730 eV   Re[Sigma]=      43.368963 meV Im[Sigma]=      85.937049 meV     Z=       1.087775 lam=      -0.080692
     E(   4 )=  -1.1730 eV   Re[Sigma]=      43.368963 meV Im[Sigma]=      85.937049 meV     Z=       1.087775 lam=      -0.080692
     -------------------------------------------------------------------


     ik =      26 coord.:    0.0000000   0.6666667   0.1666667
     -------------------------------------------------------------------
     E(   2 )=  -7.7841 eV   Re[Sigma]=      10.688797 meV Im[Sigma]=      49.807652 meV     Z=       1.104045 lam=      -0.094239
     E(   3 )=  -3.5170 eV   Re[Sigma]=       6.732513 meV Im[Sigma]=      40.011992 meV     Z=       1.046978 lam=      -0.044870
     E(   4 )=  -1.4636 eV   Re[Sigma]=      44.417633 meV Im[Sigma]=      57.683697 meV     Z=       0.893636 lam=       0.119024
     -------------------------------------------------------------------


     ik =      27 coord.:    0.0000000   0.6666667   0.3333333
     -------------------------------------------------------------------
     E(   2 )=  -7.7256 eV   Re[Sigma]=       0.000000 meV Im[Sigma]=       0.000000 meV     Z=       1.000000 lam=       0.000000
     E(   3 )=  -6.3198 eV   Re[Sigma]=       0.000000 meV Im[Sigma]=       0.000000 meV     Z=       1.000000 lam=       0.000000
     E(   4 )=  -2.7070 eV   Re[Sigma]=       0.000000 meV Im[Sigma]=       0.000000 meV     Z=       1.000000 lam=       0.000000
     -------------------------------------------------------------------


     ik =      28 coord.:    0.0000000   0.6666667   0.5000000
     -------------------------------------------------------------------
     E(   2 )=  -7.6363 eV   Re[Sigma]=       0.000000 meV Im[Sigma]=       0.000000 meV     Z=       1.000000 lam=       0.000000
     E(   3 )=  -4.8087 eV   Re[Sigma]=       0.000000 meV Im[Sigma]=       0.000000 meV     Z=       1.000000 lam=       0.000000
     E(   4 )=  -3.6130 eV   Re[Sigma]=       0.000000 meV Im[Sigma]=       0.000000 meV     Z=       1.000000 lam=       0.000000
     -------------------------------------------------------------------


     ik =      29 coord.:    0.0000000   0.6666667   0.6666667
     -------------------------------------------------------------------
     E(   2 )=  -5.7377 eV   Re[Sigma]=       0.000000 meV Im[Sigma]=       0.000000 meV     Z=       1.000000 lam=       0.000000
     E(   3 )=  -3.1516 eV   Re[Sigma]=       0.000000 meV Im[Sigma]=       0.000000 meV     Z=       1.000000 lam=       0.000000
     E(   4 )=  -3.1516 eV   Re[Sigma]=       0.000000 meV Im[Sigma]=       0.000000 meV     Z=       1.000000 lam=       0.000000
     -------------------------------------------------------------------


     ik =      30 coord.:    0.0000000   0.6666667   0.8333333
     -------------------------------------------------------------------
     E(   2 )=  -5.3050 eV   Re[Sigma]=      11.111061 meV Im[Sigma]=      45.387101 meV     Z=       1.049614 lam=      -0.047269
     E(   3 )=  -1.9550 eV   Re[Sigma]=     -31.000574 meV Im[Sigma]=      73.581737 meV     Z=       0.887668 lam=       0.126547
     E(   4 )=  -1.7220 eV   Re[Sigma]=      26.790288 meV Im[Sigma]=     115.848468 meV     Z=       1.070481 lam=      -0.065841
     -------------------------------------------------------------------


     ik =      31 coord.:    0.0000000   0.8333333   0.0000000
     -------------------------------------------------------------------
     E(   2 )=  -2.1472 eV   Re[Sigma]=     -61.198658 meV Im[Sigma]=      60.227684 meV     Z=       0.877404 lam=       0.139726
     E(   3 )=  -0.3746 eV   Re[Sigma]=      81.154712 meV Im[Sigma]=      51.258018 meV     Z=       0.971527 lam=       0.029308
     E(   4 )=  -0.3746 eV   Re[Sigma]=      81.154712 meV Im[Sigma]=      51.258018 meV     Z=       0.971527 lam=       0.029308
     -------------------------------------------------------------------


     ik =      32 coord.:    0.0000000   0.8333333   0.1666667
     -------------------------------------------------------------------
     E(   2 )=  -4.2102 eV   Re[Sigma]=      -6.556303 meV Im[Sigma]=      22.901250 meV     Z=       0.994993 lam=       0.005032
     E(   3 )=  -2.2152 eV   Re[Sigma]=     -48.735126 meV Im[Sigma]=      63.453551 meV     Z=       1.030015 lam=      -0.029141
     E(   4 )=  -0.4858 eV   Re[Sigma]=      48.521754 meV Im[Sigma]=     135.140271 meV     Z=       2.004541 lam=      -0.501133
     -------------------------------------------------------------------


     ik =      33 coord.:    0.0000000   0.8333333   0.3333333
     -------------------------------------------------------------------
     E(   2 )=  -7.7841 eV   Re[Sigma]=      10.688694 meV Im[Sigma]=      49.807479 meV     Z=       1.104045 lam=      -0.094240
     E(   3 )=  -3.5170 eV   Re[Sigma]=       6.732535 meV Im[Sigma]=      40.012332 meV     Z=       1.046978 lam=      -0.044870
     E(   4 )=  -1.4636 eV   Re[Sigma]=      44.417525 meV Im[Sigma]=      57.684127 meV     Z=       0.893637 lam=       0.119022
     -------------------------------------------------------------------


     ik =      34 coord.:    0.0000000   0.8333333   0.5000000
     -------------------------------------------------------------------
     E(   2 )=  -8.6498 eV   Re[Sigma]=       0.000000 meV Im[Sigma]=       0.000000 meV     Z=       1.000000 lam=       0.000000
     E(   3 )=  -3.0372 eV   Re[Sigma]=       0.000000 meV Im[Sigma]=       0.000000 meV     Z=       1.000000 lam=       0.000000
     E(   4 )=  -2.2836 eV   Re[Sigma]=       0.000000 meV Im[Sigma]=       0.000000 meV     Z=       1.000000 lam=       0.000000
     -------------------------------------------------------------------


     ik =      35 coord.:    0.0000000   0.8333333   0.6666667
     -------------------------------------------------------------------
     E(   2 )=  -5.3050 eV   Re[Sigma]=      11.111061 meV Im[Sigma]=      45.387101 meV     Z=       1.049614 lam=      -0.047269
     E(   3 )=  -1.9550 eV   Re[Sigma]=     -31.000573 meV Im[Sigma]=      73.581735 meV     Z=       0.887668 lam=       0.126547
     E(   4 )=  -1.7220 eV   Re[Sigma]=      26.790288 meV Im[Sigma]=     115.848469 meV     Z=       1.070481 lam=      -0.065841
     -------------------------------------------------------------------


     ik =      36 coord.:    0.0000000   0.8333333   0.8333333
     -------------------------------------------------------------------
     E(   2 )=  -1.7072 eV   Re[Sigma]=      32.284282 meV Im[Sigma]=     112.277204 meV     Z=       0.964497 lam=       0.036810
     E(   3 )=  -1.0239 eV   Re[Sigma]=      64.826193 meV Im[Sigma]=      29.100639 meV     Z=       0.891030 lam=       0.122297
     E(   4 )=  -1.0239 eV   Re[Sigma]=      64.826193 meV Im[Sigma]=      29.100639 meV     Z=       0.891030 lam=       0.122297
     -------------------------------------------------------------------


     ik =      37 coord.:    0.1666667   0.0000000   0.0000000
     -------------------------------------------------------------------
     E(   2 )=  -2.1472 eV   Re[Sigma]=     -61.197758 meV Im[Sigma]=      60.226657 meV     Z=       0.877404 lam=       0.139725
     E(   3 )=  -0.3746 eV   Re[Sigma]=      81.155273 meV Im[Sigma]=      51.258932 meV     Z=       0.971530 lam=       0.029304
     E(   4 )=  -0.3746 eV   Re[Sigma]=      81.155273 meV Im[Sigma]=      51.258932 meV     Z=       0.971530 lam=       0.029304
     -------------------------------------------------------------------


     ik =      38 coord.:    0.1666667   0.0000000   0.1666667
     -------------------------------------------------------------------
     E(   2 )=  -1.7072 eV   Re[Sigma]=      32.284282 meV Im[Sigma]=     112.277202 meV     Z=       0.964497 lam=       0.036810
     E(   3 )=  -1.0239 eV   Re[Sigma]=      64.826193 meV Im[Sigma]=      29.100640 meV     Z=       0.891030 lam=       0.122297
     E(   4 )=  -1.0239 eV   Re[Sigma]=      64.826193 meV Im[Sigma]=      29.100640 meV     Z=       0.891030 lam=       0.122297
     -------------------------------------------------------------------


     ik =      39 coord.:    0.1666667   0.0000000   0.3333333
     -------------------------------------------------------------------
     E(   2 )=  -5.3050 eV   Re[Sigma]=      11.111185 meV Im[Sigma]=      45.386734 meV     Z=       1.049613 lam=      -0.047268
     E(   3 )=  -1.9550 eV   Re[Sigma]=     -31.001394 meV Im[Sigma]=      73.582523 meV     Z=       0.887666 lam=       0.126550
     E(   4 )=  -1.7220 eV   Re[Sigma]=      26.790052 meV Im[Sigma]=     115.849071 meV     Z=       1.070485 lam=      -0.065844
     -------------------------------------------------------------------


     ik =      40 coord.:    0.1666667   0.0000000   0.5000000
     -------------------------------------------------------------------
     E(   2 )=  -8.6498 eV   Re[Sigma]=       0.000000 meV Im[Sigma]=       0.000000 meV     Z=       1.000000 lam=       0.000000
     E(   3 )=  -3.0372 eV   Re[Sigma]=       0.000000 meV Im[Sigma]=       0.000000 meV     Z=       1.000000 lam=       0.000000
     E(   4 )=  -2.2836 eV   Re[Sigma]=       0.000000 meV Im[Sigma]=       0.000000 meV     Z=       1.000000 lam=       0.000000
     -------------------------------------------------------------------


     ik =      41 coord.:    0.1666667   0.0000000   0.6666667
     -------------------------------------------------------------------
     E(   2 )=  -7.7841 eV   Re[Sigma]=      10.688797 meV Im[Sigma]=      49.807652 meV     Z=       1.104045 lam=      -0.094239
     E(   3 )=  -3.5170 eV   Re[Sigma]=       6.732513 meV Im[Sigma]=      40.011991 meV     Z=       1.046978 lam=      -0.044870
     E(   4 )=  -1.4636 eV   Re[Sigma]=      44.417632 meV Im[Sigma]=      57.683696 meV     Z=       0.893636 lam=       0.119024
     -------------------------------------------------------------------


     ik =      42 coord.:    0.1666667   0.0000000   0.8333333
     -------------------------------------------------------------------
     E(   2 )=  -4.2102 eV   Re[Sigma]=      -6.556303 meV Im[Sigma]=      22.901250 meV     Z=       0.994993 lam=       0.005032
     E(   3 )=  -2.2152 eV   Re[Sigma]=     -48.735124 meV Im[Sigma]=      63.453549 meV     Z=       1.030015 lam=      -0.029141
     E(   4 )=  -0.4858 eV   Re[Sigma]=      48.521754 meV Im[Sigma]=     135.140271 meV     Z=       2.004541 lam=      -0.501133
     -------------------------------------------------------------------


     ik =      43 coord.:    0.1666667   0.1666667   0.0000000
     -------------------------------------------------------------------
     E(   2 )=  -1.7072 eV   Re[Sigma]=      32.284282 meV Im[Sigma]=     112.277200 meV     Z=       0.964497 lam=       0.036810
     E(   3 )=  -1.0239 eV   Re[Sigma]=      64.826193 meV Im[Sigma]=      29.100640 meV     Z=       0.891030 lam=       0.122297
     E(   4 )=  -1.0239 eV   Re[Sigma]=      64.826193 meV Im[Sigma]=      29.100640 meV     Z=       0.891030 lam=       0.122297
     -------------------------------------------------------------------


     ik =      44 coord.:    0.1666667   0.1666667   0.1666667
     -------------------------------------------------------------------
     E(   2 )=  -2.1472 eV   Re[Sigma]=     -61.198655 meV Im[Sigma]=      60.227681 meV     Z=       0.877404 lam=       0.139726
     E(   3 )=  -0.3746 eV   Re[Sigma]=      81.154713 meV Im[Sigma]=      51.258019 meV     Z=       0.971527 lam=       0.029308
     E(   4 )=  -0.3746 eV   Re[Sigma]=      81.154713 meV Im[Sigma]=      51.258019 meV     Z=       0.971527 lam=       0.029308
     -------------------------------------------------------------------


     ik =      45 coord.:    0.1666667   0.1666667   0.3333333
     -------------------------------------------------------------------
     E(   2 )=  -4.2102 eV   Re[Sigma]=      -6.556303 meV Im[Sigma]=      22.901249 meV     Z=       0.994993 lam=       0.005032
     E(   3 )=  -2.2152 eV   Re[Sigma]=     -48.735125 meV Im[Sigma]=      63.453551 meV     Z=       1.030015 lam=      -0.029141
     E(   4 )=  -0.4858 eV   Re[Sigma]=      48.521754 meV Im[Sigma]=     135.140272 meV     Z=       2.004541 lam=      -0.501133
     -------------------------------------------------------------------


     ik =      46 coord.:    0.1666667   0.1666667   0.5000000
     -------------------------------------------------------------------
     E(   2 )=  -7.7841 eV   Re[Sigma]=      10.688694 meV Im[Sigma]=      49.807478 meV     Z=       1.104045 lam=      -0.094240
     E(   3 )=  -3.5170 eV   Re[Sigma]=       6.732535 meV Im[Sigma]=      40.012332 meV     Z=       1.046978 lam=      -0.044870
     E(   4 )=  -1.4636 eV   Re[Sigma]=      44.417524 meV Im[Sigma]=      57.684126 meV     Z=       0.893637 lam=       0.119022
     -------------------------------------------------------------------


     ik =      47 coord.:    0.1666667   0.1666667   0.6666667
     -------------------------------------------------------------------
     E(   2 )=  -8.6498 eV   Re[Sigma]=       0.000000 meV Im[Sigma]=       0.000000 meV     Z=       1.000000 lam=       0.000000
     E(   3 )=  -3.0372 eV   Re[Sigma]=       0.000000 meV Im[Sigma]=       0.000000 meV     Z=       1.000000 lam=       0.000000
     E(   4 )=  -2.2836 eV   Re[Sigma]=       0.000000 meV Im[Sigma]=       0.000000 meV     Z=       1.000000 lam=       0.000000
     -------------------------------------------------------------------


     ik =      48 coord.:    0.1666667   0.1666667   0.8333333
     -------------------------------------------------------------------
     E(   2 )=  -5.3050 eV   Re[Sigma]=      11.111061 meV Im[Sigma]=      45.387101 meV     Z=       1.049614 lam=      -0.047269
     E(   3 )=  -1.9550 eV   Re[Sigma]=     -31.000573 meV Im[Sigma]=      73.581736 meV     Z=       0.887668 lam=       0.126547
     E(   4 )=  -1.7220 eV   Re[Sigma]=      26.790287 meV Im[Sigma]=     115.848464 meV     Z=       1.070481 lam=      -0.065841
     -------------------------------------------------------------------


     ik =      49 coord.:    0.1666667   0.3333333   0.0000000
     -------------------------------------------------------------------
     E(   2 )=  -5.3050 eV   Re[Sigma]=      11.111185 meV Im[Sigma]=      45.386733 meV     Z=       1.049613 lam=      -0.047268
     E(   3 )=  -1.9550 eV   Re[Sigma]=     -31.001393 meV Im[Sigma]=      73.582521 meV     Z=       0.887666 lam=       0.126550
     E(   4 )=  -1.7220 eV   Re[Sigma]=      26.790051 meV Im[Sigma]=     115.849072 meV     Z=       1.070485 lam=      -0.065844
     -------------------------------------------------------------------


     ik =      50 coord.:    0.1666667   0.3333333   0.1666667
     -------------------------------------------------------------------
     E(   2 )=  -4.2102 eV   Re[Sigma]=      -6.556303 meV Im[Sigma]=      22.901249 meV     Z=       0.994993 lam=       0.005032
     E(   3 )=  -2.2152 eV   Re[Sigma]=     -48.735127 meV Im[Sigma]=      63.453553 meV     Z=       1.030015 lam=      -0.029141
     E(   4 )=  -0.4858 eV   Re[Sigma]=      48.521753 meV Im[Sigma]=     135.140267 meV     Z=       2.004541 lam=      -0.501133
     -------------------------------------------------------------------


     ik =      51 coord.:    0.1666667   0.3333333   0.3333333
     -------------------------------------------------------------------
     E(   2 )=  -5.3050 eV   Re[Sigma]=      11.111061 meV Im[Sigma]=      45.387100 meV     Z=       1.049614 lam=      -0.047269
     E(   3 )=  -1.9550 eV   Re[Sigma]=     -31.000573 meV Im[Sigma]=      73.581736 meV     Z=       0.887668 lam=       0.126547
     E(   4 )=  -1.7220 eV   Re[Sigma]=      26.790287 meV Im[Sigma]=     115.848468 meV     Z=       1.070481 lam=      -0.065841
     -------------------------------------------------------------------


     ik =      52 coord.:    0.1666667   0.3333333   0.5000000
     -------------------------------------------------------------------
     E(   2 )=  -6.8089 eV   Re[Sigma]=       0.000000 meV Im[Sigma]=       0.000000 meV     Z=       1.000000 lam=       0.000000
     E(   3 )=  -4.5766 eV   Re[Sigma]=       0.000000 meV Im[Sigma]=       0.000000 meV     Z=       1.000000 lam=       0.000000
     E(   4 )=  -2.4092 eV   Re[Sigma]=       0.000000 meV Im[Sigma]=       0.000000 meV     Z=       1.000000 lam=       0.000000
     -------------------------------------------------------------------


     ik =      53 coord.:    0.1666667   0.3333333   0.6666667
     -------------------------------------------------------------------
     E(   2 )=  -8.1182 eV   Re[Sigma]=       0.000000 meV Im[Sigma]=       0.000000 meV     Z=       1.000000 lam=       0.000000
     E(   3 )=  -5.4137 eV   Re[Sigma]=       0.000000 meV Im[Sigma]=       0.000000 meV     Z=       1.000000 lam=       0.000000
     E(   4 )=  -3.2174 eV   Re[Sigma]=       0.000000 meV Im[Sigma]=       0.000000 meV     Z=       1.000000 lam=       0.000000
     -------------------------------------------------------------------


     ik =      54 coord.:    0.1666667   0.3333333   0.8333333
     -------------------------------------------------------------------
     E(   2 )=  -6.8089 eV   Re[Sigma]=       0.000000 meV Im[Sigma]=       0.000000 meV     Z=       1.000000 lam=       0.000000
     E(   3 )=  -4.5766 eV   Re[Sigma]=       0.000000 meV Im[Sigma]=       0.000000 meV     Z=       1.000000 lam=       0.000000
     E(   4 )=  -2.4092 eV   Re[Sigma]=       0.000000 meV Im[Sigma]=       0.000000 meV     Z=       1.000000 lam=       0.000000
     -------------------------------------------------------------------


     ik =      55 coord.:    0.1666667   0.5000000   0.0000000
     -------------------------------------------------------------------
     E(   2 )=  -8.6498 eV   Re[Sigma]=       0.000000 meV Im[Sigma]=       0.000000 meV     Z=       1.000000 lam=       0.000000
     E(   3 )=  -3.0372 eV   Re[Sigma]=       0.000000 meV Im[Sigma]=       0.000000 meV     Z=       1.000000 lam=       0.000000
     E(   4 )=  -2.2836 eV   Re[Sigma]=       0.000000 meV Im[Sigma]=       0.000000 meV     Z=       1.000000 lam=       0.000000
     -------------------------------------------------------------------


     ik =      56 coord.:    0.1666667   0.5000000   0.1666667
     -------------------------------------------------------------------
     E(   2 )=  -7.7841 eV   Re[Sigma]=      10.688694 meV Im[Sigma]=      49.807479 meV     Z=       1.104045 lam=      -0.094240
     E(   3 )=  -3.5170 eV   Re[Sigma]=       6.732535 meV Im[Sigma]=      40.012333 meV     Z=       1.046978 lam=      -0.044870
     E(   4 )=  -1.4636 eV   Re[Sigma]=      44.417523 meV Im[Sigma]=      57.684125 meV     Z=       0.893637 lam=       0.119022
     -------------------------------------------------------------------


     ik =      57 coord.:    0.1666667   0.5000000   0.3333333
     -------------------------------------------------------------------
     E(   2 )=  -6.8089 eV   Re[Sigma]=       0.000000 meV Im[Sigma]=       0.000000 meV     Z=       1.000000 lam=       0.000000
     E(   3 )=  -4.5766 eV   Re[Sigma]=       0.000000 meV Im[Sigma]=       0.000000 meV     Z=       1.000000 lam=       0.000000
     E(   4 )=  -2.4092 eV   Re[Sigma]=       0.000000 meV Im[Sigma]=       0.000000 meV     Z=       1.000000 lam=       0.000000
     -------------------------------------------------------------------


     ik =      58 coord.:    0.1666667   0.5000000   0.5000000
     -------------------------------------------------------------------
     E(   2 )=  -7.6363 eV   Re[Sigma]=       0.000000 meV Im[Sigma]=       0.000000 meV     Z=       1.000000 lam=       0.000000
     E(   3 )=  -4.8087 eV   Re[Sigma]=       0.000000 meV Im[Sigma]=       0.000000 meV     Z=       1.000000 lam=       0.000000
     E(   4 )=  -3.6130 eV   Re[Sigma]=       0.000000 meV Im[Sigma]=       0.000000 meV     Z=       1.000000 lam=       0.000000
     -------------------------------------------------------------------


     ik =      59 coord.:    0.1666667   0.5000000   0.6666667
     -------------------------------------------------------------------
     E(   2 )=  -7.8765 eV   Re[Sigma]=       0.000000 meV Im[Sigma]=       0.000000 meV     Z=       1.000000 lam=       0.000000
     E(   3 )=  -5.6007 eV   Re[Sigma]=       0.000000 meV Im[Sigma]=       0.000000 meV     Z=       1.000000 lam=       0.000000
     E(   4 )=  -4.3908 eV   Re[Sigma]=       0.000000 meV Im[Sigma]=       0.000000 meV     Z=       1.000000 lam=       0.000000
     -------------------------------------------------------------------


     ik =      60 coord.:    0.1666667   0.5000000   0.8333333
     -------------------------------------------------------------------
     E(   2 )=  -8.1182 eV   Re[Sigma]=       0.000000 meV Im[Sigma]=       0.000000 meV     Z=       1.000000 lam=       0.000000
     E(   3 )=  -5.4137 eV   Re[Sigma]=       0.000000 meV Im[Sigma]=       0.000000 meV     Z=       1.000000 lam=       0.000000
     E(   4 )=  -3.2174 eV   Re[Sigma]=       0.000000 meV Im[Sigma]=       0.000000 meV     Z=       1.000000 lam=       0.000000
     -------------------------------------------------------------------


     ik =      61 coord.:    0.1666667   0.6666667   0.0000000
     -------------------------------------------------------------------
     E(   2 )=  -7.7841 eV   Re[Sigma]=      10.688797 meV Im[Sigma]=      49.807651 meV     Z=       1.104045 lam=      -0.094239
     E(   3 )=  -3.5170 eV   Re[Sigma]=       6.732513 meV Im[Sigma]=      40.011991 meV     Z=       1.046978 lam=      -0.044870
     E(   4 )=  -1.4636 eV   Re[Sigma]=      44.417633 meV Im[Sigma]=      57.683696 meV     Z=       0.893636 lam=       0.119024
     -------------------------------------------------------------------


     ik =      62 coord.:    0.1666667   0.6666667   0.1666667
     -------------------------------------------------------------------
     E(   2 )=  -8.6498 eV   Re[Sigma]=       0.000000 meV Im[Sigma]=       0.000000 meV     Z=       1.000000 lam=       0.000000
     E(   3 )=  -3.0372 eV   Re[Sigma]=       0.000000 meV Im[Sigma]=       0.000000 meV     Z=       1.000000 lam=       0.000000
     E(   4 )=  -2.2836 eV   Re[Sigma]=       0.000000 meV Im[Sigma]=       0.000000 meV     Z=       1.000000 lam=       0.000000
     -------------------------------------------------------------------


     ik =      63 coord.:    0.1666667   0.6666667   0.3333333
     -------------------------------------------------------------------
     E(   2 )=  -8.1182 eV   Re[Sigma]=       0.000000 meV Im[Sigma]=       0.000000 meV     Z=       1.000000 lam=       0.000000
     E(   3 )=  -5.4137 eV   Re[Sigma]=       0.000000 meV Im[Sigma]=       0.000000 meV     Z=       1.000000 lam=       0.000000
     E(   4 )=  -3.2174 eV   Re[Sigma]=       0.000000 meV Im[Sigma]=       0.000000 meV     Z=       1.000000 lam=       0.000000
     -------------------------------------------------------------------


     ik =      64 coord.:    0.1666667   0.6666667   0.5000000
     -------------------------------------------------------------------
     E(   2 )=  -7.8765 eV   Re[Sigma]=       0.000000 meV Im[Sigma]=       0.000000 meV     Z=       1.000000 lam=       0.000000
     E(   3 )=  -5.6007 eV   Re[Sigma]=       0.000000 meV Im[Sigma]=       0.000000 meV     Z=       1.000000 lam=       0.000000
     E(   4 )=  -4.3908 eV   Re[Sigma]=       0.000000 meV Im[Sigma]=       0.000000 meV     Z=       1.000000 lam=       0.000000
     -------------------------------------------------------------------


     ik =      65 coord.:    0.1666667   0.6666667   0.6666667
     -------------------------------------------------------------------
     E(   2 )=  -7.6363 eV   Re[Sigma]=       0.000000 meV Im[Sigma]=       0.000000 meV     Z=       1.000000 lam=       0.000000
     E(   3 )=  -4.8087 eV   Re[Sigma]=       0.000000 meV Im[Sigma]=       0.000000 meV     Z=       1.000000 lam=       0.000000
     E(   4 )=  -3.6130 eV   Re[Sigma]=       0.000000 meV Im[Sigma]=       0.000000 meV     Z=       1.000000 lam=       0.000000
     -------------------------------------------------------------------


     ik =      66 coord.:    0.1666667   0.6666667   0.8333333
     -------------------------------------------------------------------
     E(   2 )=  -6.8089 eV   Re[Sigma]=       0.000000 meV Im[Sigma]=       0.000000 meV     Z=       1.000000 lam=       0.000000
     E(   3 )=  -4.5766 eV   Re[Sigma]=       0.000000 meV Im[Sigma]=       0.000000 meV     Z=       1.000000 lam=       0.000000
     E(   4 )=  -2.4092 eV   Re[Sigma]=       0.000000 meV Im[Sigma]=       0.000000 meV     Z=       1.000000 lam=       0.000000
     -------------------------------------------------------------------


     ik =      67 coord.:    0.1666667   0.8333333   0.0000000
     -------------------------------------------------------------------
     E(   2 )=  -4.2102 eV   Re[Sigma]=      -6.556303 meV Im[Sigma]=      22.901250 meV     Z=       0.994993 lam=       0.005032
     E(   3 )=  -2.2152 eV   Re[Sigma]=     -48.735126 meV Im[Sigma]=      63.453550 meV     Z=       1.030015 lam=      -0.029141
     E(   4 )=  -0.4858 eV   Re[Sigma]=      48.521753 meV Im[Sigma]=     135.140268 meV     Z=       2.004541 lam=      -0.501133
     -------------------------------------------------------------------


     ik =      68 coord.:    0.1666667   0.8333333   0.1666667
     -------------------------------------------------------------------
     E(   2 )=  -5.3050 eV   Re[Sigma]=      11.111061 meV Im[Sigma]=      45.387102 meV     Z=       1.049614 lam=      -0.047269
     E(   3 )=  -1.9550 eV   Re[Sigma]=     -31.000574 meV Im[Sigma]=      73.581737 meV     Z=       0.887668 lam=       0.126547
     E(   4 )=  -1.7220 eV   Re[Sigma]=      26.790287 meV Im[Sigma]=     115.848466 meV     Z=       1.070481 lam=      -0.065841
     -------------------------------------------------------------------


     ik =      69 coord.:    0.1666667   0.8333333   0.3333333
     -------------------------------------------------------------------
     E(   2 )=  -6.8089 eV   Re[Sigma]=       0.000000 meV Im[Sigma]=       0.000000 meV     Z=       1.000000 lam=       0.000000
     E(   3 )=  -4.5766 eV   Re[Sigma]=       0.000000 meV Im[Sigma]=       0.000000 meV     Z=       1.000000 lam=       0.000000
     E(   4 )=  -2.4092 eV   Re[Sigma]=       0.000000 meV Im[Sigma]=       0.000000 meV     Z=       1.000000 lam=       0.000000
     -------------------------------------------------------------------


     ik =      70 coord.:    0.1666667   0.8333333   0.5000000
     -------------------------------------------------------------------
     E(   2 )=  -8.1182 eV   Re[Sigma]=       0.000000 meV Im[Sigma]=       0.000000 meV     Z=       1.000000 lam=       0.000000
     E(   3 )=  -5.4137 eV   Re[Sigma]=       0.000000 meV Im[Sigma]=       0.000000 meV     Z=       1.000000 lam=       0.000000
     E(   4 )=  -3.2174 eV   Re[Sigma]=       0.000000 meV Im[Sigma]=       0.000000 meV     Z=       1.000000 lam=       0.000000
     -------------------------------------------------------------------


     ik =      71 coord.:    0.1666667   0.8333333   0.6666667
     -------------------------------------------------------------------
     E(   2 )=  -6.8089 eV   Re[Sigma]=       0.000000 meV Im[Sigma]=       0.000000 meV     Z=       1.000000 lam=       0.000000
     E(   3 )=  -4.5766 eV   Re[Sigma]=       0.000000 meV Im[Sigma]=       0.000000 meV     Z=       1.000000 lam=       0.000000
     E(   4 )=  -2.4092 eV   Re[Sigma]=       0.000000 meV Im[Sigma]=       0.000000 meV     Z=       1.000000 lam=       0.000000
     -------------------------------------------------------------------


     ik =      72 coord.:    0.1666667   0.8333333   0.8333333
     -------------------------------------------------------------------
     E(   2 )=  -5.3050 eV   Re[Sigma]=      11.111184 meV Im[Sigma]=      45.386734 meV     Z=       1.049613 lam=      -0.047268
     E(   3 )=  -1.9550 eV   Re[Sigma]=     -31.001394 meV Im[Sigma]=      73.582523 meV     Z=       0.887666 lam=       0.126550
     E(   4 )=  -1.7220 eV   Re[Sigma]=      26.790051 meV Im[Sigma]=     115.849070 meV     Z=       1.070485 lam=      -0.065844
     -------------------------------------------------------------------


     ik =      73 coord.:    0.3333333   0.0000000   0.0000000
     -------------------------------------------------------------------
     E(   2 )=  -6.8685 eV   Re[Sigma]=       0.206972 meV Im[Sigma]=      10.691657 meV     Z=       0.997096 lam=       0.002912
     E(   3 )=  -1.1730 eV   Re[Sigma]=      43.369605 meV Im[Sigma]=      85.938204 meV     Z=       1.087775 lam=      -0.080692
     E(   4 )=  -1.1730 eV   Re[Sigma]=      43.369605 meV Im[Sigma]=      85.938204 meV     Z=       1.087775 lam=      -0.080692
     -------------------------------------------------------------------


     ik =      74 coord.:    0.3333333   0.0000000   0.1666667
     -------------------------------------------------------------------
     E(   2 )=  -5.3050 eV   Re[Sigma]=      11.111185 meV Im[Sigma]=      45.386734 meV     Z=       1.049613 lam=      -0.047268
     E(   3 )=  -1.9550 eV   Re[Sigma]=     -31.001394 meV Im[Sigma]=      73.582522 meV     Z=       0.887666 lam=       0.126550
     E(   4 )=  -1.7220 eV   Re[Sigma]=      26.790051 meV Im[Sigma]=     115.849071 meV     Z=       1.070485 lam=      -0.065844
     -------------------------------------------------------------------


     ik =      75 coord.:    0.3333333   0.0000000   0.3333333
     -------------------------------------------------------------------
     E(   2 )=  -5.7377 eV   Re[Sigma]=       0.000000 meV Im[Sigma]=       0.000000 meV     Z=       1.000000 lam=       0.000000
     E(   3 )=  -3.1516 eV   Re[Sigma]=       0.000000 meV Im[Sigma]=       0.000000 meV     Z=       1.000000 lam=       0.000000
     E(   4 )=  -3.1516 eV   Re[Sigma]=       0.000000 meV Im[Sigma]=       0.000000 meV     Z=       1.000000 lam=       0.000000
     -------------------------------------------------------------------


     ik =      76 coord.:    0.3333333   0.0000000   0.5000000
     -------------------------------------------------------------------
     E(   2 )=  -7.6363 eV   Re[Sigma]=       0.000000 meV Im[Sigma]=       0.000000 meV     Z=       1.000000 lam=       0.000000
     E(   3 )=  -4.8087 eV   Re[Sigma]=       0.000000 meV Im[Sigma]=       0.000000 meV     Z=       1.000000 lam=       0.000000
     E(   4 )=  -3.6130 eV   Re[Sigma]=       0.000000 meV Im[Sigma]=       0.000000 meV     Z=       1.000000 lam=       0.000000
     -------------------------------------------------------------------


     ik =      77 coord.:    0.3333333   0.0000000   0.6666667
     -------------------------------------------------------------------
     E(   2 )=  -7.7256 eV   Re[Sigma]=       0.000000 meV Im[Sigma]=       0.000000 meV     Z=       1.000000 lam=       0.000000
     E(   3 )=  -6.3198 eV   Re[Sigma]=       0.000000 meV Im[Sigma]=       0.000000 meV     Z=       1.000000 lam=       0.000000
     E(   4 )=  -2.7070 eV   Re[Sigma]=       0.000000 meV Im[Sigma]=       0.000000 meV     Z=       1.000000 lam=       0.000000
     -------------------------------------------------------------------


     ik =      78 coord.:    0.3333333   0.0000000   0.8333333
     -------------------------------------------------------------------
     E(   2 )=  -7.7841 eV   Re[Sigma]=      10.688694 meV Im[Sigma]=      49.807480 meV     Z=       1.104045 lam=      -0.094240
     E(   3 )=  -3.5170 eV   Re[Sigma]=       6.732535 meV Im[Sigma]=      40.012331 meV     Z=       1.046978 lam=      -0.044870
     E(   4 )=  -1.4636 eV   Re[Sigma]=      44.417525 meV Im[Sigma]=      57.684127 meV     Z=       0.893637 lam=       0.119022
     -------------------------------------------------------------------


     ik =      79 coord.:    0.3333333   0.1666667   0.0000000
     -------------------------------------------------------------------
     E(   2 )=  -5.3050 eV   Re[Sigma]=      11.111185 meV Im[Sigma]=      45.386734 meV     Z=       1.049613 lam=      -0.047268
     E(   3 )=  -1.9550 eV   Re[Sigma]=     -31.001393 meV Im[Sigma]=      73.582520 meV     Z=       0.887666 lam=       0.126550
     E(   4 )=  -1.7220 eV   Re[Sigma]=      26.790052 meV Im[Sigma]=     115.849073 meV     Z=       1.070485 lam=      -0.065844
     -------------------------------------------------------------------


     ik =      80 coord.:    0.3333333   0.1666667   0.1666667
     -------------------------------------------------------------------
     E(   2 )=  -4.2102 eV   Re[Sigma]=      -6.556303 meV Im[Sigma]=      22.901250 meV     Z=       0.994993 lam=       0.005032
     E(   3 )=  -2.2152 eV   Re[Sigma]=     -48.735126 meV Im[Sigma]=      63.453550 meV     Z=       1.030015 lam=      -0.029141
     E(   4 )=  -0.4858 eV   Re[Sigma]=      48.521753 meV Im[Sigma]=     135.140270 meV     Z=       2.004541 lam=      -0.501133
     -------------------------------------------------------------------


     ik =      81 coord.:    0.3333333   0.1666667   0.3333333
     -------------------------------------------------------------------
     E(   2 )=  -5.3050 eV   Re[Sigma]=      11.111061 meV Im[Sigma]=      45.387101 meV     Z=       1.049614 lam=      -0.047269
     E(   3 )=  -1.9550 eV   Re[Sigma]=     -31.000573 meV Im[Sigma]=      73.581737 meV     Z=       0.887668 lam=       0.126547
     E(   4 )=  -1.7220 eV   Re[Sigma]=      26.790288 meV Im[Sigma]=     115.848469 meV     Z=       1.070481 lam=      -0.065841
     -------------------------------------------------------------------


     ik =      82 coord.:    0.3333333   0.1666667   0.5000000
     -------------------------------------------------------------------
     E(   2 )=  -6.8089 eV   Re[Sigma]=       0.000000 meV Im[Sigma]=       0.000000 meV     Z=       1.000000 lam=       0.000000
     E(   3 )=  -4.5766 eV   Re[Sigma]=       0.000000 meV Im[Sigma]=       0.000000 meV     Z=       1.000000 lam=       0.000000
     E(   4 )=  -2.4092 eV   Re[Sigma]=       0.000000 meV Im[Sigma]=       0.000000 meV     Z=       1.000000 lam=       0.000000
     -------------------------------------------------------------------


     ik =      83 coord.:    0.3333333   0.1666667   0.6666667
     -------------------------------------------------------------------
     E(   2 )=  -8.1182 eV   Re[Sigma]=       0.000000 meV Im[Sigma]=       0.000000 meV     Z=       1.000000 lam=       0.000000
     E(   3 )=  -5.4137 eV   Re[Sigma]=       0.000000 meV Im[Sigma]=       0.000000 meV     Z=       1.000000 lam=       0.000000
     E(   4 )=  -3.2174 eV   Re[Sigma]=       0.000000 meV Im[Sigma]=       0.000000 meV     Z=       1.000000 lam=       0.000000
     -------------------------------------------------------------------


     ik =      84 coord.:    0.3333333   0.1666667   0.8333333
     -------------------------------------------------------------------
     E(   2 )=  -6.8089 eV   Re[Sigma]=       0.000000 meV Im[Sigma]=       0.000000 meV     Z=       1.000000 lam=       0.000000
     E(   3 )=  -4.5766 eV   Re[Sigma]=       0.000000 meV Im[Sigma]=       0.000000 meV     Z=       1.000000 lam=       0.000000
     E(   4 )=  -2.4092 eV   Re[Sigma]=       0.000000 meV Im[Sigma]=       0.000000 meV     Z=       1.000000 lam=       0.000000
     -------------------------------------------------------------------


     ik =      85 coord.:    0.3333333   0.3333333   0.0000000
     -------------------------------------------------------------------
     E(   2 )=  -5.7377 eV   Re[Sigma]=       0.000000 meV Im[Sigma]=       0.000000 meV     Z=       1.000000 lam=       0.000000
     E(   3 )=  -3.1516 eV   Re[Sigma]=       0.000000 meV Im[Sigma]=       0.000000 meV     Z=       1.000000 lam=       0.000000
     E(   4 )=  -3.1516 eV   Re[Sigma]=       0.000000 meV Im[Sigma]=       0.000000 meV     Z=       1.000000 lam=       0.000000
     -------------------------------------------------------------------


     ik =      86 coord.:    0.3333333   0.3333333   0.1666667
     -------------------------------------------------------------------
     E(   2 )=  -5.3050 eV   Re[Sigma]=      11.111061 meV Im[Sigma]=      45.387101 meV     Z=       1.049614 lam=      -0.047269
     E(   3 )=  -1.9550 eV   Re[Sigma]=     -31.000573 meV Im[Sigma]=      73.581737 meV     Z=       0.887668 lam=       0.126547
     E(   4 )=  -1.7220 eV   Re[Sigma]=      26.790288 meV Im[Sigma]=     115.848466 meV     Z=       1.070481 lam=      -0.065841
     -------------------------------------------------------------------


     ik =      87 coord.:    0.3333333   0.3333333   0.3333333
     -------------------------------------------------------------------
     E(   2 )=  -6.8685 eV   Re[Sigma]=       0.207047 meV Im[Sigma]=      10.691753 meV     Z=       0.997096 lam=       0.002913
     E(   3 )=  -1.1730 eV   Re[Sigma]=      43.368962 meV Im[Sigma]=      85.937049 meV     Z=       1.087775 lam=      -0.080692
     E(   4 )=  -1.1730 eV   Re[Sigma]=      43.368962 meV Im[Sigma]=      85.937049 meV     Z=       1.087775 lam=      -0.080692
     -------------------------------------------------------------------


     ik =      88 coord.:    0.3333333   0.3333333   0.5000000
     -------------------------------------------------------------------
     E(   2 )=  -7.7841 eV   Re[Sigma]=      10.688797 meV Im[Sigma]=      49.807651 meV     Z=       1.104045 lam=      -0.094239
     E(   3 )=  -3.5170 eV   Re[Sigma]=       6.732513 meV Im[Sigma]=      40.011992 meV     Z=       1.046978 lam=      -0.044870
     E(   4 )=  -1.4636 eV   Re[Sigma]=      44.417633 meV Im[Sigma]=      57.683696 meV     Z=       0.893636 lam=       0.119024
     -------------------------------------------------------------------


     ik =      89 coord.:    0.3333333   0.3333333   0.6666667
     -------------------------------------------------------------------
     E(   2 )=  -7.7256 eV   Re[Sigma]=       0.000000 meV Im[Sigma]=       0.000000 meV     Z=       1.000000 lam=       0.000000
     E(   3 )=  -6.3198 eV   Re[Sigma]=       0.000000 meV Im[Sigma]=       0.000000 meV     Z=       1.000000 lam=       0.000000
     E(   4 )=  -2.7070 eV   Re[Sigma]=       0.000000 meV Im[Sigma]=       0.000000 meV     Z=       1.000000 lam=       0.000000
     -------------------------------------------------------------------


     ik =      90 coord.:    0.3333333   0.3333333   0.8333333
     -------------------------------------------------------------------
     E(   2 )=  -7.6363 eV   Re[Sigma]=       0.000000 meV Im[Sigma]=       0.000000 meV     Z=       1.000000 lam=       0.000000
     E(   3 )=  -4.8087 eV   Re[Sigma]=       0.000000 meV Im[Sigma]=       0.000000 meV     Z=       1.000000 lam=       0.000000
     E(   4 )=  -3.6130 eV   Re[Sigma]=       0.000000 meV Im[Sigma]=       0.000000 meV     Z=       1.000000 lam=       0.000000
     -------------------------------------------------------------------


     ik =      91 coord.:    0.3333333   0.5000000   0.0000000
     -------------------------------------------------------------------
     E(   2 )=  -7.6363 eV   Re[Sigma]=       0.000000 meV Im[Sigma]=       0.000000 meV     Z=       1.000000 lam=       0.000000
     E(   3 )=  -4.8087 eV   Re[Sigma]=       0.000000 meV Im[Sigma]=       0.000000 meV     Z=       1.000000 lam=       0.000000
     E(   4 )=  -3.6130 eV   Re[Sigma]=       0.000000 meV Im[Sigma]=       0.000000 meV     Z=       1.000000 lam=       0.000000
     -------------------------------------------------------------------


     ik =      92 coord.:    0.3333333   0.5000000   0.1666667
     -------------------------------------------------------------------
     E(   2 )=  -6.8089 eV   Re[Sigma]=       0.000000 meV Im[Sigma]=       0.000000 meV     Z=       1.000000 lam=       0.000000
     E(   3 )=  -4.5766 eV   Re[Sigma]=       0.000000 meV Im[Sigma]=       0.000000 meV     Z=       1.000000 lam=       0.000000
     E(   4 )=  -2.4092 eV   Re[Sigma]=       0.000000 meV Im[Sigma]=       0.000000 meV     Z=       1.000000 lam=       0.000000
     -------------------------------------------------------------------


     ik =      93 coord.:    0.3333333   0.5000000   0.3333333
     -------------------------------------------------------------------
     E(   2 )=  -7.7841 eV   Re[Sigma]=      10.688797 meV Im[Sigma]=      49.807652 meV     Z=       1.104045 lam=      -0.094239
     E(   3 )=  -3.5170 eV   Re[Sigma]=       6.732513 meV Im[Sigma]=      40.011991 meV     Z=       1.046978 lam=      -0.044870
     E(   4 )=  -1.4636 eV   Re[Sigma]=      44.417632 meV Im[Sigma]=      57.683696 meV     Z=       0.893636 lam=       0.119024
     -------------------------------------------------------------------


     ik =      94 coord.:    0.3333333   0.5000000   0.5000000
     -------------------------------------------------------------------
     E(   2 )=  -8.6498 eV   Re[Sigma]=       0.000000 meV Im[Sigma]=       0.000000 meV     Z=       1.000000 lam=       0.000000
     E(   3 )=  -3.0372 eV   Re[Sigma]=       0.000000 meV Im[Sigma]=       0.000000 meV     Z=       1.000000 lam=       0.000000
     E(   4 )=  -2.2836 eV   Re[Sigma]=       0.000000 meV Im[Sigma]=       0.000000 meV     Z=       1.000000 lam=       0.000000
     -------------------------------------------------------------------


     ik =      95 coord.:    0.3333333   0.5000000   0.6666667
     -------------------------------------------------------------------
     E(   2 )=  -8.1182 eV   Re[Sigma]=       0.000000 meV Im[Sigma]=       0.000000 meV     Z=       1.000000 lam=       0.000000
     E(   3 )=  -5.4137 eV   Re[Sigma]=       0.000000 meV Im[Sigma]=       0.000000 meV     Z=       1.000000 lam=       0.000000
     E(   4 )=  -3.2174 eV   Re[Sigma]=       0.000000 meV Im[Sigma]=       0.000000 meV     Z=       1.000000 lam=       0.000000
     -------------------------------------------------------------------


     ik =      96 coord.:    0.3333333   0.5000000   0.8333333
     -------------------------------------------------------------------
     E(   2 )=  -7.8765 eV   Re[Sigma]=       0.000000 meV Im[Sigma]=       0.000000 meV     Z=       1.000000 lam=       0.000000
     E(   3 )=  -5.6007 eV   Re[Sigma]=       0.000000 meV Im[Sigma]=       0.000000 meV     Z=       1.000000 lam=       0.000000
     E(   4 )=  -4.3908 eV   Re[Sigma]=       0.000000 meV Im[Sigma]=       0.000000 meV     Z=       1.000000 lam=       0.000000
     -------------------------------------------------------------------


     ik =      97 coord.:    0.3333333   0.6666667   0.0000000
     -------------------------------------------------------------------
     E(   2 )=  -7.7256 eV   Re[Sigma]=       0.000000 meV Im[Sigma]=       0.000000 meV     Z=       1.000000 lam=       0.000000
     E(   3 )=  -6.3198 eV   Re[Sigma]=       0.000000 meV Im[Sigma]=       0.000000 meV     Z=       1.000000 lam=       0.000000
     E(   4 )=  -2.7070 eV   Re[Sigma]=       0.000000 meV Im[Sigma]=       0.000000 meV     Z=       1.000000 lam=       0.000000
     -------------------------------------------------------------------


     ik =      98 coord.:    0.3333333   0.6666667   0.1666667
     -------------------------------------------------------------------
     E(   2 )=  -8.1182 eV   Re[Sigma]=       0.000000 meV Im[Sigma]=       0.000000 meV     Z=       1.000000 lam=       0.000000
     E(   3 )=  -5.4137 eV   Re[Sigma]=       0.000000 meV Im[Sigma]=       0.000000 meV     Z=       1.000000 lam=       0.000000
     E(   4 )=  -3.2174 eV   Re[Sigma]=       0.000000 meV Im[Sigma]=       0.000000 meV     Z=       1.000000 lam=       0.000000
     -------------------------------------------------------------------


     ik =      99 coord.:    0.3333333   0.6666667   0.3333333
     -------------------------------------------------------------------
     E(   2 )=  -7.7256 eV   Re[Sigma]=       0.000000 meV Im[Sigma]=       0.000000 meV     Z=       1.000000 lam=       0.000000
     E(   3 )=  -6.3198 eV   Re[Sigma]=       0.000000 meV Im[Sigma]=       0.000000 meV     Z=       1.000000 lam=       0.000000
     E(   4 )=  -2.7070 eV   Re[Sigma]=       0.000000 meV Im[Sigma]=       0.000000 meV     Z=       1.000000 lam=       0.000000
     -------------------------------------------------------------------


     ik =     100 coord.:    0.3333333   0.6666667   0.5000000
     -------------------------------------------------------------------
     E(   2 )=  -8.1182 eV   Re[Sigma]=       0.000000 meV Im[Sigma]=       0.000000 meV     Z=       1.000000 lam=       0.000000
     E(   3 )=  -5.4137 eV   Re[Sigma]=       0.000000 meV Im[Sigma]=       0.000000 meV     Z=       1.000000 lam=       0.000000
     E(   4 )=  -3.2174 eV   Re[Sigma]=       0.000000 meV Im[Sigma]=       0.000000 meV     Z=       1.000000 lam=       0.000000
     -------------------------------------------------------------------


     ik =     101 coord.:    0.3333333   0.6666667   0.6666667
     -------------------------------------------------------------------
     E(   2 )=  -7.7256 eV   Re[Sigma]=       0.000000 meV Im[Sigma]=       0.000000 meV     Z=       1.000000 lam=       0.000000
     E(   3 )=  -6.3198 eV   Re[Sigma]=       0.000000 meV Im[Sigma]=       0.000000 meV     Z=       1.000000 lam=       0.000000
     E(   4 )=  -2.7070 eV   Re[Sigma]=       0.000000 meV Im[Sigma]=       0.000000 meV     Z=       1.000000 lam=       0.000000
     -------------------------------------------------------------------


     ik =     102 coord.:    0.3333333   0.6666667   0.8333333
     -------------------------------------------------------------------
     E(   2 )=  -8.1182 eV   Re[Sigma]=       0.000000 meV Im[Sigma]=       0.000000 meV     Z=       1.000000 lam=       0.000000
     E(   3 )=  -5.4137 eV   Re[Sigma]=       0.000000 meV Im[Sigma]=       0.000000 meV     Z=       1.000000 lam=       0.000000
     E(   4 )=  -3.2174 eV   Re[Sigma]=       0.000000 meV Im[Sigma]=       0.000000 meV     Z=       1.000000 lam=       0.000000
     -------------------------------------------------------------------


     ik =     103 coord.:    0.3333333   0.8333333   0.0000000
     -------------------------------------------------------------------
     E(   2 )=  -7.7841 eV   Re[Sigma]=      10.688694 meV Im[Sigma]=      49.807479 meV     Z=       1.104045 lam=      -0.094240
[...]
      205        3     -1.9550    -31.0006     73.5817      0.8877      0.1265
      206        3     -4.5766      0.0000      0.0000      1.0000      0.0000
      207        3     -5.4137      0.0000      0.0000      1.0000      0.0000
      208        3     -4.5766      0.0000      0.0000      1.0000      0.0000
      209        3     -1.9550    -31.0014     73.5825      0.8877      0.1266
      210        3     -2.2152    -48.7351     63.4536      1.0300     -0.0291
      211        3     -1.0239     64.8262     29.1006      0.8910      0.1223
      212        3     -1.9550    -31.0014     73.5825      0.8877      0.1266
      213        3     -3.0372      0.0000      0.0000      1.0000      0.0000
      214        3     -3.5170      6.7325     40.0120      1.0470     -0.0449
      215        3     -2.2152    -48.7351     63.4536      1.0300     -0.0291
      216        3     -0.3746     81.1553     51.2589      0.9715      0.0293
  
        1        4     -0.0842     65.1876      4.2760      0.9249      0.0812
        2        4     -0.3746     81.1553     51.2589      0.9715      0.0293
        3        4     -1.1730     43.3696     85.9382      1.0878     -0.0807
        4        4     -1.6810     22.6261     79.0542      0.8817      0.1342
        5        4     -1.1730     43.3690     85.9370      1.0878     -0.0807
        6        4     -0.3746     81.1547     51.2580      0.9715      0.0293
        7        4     -0.3746     81.1553     51.2589      0.9715      0.0293
        8        4     -1.0239     64.8262     29.1006      0.8910      0.1223
        9        4     -1.7220     26.7901    115.8491      1.0705     -0.0658
       10        4     -2.2836      0.0000      0.0000      1.0000      0.0000
       11        4     -1.4636     44.4176     57.6837      0.8936      0.1190
       12        4     -0.4858     48.5218    135.1403      2.0045     -0.5011
       13        4     -1.1730     43.3696     85.9382      1.0878     -0.0807
       14        4     -1.7220     26.7901    115.8491      1.0705     -0.0658
       15        4     -3.1516      0.0000      0.0000      1.0000      0.0000
       16        4     -3.6130      0.0000      0.0000      1.0000      0.0000
       17        4     -2.7070      0.0000      0.0000      1.0000      0.0000
       18        4     -1.4636     44.4175     57.6841      0.8936      0.1190
       19        4     -1.6810     22.6261     79.0542      0.8817      0.1342
       20        4     -2.2836      0.0000      0.0000      1.0000      0.0000
       21        4     -3.6130      0.0000      0.0000      1.0000      0.0000
       22        4     -4.3397      0.0000      0.0000      1.0000      0.0000
       23        4     -3.6130      0.0000      0.0000      1.0000      0.0000
       24        4     -2.2836      0.0000      0.0000      1.0000      0.0000
       25        4     -1.1730     43.3690     85.9370      1.0878     -0.0807
       26        4     -1.4636     44.4176     57.6837      0.8936      0.1190
       27        4     -2.7070      0.0000      0.0000      1.0000      0.0000
       28        4     -3.6130      0.0000      0.0000      1.0000      0.0000
       29        4     -3.1516      0.0000      0.0000      1.0000      0.0000
       30        4     -1.7220     26.7903    115.8485      1.0705     -0.0658
       31        4     -0.3746     81.1547     51.2580      0.9715      0.0293
       32        4     -0.4858     48.5218    135.1403      2.0045     -0.5011
       33        4     -1.4636     44.4175     57.6841      0.8936      0.1190
       34        4     -2.2836      0.0000      0.0000      1.0000      0.0000
       35        4     -1.7220     26.7903    115.8485      1.0705     -0.0658
       36        4     -1.0239     64.8262     29.1006      0.8910      0.1223
       37        4     -0.3746     81.1553     51.2589      0.9715      0.0293
       38        4     -1.0239     64.8262     29.1006      0.8910      0.1223
       39        4     -1.7220     26.7901    115.8491      1.0705     -0.0658
       40        4     -2.2836      0.0000      0.0000      1.0000      0.0000
       41        4     -1.4636     44.4176     57.6837      0.8936      0.1190
       42        4     -0.4858     48.5218    135.1403      2.0045     -0.5011
       43        4     -1.0239     64.8262     29.1006      0.8910      0.1223
       44        4     -0.3746     81.1547     51.2580      0.9715      0.0293
       45        4     -0.4858     48.5218    135.1403      2.0045     -0.5011
       46        4     -1.4636     44.4175     57.6841      0.8936      0.1190
       47        4     -2.2836      0.0000      0.0000      1.0000      0.0000
       48        4     -1.7220     26.7903    115.8485      1.0705     -0.0658
       49        4     -1.7220     26.7901    115.8491      1.0705     -0.0658
       50        4     -0.4858     48.5218    135.1403      2.0045     -0.5011
       51        4     -1.7220     26.7903    115.8485      1.0705     -0.0658
       52        4     -2.4092      0.0000      0.0000      1.0000      0.0000
       53        4     -3.2174      0.0000      0.0000      1.0000      0.0000
       54        4     -2.4092      0.0000      0.0000      1.0000      0.0000
       55        4     -2.2836      0.0000      0.0000      1.0000      0.0000
       56        4     -1.4636     44.4175     57.6841      0.8936      0.1190
       57        4     -2.4092      0.0000      0.0000      1.0000      0.0000
       58        4     -3.6130      0.0000      0.0000      1.0000      0.0000
       59        4     -4.3908      0.0000      0.0000      1.0000      0.0000
       60        4     -3.2174      0.0000      0.0000      1.0000      0.0000
       61        4     -1.4636     44.4176     57.6837      0.8936      0.1190
       62        4     -2.2836      0.0000      0.0000      1.0000      0.0000
       63        4     -3.2174      0.0000      0.0000      1.0000      0.0000
       64        4     -4.3908      0.0000      0.0000      1.0000      0.0000
       65        4     -3.6130      0.0000      0.0000      1.0000      0.0000
       66        4     -2.4092      0.0000      0.0000      1.0000      0.0000
       67        4     -0.4858     48.5218    135.1403      2.0045     -0.5011
       68        4     -1.7220     26.7903    115.8485      1.0705     -0.0658
       69        4     -2.4092      0.0000      0.0000      1.0000      0.0000
       70        4     -3.2174      0.0000      0.0000      1.0000      0.0000
       71        4     -2.4092      0.0000      0.0000      1.0000      0.0000
       72        4     -1.7220     26.7901    115.8491      1.0705     -0.0658
       73        4     -1.1730     43.3696     85.9382      1.0878     -0.0807
       74        4     -1.7220     26.7901    115.8491      1.0705     -0.0658
       75        4     -3.1516      0.0000      0.0000      1.0000      0.0000
       76        4     -3.6130      0.0000      0.0000      1.0000      0.0000
       77        4     -2.7070      0.0000      0.0000      1.0000      0.0000
       78        4     -1.4636     44.4175     57.6841      0.8936      0.1190
       79        4     -1.7220     26.7901    115.8491      1.0705     -0.0658
       80        4     -0.4858     48.5218    135.1403      2.0045     -0.5011
       81        4     -1.7220     26.7903    115.8485      1.0705     -0.0658
       82        4     -2.4092      0.0000      0.0000      1.0000      0.0000
       83        4     -3.2174      0.0000      0.0000      1.0000      0.0000
       84        4     -2.4092      0.0000      0.0000      1.0000      0.0000
       85        4     -3.1516      0.0000      0.0000      1.0000      0.0000
       86        4     -1.7220     26.7903    115.8485      1.0705     -0.0658
       87        4     -1.1730     43.3690     85.9370      1.0878     -0.0807
       88        4     -1.4636     44.4176     57.6837      0.8936      0.1190
       89        4     -2.7070      0.0000      0.0000      1.0000      0.0000
       90        4     -3.6130      0.0000      0.0000      1.0000      0.0000
       91        4     -3.6130      0.0000      0.0000      1.0000      0.0000
       92        4     -2.4092      0.0000      0.0000      1.0000      0.0000
       93        4     -1.4636     44.4176     57.6837      0.8936      0.1190
       94        4     -2.2836      0.0000      0.0000      1.0000      0.0000
       95        4     -3.2174      0.0000      0.0000      1.0000      0.0000
       96        4     -4.3908      0.0000      0.0000      1.0000      0.0000
       97        4     -2.7070      0.0000      0.0000      1.0000      0.0000
       98        4     -3.2174      0.0000      0.0000      1.0000      0.0000
       99        4     -2.7070      0.0000      0.0000      1.0000      0.0000
      100        4     -3.2174      0.0000      0.0000      1.0000      0.0000
      101        4     -2.7070      0.0000      0.0000      1.0000      0.0000
      102        4     -3.2174      0.0000      0.0000      1.0000      0.0000
      103        4     -1.4636     44.4175     57.6841      0.8936      0.1190
      104        4     -2.4092      0.0000      0.0000      1.0000      0.0000
      105        4     -3.6130      0.0000      0.0000      1.0000      0.0000
      106        4     -4.3908      0.0000      0.0000      1.0000      0.0000
      107        4     -3.2174      0.0000      0.0000      1.0000      0.0000
      108        4     -2.2836      0.0000      0.0000      1.0000      0.0000
      109        4     -1.6810     22.6261     79.0542      0.8817      0.1342
      110        4     -2.2836      0.0000      0.0000      1.0000      0.0000
      111        4     -3.6130      0.0000      0.0000      1.0000      0.0000
      112        4     -4.3397      0.0000      0.0000      1.0000      0.0000
      113        4     -3.6130      0.0000      0.0000      1.0000      0.0000
      114        4     -2.2836      0.0000      0.0000      1.0000      0.0000
      115        4     -2.2836      0.0000      0.0000      1.0000      0.0000
      116        4     -1.4636     44.4175     57.6841      0.8936      0.1190
      117        4     -2.4092      0.0000      0.0000      1.0000      0.0000
      118        4     -3.6130      0.0000      0.0000      1.0000      0.0000
      119        4     -4.3908      0.0000      0.0000      1.0000      0.0000
      120        4     -3.2174      0.0000      0.0000      1.0000      0.0000
      121        4     -3.6130      0.0000      0.0000      1.0000      0.0000
      122        4     -2.4092      0.0000      0.0000      1.0000      0.0000
      123        4     -1.4636     44.4176     57.6837      0.8936      0.1190
      124        4     -2.2836      0.0000      0.0000      1.0000      0.0000
      125        4     -3.2174      0.0000      0.0000      1.0000      0.0000
      126        4     -4.3908      0.0000      0.0000      1.0000      0.0000
      127        4     -4.3397      0.0000      0.0000      1.0000      0.0000
      128        4     -3.6130      0.0000      0.0000      1.0000      0.0000
      129        4     -2.2836      0.0000      0.0000      1.0000      0.0000
      130        4     -1.6810     22.6261     79.0542      0.8817      0.1342
      131        4     -2.2836      0.0000      0.0000      1.0000      0.0000
      132        4     -3.6130      0.0000      0.0000      1.0000      0.0000
      133        4     -3.6130      0.0000      0.0000      1.0000      0.0000
      134        4     -4.3908      0.0000      0.0000      1.0000      0.0000
      135        4     -3.2174      0.0000      0.0000      1.0000      0.0000
      136        4     -2.2836      0.0000      0.0000      1.0000      0.0000
      137        4     -1.4636     44.4175     57.6841      0.8936      0.1190
      138        4     -2.4092      0.0000      0.0000      1.0000      0.0000
      139        4     -2.2836      0.0000      0.0000      1.0000      0.0000
      140        4     -3.2174      0.0000      0.0000      1.0000      0.0000
      141        4     -4.3908      0.0000      0.0000      1.0000      0.0000
      142        4     -3.6130      0.0000      0.0000      1.0000      0.0000
      143        4     -2.4092      0.0000      0.0000      1.0000      0.0000
      144        4     -1.4636     44.4176     57.6837      0.8936      0.1190
      145        4     -1.1730     43.3690     85.9370      1.0878     -0.0807
      146        4     -1.4636     44.4176     57.6837      0.8936      0.1190
      147        4     -2.7070      0.0000      0.0000      1.0000      0.0000
      148        4     -3.6130      0.0000      0.0000      1.0000      0.0000
      149        4     -3.1516      0.0000      0.0000      1.0000      0.0000
      150        4     -1.7220     26.7903    115.8485      1.0705     -0.0658
      151        4     -1.4636     44.4176     57.6837      0.8936      0.1190
      152        4     -2.2836      0.0000      0.0000      1.0000      0.0000
      153        4     -3.2174      0.0000      0.0000      1.0000      0.0000
      154        4     -4.3908      0.0000      0.0000      1.0000      0.0000
      155        4     -3.6130      0.0000      0.0000      1.0000      0.0000
      156        4     -2.4092      0.0000      0.0000      1.0000      0.0000
      157        4     -2.7070      0.0000      0.0000      1.0000      0.0000
      158        4     -3.2174      0.0000      0.0000      1.0000      0.0000
      159        4     -2.7070      0.0000      0.0000      1.0000      0.0000
      160        4     -3.2174      0.0000      0.0000      1.0000      0.0000
      161        4     -2.7070      0.0000      0.0000      1.0000      0.0000
      162        4     -3.2174      0.0000      0.0000      1.0000      0.0000
      163        4     -3.6130      0.0000      0.0000      1.0000      0.0000
      164        4     -4.3908      0.0000      0.0000      1.0000      0.0000
      165        4     -3.2174      0.0000      0.0000      1.0000      0.0000
      166        4     -2.2836      0.0000      0.0000      1.0000      0.0000
      167        4     -1.4636     44.4175     57.6841      0.8936      0.1190
      168        4     -2.4092      0.0000      0.0000      1.0000      0.0000
      169        4     -3.1516      0.0000      0.0000      1.0000      0.0000
      170        4     -3.6130      0.0000      0.0000      1.0000      0.0000
      171        4     -2.7070      0.0000      0.0000      1.0000      0.0000
      172        4     -1.4636     44.4175     57.6841      0.8936      0.1190
      173        4     -1.1730     43.3696     85.9382      1.0878     -0.0807
      174        4     -1.7220     26.7901    115.8491      1.0705     -0.0658
      175        4     -1.7220     26.7903    115.8485      1.0705     -0.0658
      176        4     -2.4092      0.0000      0.0000      1.0000      0.0000
      177        4     -3.2174      0.0000      0.0000      1.0000      0.0000
      178        4     -2.4092      0.0000      0.0000      1.0000      0.0000
      179        4     -1.7220     26.7901    115.8491      1.0705     -0.0658
      180        4     -0.4858     48.5218    135.1403      2.0045     -0.5011
      181        4     -0.3746     81.1547     51.2580      0.9715      0.0293
      182        4     -0.4858     48.5218    135.1403      2.0045     -0.5011
      183        4     -1.4636     44.4175     57.6841      0.8936      0.1190
      184        4     -2.2836      0.0000      0.0000      1.0000      0.0000
      185        4     -1.7220     26.7903    115.8485      1.0705     -0.0658
      186        4     -1.0239     64.8262     29.1006      0.8910      0.1223
      187        4     -0.4858     48.5218    135.1403      2.0045     -0.5011
      188        4     -1.7220     26.7903    115.8485      1.0705     -0.0658
      189        4     -2.4092      0.0000      0.0000      1.0000      0.0000
      190        4     -3.2174      0.0000      0.0000      1.0000      0.0000
      191        4     -2.4092      0.0000      0.0000      1.0000      0.0000
      192        4     -1.7220     26.7901    115.8491      1.0705     -0.0658
      193        4     -1.4636     44.4175     57.6841      0.8936      0.1190
      194        4     -2.4092      0.0000      0.0000      1.0000      0.0000
      195        4     -3.6130      0.0000      0.0000      1.0000      0.0000
      196        4     -4.3908      0.0000      0.0000      1.0000      0.0000
      197        4     -3.2174      0.0000      0.0000      1.0000      0.0000
      198        4     -2.2836      0.0000      0.0000      1.0000      0.0000
      199        4     -2.2836      0.0000      0.0000      1.0000      0.0000
      200        4     -3.2174      0.0000      0.0000      1.0000      0.0000
      201        4     -4.3908      0.0000      0.0000      1.0000      0.0000
      202        4     -3.6130      0.0000      0.0000      1.0000      0.0000
      203        4     -2.4092      0.0000      0.0000      1.0000      0.0000
      204        4     -1.4636     44.4176     57.6837      0.8936      0.1190
      205        4     -1.7220     26.7903    115.8485      1.0705     -0.0658
      206        4     -2.4092      0.0000      0.0000      1.0000      0.0000
      207        4     -3.2174      0.0000      0.0000      1.0000      0.0000
      208        4     -2.4092      0.0000      0.0000      1.0000      0.0000
      209        4     -1.7220     26.7901    115.8491      1.0705     -0.0658
      210        4     -0.4858     48.5218    135.1403      2.0045     -0.5011
      211        4     -1.0239     64.8262     29.1006      0.8910      0.1223
      212        4     -1.7220     26.7901    115.8491      1.0705     -0.0658
      213        4     -2.2836      0.0000      0.0000      1.0000      0.0000
      214        4     -1.4636     44.4176     57.6837      0.8936      0.1190
      215        4     -0.4858     48.5218    135.1403      2.0045     -0.5011
      216        4     -0.3746     81.1553     51.2589      0.9715      0.0293
  
     ===================================================================
     Memory usage:  VmHWM =        41Mb
                   VmPeak =       284Mb
     ===================================================================

 
     Unfolding on the coarse grid
     elphon_wrap  :     29.91s CPU     30.13s WALL (       1 calls)
 
     INITIALIZATION: 
 
     init_vloc    :      0.01s CPU      0.01s WALL (      29 calls)
     init_us_1    :      0.54s CPU      0.53s WALL (      29 calls)
 
 
     Electron-Phonon interpolation
     ephwann      :      2.68s CPU      2.86s WALL (       1 calls)
     ep-interp    :      2.37s CPU      2.49s WALL (     216 calls)
 
     Ham: step 1  :      0.00s CPU      0.00s WALL (       1 calls)
     Ham: step 2  :      0.00s CPU      0.00s WALL (       1 calls)
     ep: step 1   :      0.01s CPU      0.01s WALL (     162 calls)
     ep: step 2   :      0.03s CPU      0.05s WALL (     162 calls)
     DynW2B       :      0.01s CPU      0.01s WALL (     216 calls)
     HamW2B       :      0.85s CPU      0.91s WALL (   93744 calls)
     ephW2Bp      :      0.07s CPU      0.14s WALL (     216 calls)
 
 
     Total program execution
     EPW          :    34.63s CPU        35.08s WALL

                                                                                          
 Please consider citing:                                                                  
 S. Ponce, E. R. Margine, C. Verdi and F. Giustino, Comput. Phys. Commun. 209, 116 (2016) 
                                                                                          
 In addition, if you used anisotropic Eliashberg superconductivity please cite:           
              E. R. Margine and F. Giustino, Phys. Rev. B 87, 024505 (2013)               
              if you used transport properties (scattering rates, mobility) please cite:  
              S. Ponce, E. R. Margine and F. Giustino, Phys. Rev. B 97, 121201 (2018)     
