                                                                                      
                                       ``:oss/                                        
                           `.+s+.     .+ys--yh+     `./ss+.                           
                          -sh//yy+`   +yy   +yy    -+h+-oyy                           
                          -yh- .oyy/.-sh.   .syo-.:sy-  /yh                           
                 `.-.`    `yh+   -oyyyo.     `/syys:    oys      `.`                  
               `/+ssys+-` `sh+      `                   oys`   .:osyo`                
               -yh- ./syyooyo`                          .sys+/oyo--yh/                
               `yy+    .-:-.                             `-/+/:`  -sh-                
                /yh.                                              oys                 
          ``..---hho---------`   .---------..`      `.-----.`    -hd+---.             
       `./osmNMMMMMMMMMMMMMMMs. +NNMMMMMMMMNNmh+.   yNMMMMMNm-  oNMMMMMNmo++:`        
       +sy--/sdMMMhyyyyyyyNMMh- .oyNMMmyyyyyhNMMm+` -yMMMdyyo:` .oyyNMMNhs+syy`       
       -yy/   /MMM+.`-+/``mMMy-   `mMMh:`````.dMMN:` `MMMy-`-dhhy```mMMy:``+hs        
        -yy+` /MMMo:-mMM+`-oo/.    mMMh:     `dMMN/`  dMMm:`dMMMMy..MMMo-.+yo`        
         .sys`/MMMMNNMMMs-         mMMmyooooymMMNo:   oMMM/sMMMMMM++MMN//oh:          
          `sh+/MMMhyyMMMs- `-`     mMMMMMMMMMNmy+-`   -MMMhMMMsmMMmdMMd/yy+           
    `-/+++oyy-/MMM+.`/hh/.`mNm:`   mMMd+/////:-.`      NMMMMMd/:NMMMMMy:/yyo/:.`      
   +os+//:-..-oMMMo:--:::-/MMMo. .-mMMd+---`           hMMMMN+. oMMMMMo. `-+osyso:`   
   syo     `mNMMMMMNNNNNNNNMMMo.oNNMMMMMNNNN:`         +MMMMs:`  dMMMN/`     ``:syo   
   /yh`     :syyyyyyyyyyyyyyyy+.`+syyyyyyyyo:`         .oyys:`   .oyys:`        +yh   
   -yh-        ````````````````    `````````              ``        ``          oys   
   -+h/------------------------::::::::://////++++++++++++++++++++++///////::::/yd:   
   shdddddddddddddddddddddddddddddhhhhhhhhyyyyyssssssssssssssssyyyyyyyhhhhhhhddddh`   
                                                                                      
  S. Ponce, E. R. Margine, C. Verdi, and F. Giustino,                                 
                                                Comput. Phys. Commun. 209, 116 (2016) 
                                                                                      

     Program EPW v.5.0.0 starts on  1Jul2018 at 16: 1:47 

     This program is part of the open-source Quantum ESPRESSO suite
     for quantum simulation of materials; please cite
         "P. Giannozzi et al., J. Phys.:Condens. Matter 21 395502 (2009);
         "P. Giannozzi et al., J. Phys.:Condens. Matter 29 465901 (2017);
          URL http://www.quantum-espresso.org", 
     in publications or presentations arising from this work. More details at
     http://www.quantum-espresso.org/quote

     Parallel version (MPI), running on     1 processors

     MPI processes distributed on     1 nodes
                      
     ------------------------------------------------------------------------ 
                   RESTART - RESTART - RESTART - RESTART                         
     Restart is done without reading PWSCF save file.                  
     Be aware that some consistency checks are therefore not done.                  
     ------------------------------------------------------------------------ 
                      

     --                                                                         

     bravais-lattice index     =            0
     lattice parameter (a_0)   =       0.0000  a.u.
     unit-cell volume          =       0.0000 (a.u.)^3
     number of atoms/cell      =            0
     number of atomic types    =            0
     kinetic-energy cut-off    =       0.0000  Ry
     charge density cut-off    =       0.0000  Ry
     convergence threshold     =      0.0E+00
     beta                      =       0.0000
     number of iterations used =            0
     Exchange-correlation      = not set (-1 -1 -1 -1-1-1)


     celldm(1)=    0.00000  celldm(2)=    0.00000  celldm(3)=    0.00000
     celldm(4)=    0.00000  celldm(5)=    0.00000  celldm(6)=    0.00000

     crystal axes: (cart. coord. in units of a_0)
               a(1) = (  0.0000  0.0000  0.0000 )  
               a(2) = (  0.0000  0.0000  0.0000 )  
               a(3) = (  0.0000  0.0000  0.0000 )  

     reciprocal axes: (cart. coord. in units 2 pi/a_0)
               b(1) = (  0.0000  0.0000  0.0000 )  
               b(2) = (  0.0000  0.0000  0.0000 )  
               b(3) = (  0.0000  0.0000  0.0000 )  


     Atoms inside the unit cell: 

   Cartesian axes

     site n.  atom      mass           positions (a_0 units)

 
     No symmetry!

     G cutoff =    0.0000  (      0 G-vectors)     FFT grid: (  0,  0,  0)
     number of k points=    0
                       cart. coord. in units 2pi/a_0
     EPW          :     0.00s CPU         0.00s WALL

     EPW          :     0.00s CPU         0.00s WALL

     No wavefunction gauge setting applied

     -------------------------------------------------------------------
     Using sic.ukk from disk
     -------------------------------------------------------------------


     Using kmap and kgmap from disk

     Do not need to read .epb files; read .fmt files


              band disentanglement is used:  nbndsub =    4

     Reading Hamiltonian, Dynamical matrix and EP vertex in Wann rep from file


     Finished reading Wann rep data from file

     ===================================================================
     Memory usage:  VmHWM =        17Mb
                   VmPeak =       239Mb
     ===================================================================
     
     Using uniform q-mesh:    6   6   6
     Shifting q mesh to [-0.5:0.5[
     Size of q point mesh for interpolation:        216
     Using uniform k-mesh:    6   6   6
     Size of k point mesh for interpolation:        432
     Max number of k points per pool:              432

     Fermi energy coarse grid =   0.000000 eV

     Fermi energy is calculated from the fine k-mesh: Ef =  10.139039 eV

     Warning: check if difference with Fermi level fine grid makes sense

     ===================================================================

              ibndmin =     2  ebndmin =     0.602
              ibndmax =     4  ebndmax =     0.739


     Number of ep-matrix elements per pool :        11664 ~=   91.12 Kb (@ 8 bytes/ DP)
     Calculation of Lindhard screening: use with care
     Warning: current implementation for doubly degenerate band, one valley
     Nel =   0.00100000, n =   0.00000716 au^-3, meff =   1.00000000
     EF =   0.10000000 eV, kF =   0.05961990 au^-1, rs =   3.85436154

     ===================================================================
     Electron (Imaginary) Self-Energy in the Migdal Approximation
     ===================================================================


     Fermi Surface thickness =   2.000000 eV

     Golden Rule strictly enforced with T =   0.025852 eV
     Gaussian Broadening:   0.100000 eV, ngauss=   1
 
     Progression iq (fine) =         50/       216
     Progression iq (fine) =        100/       216
     Progression iq (fine) =        150/       216
     Progression iq (fine) =        200/       216
     Average over degenerate eigenstates is performed
     WARNING: only the eigenstates within the Fermi window are meaningful

     ik =       1 coord.:    0.0000000   0.0000000   0.0000000
     -------------------------------------------------------------------
     E(   2 )=  -0.0842 eV   Re[Sigma]=      73.883882 meV Im[Sigma]=       4.273145 meV     Z=       0.913014 lam=       0.095273
     E(   3 )=  -0.0842 eV   Re[Sigma]=      73.883882 meV Im[Sigma]=       4.273145 meV     Z=       0.913014 lam=       0.095273
     E(   4 )=  -0.0842 eV   Re[Sigma]=      73.883882 meV Im[Sigma]=       4.273145 meV     Z=       0.913014 lam=       0.095273
     -------------------------------------------------------------------


     ik =       2 coord.:    0.0000000   0.0000000   0.1666667
     -------------------------------------------------------------------
     E(   2 )=  -2.1472 eV   Re[Sigma]=     -73.482790 meV Im[Sigma]=      65.817159 meV     Z=       0.898453 lam=       0.113024
     E(   3 )=  -0.3746 eV   Re[Sigma]=      85.052977 meV Im[Sigma]=      72.596091 meV     Z=       1.082917 lam=      -0.076568
     E(   4 )=  -0.3746 eV   Re[Sigma]=      85.052977 meV Im[Sigma]=      72.596091 meV     Z=       1.082917 lam=      -0.076568
     -------------------------------------------------------------------


     ik =       3 coord.:    0.0000000   0.0000000   0.3333333
     -------------------------------------------------------------------
     E(   2 )=  -6.8685 eV   Re[Sigma]=      -0.283738 meV Im[Sigma]=      10.679191 meV     Z=       0.996883 lam=       0.003126
     E(   3 )=  -1.1730 eV   Re[Sigma]=      53.135869 meV Im[Sigma]=      73.115236 meV     Z=       1.017607 lam=      -0.017302
     E(   4 )=  -1.1730 eV   Re[Sigma]=      53.135869 meV Im[Sigma]=      73.115236 meV     Z=       1.017607 lam=      -0.017302
     -------------------------------------------------------------------


     ik =       4 coord.:    0.0000000   0.0000000   0.5000000
     -------------------------------------------------------------------
     E(   2 )=  -9.4227 eV   Re[Sigma]=      -8.044683 meV Im[Sigma]=       6.592195 meV     Z=       1.006139 lam=      -0.006102
     E(   3 )=  -1.6810 eV   Re[Sigma]=      23.057908 meV Im[Sigma]=     100.776985 meV     Z=       0.950274 lam=       0.052328
     E(   4 )=  -1.6810 eV   Re[Sigma]=      23.057908 meV Im[Sigma]=     100.776985 meV     Z=       0.950274 lam=       0.052328
     -------------------------------------------------------------------


     ik =       5 coord.:    0.0000000   0.0000000   0.6666667
     -------------------------------------------------------------------
     E(   2 )=  -6.8685 eV   Re[Sigma]=      -0.284147 meV Im[Sigma]=      10.679386 meV     Z=       0.996883 lam=       0.003127
     E(   3 )=  -1.1730 eV   Re[Sigma]=      53.133777 meV Im[Sigma]=      73.117325 meV     Z=       1.017613 lam=      -0.017308
     E(   4 )=  -1.1730 eV   Re[Sigma]=      53.133777 meV Im[Sigma]=      73.117325 meV     Z=       1.017613 lam=      -0.017308
     -------------------------------------------------------------------


     ik =       6 coord.:    0.0000000   0.0000000   0.8333333
     -------------------------------------------------------------------
     E(   2 )=  -2.1472 eV   Re[Sigma]=     -73.489505 meV Im[Sigma]=      65.822695 meV     Z=       0.898446 lam=       0.113032
     E(   3 )=  -0.3746 eV   Re[Sigma]=      85.055483 meV Im[Sigma]=      72.596185 meV     Z=       1.082913 lam=      -0.076564
     E(   4 )=  -0.3746 eV   Re[Sigma]=      85.055483 meV Im[Sigma]=      72.596185 meV     Z=       1.082913 lam=      -0.076564
     -------------------------------------------------------------------


     ik =       7 coord.:    0.0000000   0.1666667   0.0000000
     -------------------------------------------------------------------
     E(   2 )=  -2.1472 eV   Re[Sigma]=     -72.905329 meV Im[Sigma]=      75.444836 meV     Z=       0.921576 lam=       0.085098
     E(   3 )=  -0.3746 eV   Re[Sigma]=      75.930911 meV Im[Sigma]=     101.849168 meV     Z=       1.368676 lam=      -0.269367
     E(   4 )=  -0.3746 eV   Re[Sigma]=      75.930911 meV Im[Sigma]=     101.849168 meV     Z=       1.368676 lam=      -0.269367
     -------------------------------------------------------------------


     ik =       8 coord.:    0.0000000   0.1666667   0.1666667
     -------------------------------------------------------------------
     E(   2 )=  -1.7072 eV   Re[Sigma]=      18.987377 meV Im[Sigma]=     138.803231 meV     Z=       1.149941 lam=      -0.130390
     E(   3 )=  -1.0239 eV   Re[Sigma]=      68.490078 meV Im[Sigma]=      47.496249 meV     Z=       0.955389 lam=       0.046694
     E(   4 )=  -1.0239 eV   Re[Sigma]=      68.490078 meV Im[Sigma]=      47.496249 meV     Z=       0.955389 lam=       0.046694
     -------------------------------------------------------------------


     ik =       9 coord.:    0.0000000   0.1666667   0.3333333
     -------------------------------------------------------------------
     E(   2 )=  -5.3050 eV   Re[Sigma]=       4.067048 meV Im[Sigma]=      59.696731 meV     Z=       1.202070 lam=      -0.168102
     E(   3 )=  -1.9550 eV   Re[Sigma]=     -37.135001 meV Im[Sigma]=      87.950188 meV     Z=       0.980306 lam=       0.020090
     E(   4 )=  -1.7220 eV   Re[Sigma]=      13.997307 meV Im[Sigma]=     125.889836 meV     Z=       1.122780 lam=      -0.109354
     -------------------------------------------------------------------


     ik =      10 coord.:    0.0000000   0.1666667   0.5000000
     -------------------------------------------------------------------
     E(   2 )=  -8.6498 eV   Re[Sigma]=       0.000000 meV Im[Sigma]=       0.000000 meV     Z=       1.000000 lam=       0.000000
     E(   3 )=  -3.0372 eV   Re[Sigma]=       0.000000 meV Im[Sigma]=       0.000000 meV     Z=       1.000000 lam=       0.000000
     E(   4 )=  -2.2836 eV   Re[Sigma]=       0.000000 meV Im[Sigma]=       0.000000 meV     Z=       1.000000 lam=       0.000000
     -------------------------------------------------------------------


     ik =      11 coord.:    0.0000000   0.1666667   0.6666667
     -------------------------------------------------------------------
     E(   2 )=  -7.7841 eV   Re[Sigma]=       9.278461 meV Im[Sigma]=      61.983190 meV     Z=       1.203827 lam=      -0.169316
     E(   3 )=  -3.5170 eV   Re[Sigma]=       1.540775 meV Im[Sigma]=      41.528046 meV     Z=       1.078496 lam=      -0.072782
     E(   4 )=  -1.4636 eV   Re[Sigma]=      44.744434 meV Im[Sigma]=      70.652677 meV     Z=       0.995501 lam=       0.004519
     -------------------------------------------------------------------


     ik =      12 coord.:    0.0000000   0.1666667   0.8333333
     -------------------------------------------------------------------
     E(   2 )=  -4.2102 eV   Re[Sigma]=      -8.022558 meV Im[Sigma]=      32.627831 meV     Z=       1.060641 lam=      -0.057174
     E(   3 )=  -2.2152 eV   Re[Sigma]=     -64.324439 meV Im[Sigma]=      65.534106 meV     Z=       1.039283 lam=      -0.037798
     E(   4 )=  -0.4858 eV   Re[Sigma]=      32.664255 meV Im[Sigma]=     129.904104 meV     Z=       1.581922 lam=      -0.367858
     -------------------------------------------------------------------


     ik =      13 coord.:    0.0000000   0.3333333   0.0000000
     -------------------------------------------------------------------
     E(   2 )=  -6.8685 eV   Re[Sigma]=      -0.889256 meV Im[Sigma]=      10.679191 meV     Z=       0.997239 lam=       0.002769
     E(   3 )=  -1.1730 eV   Re[Sigma]=      50.998879 meV Im[Sigma]=      68.953028 meV     Z=       0.983090 lam=       0.017201
     E(   4 )=  -1.1730 eV   Re[Sigma]=      50.998879 meV Im[Sigma]=      68.953028 meV     Z=       0.983090 lam=       0.017201
     -------------------------------------------------------------------


     ik =      14 coord.:    0.0000000   0.3333333   0.1666667
     -------------------------------------------------------------------
     E(   2 )=  -5.3050 eV   Re[Sigma]=       9.821158 meV Im[Sigma]=      48.321829 meV     Z=       1.068148 lam=      -0.063800
     E(   3 )=  -1.9550 eV   Re[Sigma]=     -32.029816 meV Im[Sigma]=      72.130914 meV     Z=       0.902445 lam=       0.108101
     E(   4 )=  -1.7220 eV   Re[Sigma]=      12.224082 meV Im[Sigma]=     126.266464 meV     Z=       1.187749 lam=      -0.158071
     -------------------------------------------------------------------


     ik =      15 coord.:    0.0000000   0.3333333   0.3333333
     -------------------------------------------------------------------
     E(   2 )=  -5.7377 eV   Re[Sigma]=       0.000000 meV Im[Sigma]=       0.000000 meV     Z=       1.000000 lam=       0.000000
     E(   3 )=  -3.1516 eV   Re[Sigma]=       0.000000 meV Im[Sigma]=       0.000000 meV     Z=       1.000000 lam=       0.000000
     E(   4 )=  -3.1516 eV   Re[Sigma]=       0.000000 meV Im[Sigma]=       0.000000 meV     Z=       1.000000 lam=       0.000000
     -------------------------------------------------------------------


     ik =      16 coord.:    0.0000000   0.3333333   0.5000000
     -------------------------------------------------------------------
     E(   2 )=  -7.6363 eV   Re[Sigma]=       0.000000 meV Im[Sigma]=       0.000000 meV     Z=       1.000000 lam=       0.000000
     E(   3 )=  -4.8087 eV   Re[Sigma]=       0.000000 meV Im[Sigma]=       0.000000 meV     Z=       1.000000 lam=       0.000000
     E(   4 )=  -3.6130 eV   Re[Sigma]=       0.000000 meV Im[Sigma]=       0.000000 meV     Z=       1.000000 lam=       0.000000
     -------------------------------------------------------------------


     ik =      17 coord.:    0.0000000   0.3333333   0.6666667
     -------------------------------------------------------------------
     E(   2 )=  -7.7256 eV   Re[Sigma]=       0.000000 meV Im[Sigma]=       0.000000 meV     Z=       1.000000 lam=       0.000000
     E(   3 )=  -6.3198 eV   Re[Sigma]=       0.000000 meV Im[Sigma]=       0.000000 meV     Z=       1.000000 lam=       0.000000
     E(   4 )=  -2.7070 eV   Re[Sigma]=       0.000000 meV Im[Sigma]=       0.000000 meV     Z=       1.000000 lam=       0.000000
     -------------------------------------------------------------------


     ik =      18 coord.:    0.0000000   0.3333333   0.8333333
     -------------------------------------------------------------------
     E(   2 )=  -7.7841 eV   Re[Sigma]=       9.577902 meV Im[Sigma]=      50.845963 meV     Z=       1.120816 lam=      -0.107793
     E(   3 )=  -3.5170 eV   Re[Sigma]=       0.556039 meV Im[Sigma]=      41.254299 meV     Z=       1.086601 lam=      -0.079699
     E(   4 )=  -1.4636 eV   Re[Sigma]=      48.509292 meV Im[Sigma]=      64.473475 meV     Z=       0.924685 lam=       0.081449
     -------------------------------------------------------------------


     ik =      19 coord.:    0.0000000   0.5000000   0.0000000
     -------------------------------------------------------------------
     E(   2 )=  -9.4227 eV   Re[Sigma]=      -7.454419 meV Im[Sigma]=       6.697755 meV     Z=       1.006900 lam=      -0.006853
     E(   3 )=  -1.6810 eV   Re[Sigma]=      26.007891 meV Im[Sigma]=     105.953570 meV     Z=       0.957907 lam=       0.043942
     E(   4 )=  -1.6810 eV   Re[Sigma]=      26.007891 meV Im[Sigma]=     105.953570 meV     Z=       0.957907 lam=       0.043942
     -------------------------------------------------------------------


     ik =      20 coord.:    0.0000000   0.5000000   0.1666667
     -------------------------------------------------------------------
     E(   2 )=  -8.6498 eV   Re[Sigma]=       0.000000 meV Im[Sigma]=       0.000000 meV     Z=       1.000000 lam=       0.000000
     E(   3 )=  -3.0372 eV   Re[Sigma]=       0.000000 meV Im[Sigma]=       0.000000 meV     Z=       1.000000 lam=       0.000000
     E(   4 )=  -2.2836 eV   Re[Sigma]=       0.000000 meV Im[Sigma]=       0.000000 meV     Z=       1.000000 lam=       0.000000
     -------------------------------------------------------------------


     ik =      21 coord.:    0.0000000   0.5000000   0.3333333
     -------------------------------------------------------------------
     E(   2 )=  -7.6363 eV   Re[Sigma]=       0.000000 meV Im[Sigma]=       0.000000 meV     Z=       1.000000 lam=       0.000000
     E(   3 )=  -4.8087 eV   Re[Sigma]=       0.000000 meV Im[Sigma]=       0.000000 meV     Z=       1.000000 lam=       0.000000
     E(   4 )=  -3.6130 eV   Re[Sigma]=       0.000000 meV Im[Sigma]=       0.000000 meV     Z=       1.000000 lam=       0.000000
     -------------------------------------------------------------------


     ik =      22 coord.:    0.0000000   0.5000000   0.5000000
     -------------------------------------------------------------------
     E(   2 )=  -8.1432 eV   Re[Sigma]=       0.000000 meV Im[Sigma]=       0.000000 meV     Z=       1.000000 lam=       0.000000
     E(   3 )=  -4.3397 eV   Re[Sigma]=       0.000000 meV Im[Sigma]=       0.000000 meV     Z=       1.000000 lam=       0.000000
     E(   4 )=  -4.3397 eV   Re[Sigma]=       0.000000 meV Im[Sigma]=       0.000000 meV     Z=       1.000000 lam=       0.000000
     -------------------------------------------------------------------


     ik =      23 coord.:    0.0000000   0.5000000   0.6666667
     -------------------------------------------------------------------
     E(   2 )=  -7.6363 eV   Re[Sigma]=       0.000000 meV Im[Sigma]=       0.000000 meV     Z=       1.000000 lam=       0.000000
     E(   3 )=  -4.8087 eV   Re[Sigma]=       0.000000 meV Im[Sigma]=       0.000000 meV     Z=       1.000000 lam=       0.000000
     E(   4 )=  -3.6130 eV   Re[Sigma]=       0.000000 meV Im[Sigma]=       0.000000 meV     Z=       1.000000 lam=       0.000000
     -------------------------------------------------------------------


     ik =      24 coord.:    0.0000000   0.5000000   0.8333333
     -------------------------------------------------------------------
     E(   2 )=  -8.6498 eV   Re[Sigma]=       0.000000 meV Im[Sigma]=       0.000000 meV     Z=       1.000000 lam=       0.000000
     E(   3 )=  -3.0372 eV   Re[Sigma]=       0.000000 meV Im[Sigma]=       0.000000 meV     Z=       1.000000 lam=       0.000000
     E(   4 )=  -2.2836 eV   Re[Sigma]=       0.000000 meV Im[Sigma]=       0.000000 meV     Z=       1.000000 lam=       0.000000
     -------------------------------------------------------------------


     ik =      25 coord.:    0.0000000   0.6666667   0.0000000
     -------------------------------------------------------------------
     E(   2 )=  -6.8685 eV   Re[Sigma]=      -0.889612 meV Im[Sigma]=      10.679386 meV     Z=       0.997239 lam=       0.002769
     E(   3 )=  -1.1730 eV   Re[Sigma]=      50.996445 meV Im[Sigma]=      68.954908 meV     Z=       0.983096 lam=       0.017194
     E(   4 )=  -1.1730 eV   Re[Sigma]=      50.996445 meV Im[Sigma]=      68.954908 meV     Z=       0.983096 lam=       0.017194
     -------------------------------------------------------------------


     ik =      26 coord.:    0.0000000   0.6666667   0.1666667
     -------------------------------------------------------------------
     E(   2 )=  -7.7841 eV   Re[Sigma]=       9.577688 meV Im[Sigma]=      50.845477 meV     Z=       1.120814 lam=      -0.107792
     E(   3 )=  -3.5170 eV   Re[Sigma]=       0.557165 meV Im[Sigma]=      41.254011 meV     Z=       1.086600 lam=      -0.079698
     E(   4 )=  -1.4636 eV   Re[Sigma]=      48.510175 meV Im[Sigma]=      64.471555 meV     Z=       0.924674 lam=       0.081463
     -------------------------------------------------------------------


     ik =      27 coord.:    0.0000000   0.6666667   0.3333333
     -------------------------------------------------------------------
     E(   2 )=  -7.7256 eV   Re[Sigma]=       0.000000 meV Im[Sigma]=       0.000000 meV     Z=       1.000000 lam=       0.000000
     E(   3 )=  -6.3198 eV   Re[Sigma]=       0.000000 meV Im[Sigma]=       0.000000 meV     Z=       1.000000 lam=       0.000000
     E(   4 )=  -2.7070 eV   Re[Sigma]=       0.000000 meV Im[Sigma]=       0.000000 meV     Z=       1.000000 lam=       0.000000
     -------------------------------------------------------------------


     ik =      28 coord.:    0.0000000   0.6666667   0.5000000
     -------------------------------------------------------------------
     E(   2 )=  -7.6363 eV   Re[Sigma]=       0.000000 meV Im[Sigma]=       0.000000 meV     Z=       1.000000 lam=       0.000000
     E(   3 )=  -4.8087 eV   Re[Sigma]=       0.000000 meV Im[Sigma]=       0.000000 meV     Z=       1.000000 lam=       0.000000
     E(   4 )=  -3.6130 eV   Re[Sigma]=       0.000000 meV Im[Sigma]=       0.000000 meV     Z=       1.000000 lam=       0.000000
     -------------------------------------------------------------------


     ik =      29 coord.:    0.0000000   0.6666667   0.6666667
     -------------------------------------------------------------------
     E(   2 )=  -5.7377 eV   Re[Sigma]=       0.000000 meV Im[Sigma]=       0.000000 meV     Z=       1.000000 lam=       0.000000
     E(   3 )=  -3.1516 eV   Re[Sigma]=       0.000000 meV Im[Sigma]=       0.000000 meV     Z=       1.000000 lam=       0.000000
     E(   4 )=  -3.1516 eV   Re[Sigma]=       0.000000 meV Im[Sigma]=       0.000000 meV     Z=       1.000000 lam=       0.000000
     -------------------------------------------------------------------


     ik =      30 coord.:    0.0000000   0.6666667   0.8333333
     -------------------------------------------------------------------
     E(   2 )=  -5.3050 eV   Re[Sigma]=       9.821111 meV Im[Sigma]=      48.325069 meV     Z=       1.068157 lam=      -0.063808
     E(   3 )=  -1.9550 eV   Re[Sigma]=     -32.030337 meV Im[Sigma]=      72.135154 meV     Z=       0.902442 lam=       0.108104
     E(   4 )=  -1.7220 eV   Re[Sigma]=      12.227181 meV Im[Sigma]=     126.270043 meV     Z=       1.187745 lam=      -0.158068
     -------------------------------------------------------------------


     ik =      31 coord.:    0.0000000   0.8333333   0.0000000
     -------------------------------------------------------------------
     E(   2 )=  -2.1472 eV   Re[Sigma]=     -72.912698 meV Im[Sigma]=      75.450026 meV     Z=       0.921565 lam=       0.085111
     E(   3 )=  -0.3746 eV   Re[Sigma]=      75.933712 meV Im[Sigma]=     101.847946 meV     Z=       1.368653 lam=      -0.269354
     E(   4 )=  -0.3746 eV   Re[Sigma]=      75.933712 meV Im[Sigma]=     101.847946 meV     Z=       1.368653 lam=      -0.269354
     -------------------------------------------------------------------


     ik =      32 coord.:    0.0000000   0.8333333   0.1666667
     -------------------------------------------------------------------
     E(   2 )=  -4.2102 eV   Re[Sigma]=      -8.022474 meV Im[Sigma]=      32.627813 meV     Z=       1.060640 lam=      -0.057173
     E(   3 )=  -2.2152 eV   Re[Sigma]=     -64.324562 meV Im[Sigma]=      65.534073 meV     Z=       1.039283 lam=      -0.037798
     E(   4 )=  -0.4858 eV   Re[Sigma]=      32.664378 meV Im[Sigma]=     129.903745 meV     Z=       1.581916 lam=      -0.367855
     -------------------------------------------------------------------


     ik =      33 coord.:    0.0000000   0.8333333   0.3333333
     -------------------------------------------------------------------
     E(   2 )=  -7.7841 eV   Re[Sigma]=       9.278123 meV Im[Sigma]=      61.983122 meV     Z=       1.203829 lam=      -0.169317
     E(   3 )=  -3.5170 eV   Re[Sigma]=       1.539391 meV Im[Sigma]=      41.527875 meV     Z=       1.078494 lam=      -0.072782
     E(   4 )=  -1.4636 eV   Re[Sigma]=      44.744251 meV Im[Sigma]=      70.654564 meV     Z=       0.995513 lam=       0.004508
     -------------------------------------------------------------------


     ik =      34 coord.:    0.0000000   0.8333333   0.5000000
     -------------------------------------------------------------------
     E(   2 )=  -8.6498 eV   Re[Sigma]=       0.000000 meV Im[Sigma]=       0.000000 meV     Z=       1.000000 lam=       0.000000
     E(   3 )=  -3.0372 eV   Re[Sigma]=       0.000000 meV Im[Sigma]=       0.000000 meV     Z=       1.000000 lam=       0.000000
     E(   4 )=  -2.2836 eV   Re[Sigma]=       0.000000 meV Im[Sigma]=       0.000000 meV     Z=       1.000000 lam=       0.000000
     -------------------------------------------------------------------


     ik =      35 coord.:    0.0000000   0.8333333   0.6666667
     -------------------------------------------------------------------
     E(   2 )=  -5.3050 eV   Re[Sigma]=       4.066755 meV Im[Sigma]=      59.701481 meV     Z=       1.202095 lam=      -0.168119
     E(   3 )=  -1.9550 eV   Re[Sigma]=     -37.135945 meV Im[Sigma]=      87.954209 meV     Z=       0.980300 lam=       0.020095
     E(   4 )=  -1.7220 eV   Re[Sigma]=      13.998924 meV Im[Sigma]=     125.895404 meV     Z=       1.122789 lam=      -0.109361
     -------------------------------------------------------------------


     ik =      36 coord.:    0.0000000   0.8333333   0.8333333
     -------------------------------------------------------------------
     E(   2 )=  -1.7072 eV   Re[Sigma]=      18.995780 meV Im[Sigma]=     138.815884 meV     Z=       1.149955 lam=      -0.130401
     E(   3 )=  -1.0239 eV   Re[Sigma]=      68.495829 meV Im[Sigma]=      47.496726 meV     Z=       0.955377 lam=       0.046707
     E(   4 )=  -1.0239 eV   Re[Sigma]=      68.495829 meV Im[Sigma]=      47.496726 meV     Z=       0.955377 lam=       0.046707
     -------------------------------------------------------------------


     ik =      37 coord.:    0.1666667   0.0000000   0.0000000
     -------------------------------------------------------------------
     E(   2 )=  -2.1472 eV   Re[Sigma]=     -73.482791 meV Im[Sigma]=      65.817160 meV     Z=       0.898453 lam=       0.113024
     E(   3 )=  -0.3746 eV   Re[Sigma]=      85.052976 meV Im[Sigma]=      72.596088 meV     Z=       1.082917 lam=      -0.076568
     E(   4 )=  -0.3746 eV   Re[Sigma]=      85.052976 meV Im[Sigma]=      72.596088 meV     Z=       1.082917 lam=      -0.076568
     -------------------------------------------------------------------


     ik =      38 coord.:    0.1666667   0.0000000   0.1666667
     -------------------------------------------------------------------
     E(   2 )=  -1.7072 eV   Re[Sigma]=      18.987032 meV Im[Sigma]=     138.804524 meV     Z=       1.149952 lam=      -0.130399
     E(   3 )=  -1.0239 eV   Re[Sigma]=      68.490040 meV Im[Sigma]=      47.496098 meV     Z=       0.955389 lam=       0.046694
     E(   4 )=  -1.0239 eV   Re[Sigma]=      68.490040 meV Im[Sigma]=      47.496098 meV     Z=       0.955389 lam=       0.046694
     -------------------------------------------------------------------


     ik =      39 coord.:    0.1666667   0.0000000   0.3333333
     -------------------------------------------------------------------
     E(   2 )=  -5.3050 eV   Re[Sigma]=       8.883187 meV Im[Sigma]=      52.458158 meV     Z=       1.107021 lam=      -0.096675
     E(   3 )=  -1.9550 eV   Re[Sigma]=     -29.874263 meV Im[Sigma]=      78.516608 meV     Z=       0.902714 lam=       0.107770
     E(   4 )=  -1.7220 eV   Re[Sigma]=      15.238591 meV Im[Sigma]=     121.838327 meV     Z=       1.144002 lam=      -0.125876
     -------------------------------------------------------------------


     ik =      40 coord.:    0.1666667   0.0000000   0.5000000
     -------------------------------------------------------------------
     E(   2 )=  -8.6498 eV   Re[Sigma]=       0.000000 meV Im[Sigma]=       0.000000 meV     Z=       1.000000 lam=       0.000000
     E(   3 )=  -3.0372 eV   Re[Sigma]=       0.000000 meV Im[Sigma]=       0.000000 meV     Z=       1.000000 lam=       0.000000
     E(   4 )=  -2.2836 eV   Re[Sigma]=       0.000000 meV Im[Sigma]=       0.000000 meV     Z=       1.000000 lam=       0.000000
     -------------------------------------------------------------------


     ik =      41 coord.:    0.1666667   0.0000000   0.6666667
     -------------------------------------------------------------------
     E(   2 )=  -7.7841 eV   Re[Sigma]=       8.784830 meV Im[Sigma]=      57.464368 meV     Z=       1.180295 lam=      -0.152754
     E(   3 )=  -3.5170 eV   Re[Sigma]=       0.619625 meV Im[Sigma]=      40.360576 meV     Z=       1.082246 lam=      -0.075996
     E(   4 )=  -1.4636 eV   Re[Sigma]=      48.732728 meV Im[Sigma]=      61.722501 meV     Z=       0.913815 lam=       0.094313
     -------------------------------------------------------------------


     ik =      42 coord.:    0.1666667   0.0000000   0.8333333
     -------------------------------------------------------------------
     E(   2 )=  -4.2102 eV   Re[Sigma]=      -7.694315 meV Im[Sigma]=      32.480080 meV     Z=       1.062617 lam=      -0.058927
     E(   3 )=  -2.2152 eV   Re[Sigma]=     -66.029969 meV Im[Sigma]=      64.033561 meV     Z=       1.029679 lam=      -0.028823
     E(   4 )=  -0.4858 eV   Re[Sigma]=      46.018721 meV Im[Sigma]=     141.046886 meV     Z=       2.145254 lam=      -0.533855
     -------------------------------------------------------------------


     ik =      43 coord.:    0.1666667   0.1666667   0.0000000
     -------------------------------------------------------------------
     E(   2 )=  -1.7072 eV   Re[Sigma]=      18.987377 meV Im[Sigma]=     138.803232 meV     Z=       1.149941 lam=      -0.130390
     E(   3 )=  -1.0239 eV   Re[Sigma]=      68.490079 meV Im[Sigma]=      47.496250 meV     Z=       0.955389 lam=       0.046694
     E(   4 )=  -1.0239 eV   Re[Sigma]=      68.490079 meV Im[Sigma]=      47.496250 meV     Z=       0.955389 lam=       0.046694
     -------------------------------------------------------------------


     ik =      44 coord.:    0.1666667   0.1666667   0.1666667
     -------------------------------------------------------------------
     E(   2 )=  -2.1472 eV   Re[Sigma]=     -73.482411 meV Im[Sigma]=      65.818361 meV     Z=       0.898456 lam=       0.113021
     E(   3 )=  -0.3746 eV   Re[Sigma]=      85.051941 meV Im[Sigma]=      72.595728 meV     Z=       1.082918 lam=      -0.076569
     E(   4 )=  -0.3746 eV   Re[Sigma]=      85.051941 meV Im[Sigma]=      72.595728 meV     Z=       1.082918 lam=      -0.076569
     -------------------------------------------------------------------


     ik =      45 coord.:    0.1666667   0.1666667   0.3333333
     -------------------------------------------------------------------
     E(   2 )=  -4.2102 eV   Re[Sigma]=      -7.693666 meV Im[Sigma]=      32.479413 meV     Z=       1.062617 lam=      -0.058927
     E(   3 )=  -2.2152 eV   Re[Sigma]=     -66.028945 meV Im[Sigma]=      64.032252 meV     Z=       1.029679 lam=      -0.028824
     E(   4 )=  -0.4858 eV   Re[Sigma]=      46.018279 meV Im[Sigma]=     141.047025 meV     Z=       2.145258 lam=      -0.533856
     -------------------------------------------------------------------


     ik =      46 coord.:    0.1666667   0.1666667   0.5000000
     -------------------------------------------------------------------
     E(   2 )=  -7.7841 eV   Re[Sigma]=       8.785040 meV Im[Sigma]=      57.463916 meV     Z=       1.180291 lam=      -0.152751
     E(   3 )=  -3.5170 eV   Re[Sigma]=       0.619135 meV Im[Sigma]=      40.360237 meV     Z=       1.082245 lam=      -0.075995
     E(   4 )=  -1.4636 eV   Re[Sigma]=      48.732011 meV Im[Sigma]=      61.721555 meV     Z=       0.913811 lam=       0.094318
     -------------------------------------------------------------------


     ik =      47 coord.:    0.1666667   0.1666667   0.6666667
     -------------------------------------------------------------------
     E(   2 )=  -8.6498 eV   Re[Sigma]=       0.000000 meV Im[Sigma]=       0.000000 meV     Z=       1.000000 lam=       0.000000
     E(   3 )=  -3.0372 eV   Re[Sigma]=       0.000000 meV Im[Sigma]=       0.000000 meV     Z=       1.000000 lam=       0.000000
     E(   4 )=  -2.2836 eV   Re[Sigma]=       0.000000 meV Im[Sigma]=       0.000000 meV     Z=       1.000000 lam=       0.000000
     -------------------------------------------------------------------


     ik =      48 coord.:    0.1666667   0.1666667   0.8333333
     -------------------------------------------------------------------
     E(   2 )=  -5.3050 eV   Re[Sigma]=       8.882817 meV Im[Sigma]=      52.458702 meV     Z=       1.107023 lam=      -0.096677
     E(   3 )=  -1.9550 eV   Re[Sigma]=     -29.873897 meV Im[Sigma]=      78.517182 meV     Z=       0.902717 lam=       0.107767
     E(   4 )=  -1.7220 eV   Re[Sigma]=      15.238286 meV Im[Sigma]=     121.831080 meV     Z=       1.143960 lam=      -0.125844
     -------------------------------------------------------------------


     ik =      49 coord.:    0.1666667   0.3333333   0.0000000
     -------------------------------------------------------------------
     E(   2 )=  -5.3050 eV   Re[Sigma]=       9.821158 meV Im[Sigma]=      48.321829 meV     Z=       1.068148 lam=      -0.063800
     E(   3 )=  -1.9550 eV   Re[Sigma]=     -32.029817 meV Im[Sigma]=      72.130913 meV     Z=       0.902445 lam=       0.108101
     E(   4 )=  -1.7220 eV   Re[Sigma]=      12.224082 meV Im[Sigma]=     126.266466 meV     Z=       1.187749 lam=      -0.158071
     -------------------------------------------------------------------


     ik =      50 coord.:    0.1666667   0.3333333   0.1666667
     -------------------------------------------------------------------
     E(   2 )=  -4.2102 eV   Re[Sigma]=      -8.021773 meV Im[Sigma]=      32.627287 meV     Z=       1.060641 lam=      -0.057174
     E(   3 )=  -2.2152 eV   Re[Sigma]=     -64.323212 meV Im[Sigma]=      65.532866 meV     Z=       1.039285 lam=      -0.037800
     E(   4 )=  -0.4858 eV   Re[Sigma]=      32.664086 meV Im[Sigma]=     129.903836 meV     Z=       1.581915 lam=      -0.367855
     -------------------------------------------------------------------


     ik =      51 coord.:    0.1666667   0.3333333   0.3333333
     -------------------------------------------------------------------
     E(   2 )=  -5.3050 eV   Re[Sigma]=       8.884317 meV Im[Sigma]=      52.460902 meV     Z=       1.107027 lam=      -0.096680
     E(   3 )=  -1.9550 eV   Re[Sigma]=     -29.875159 meV Im[Sigma]=      78.520187 meV     Z=       0.902718 lam=       0.107765
     E(   4 )=  -1.7220 eV   Re[Sigma]=      15.239434 meV Im[Sigma]=     121.834620 meV     Z=       1.143954 lam=      -0.125839
     -------------------------------------------------------------------


     ik =      52 coord.:    0.1666667   0.3333333   0.5000000
     -------------------------------------------------------------------
     E(   2 )=  -6.8089 eV   Re[Sigma]=       0.000000 meV Im[Sigma]=       0.000000 meV     Z=       1.000000 lam=       0.000000
     E(   3 )=  -4.5766 eV   Re[Sigma]=       0.000000 meV Im[Sigma]=       0.000000 meV     Z=       1.000000 lam=       0.000000
     E(   4 )=  -2.4092 eV   Re[Sigma]=       0.000000 meV Im[Sigma]=       0.000000 meV     Z=       1.000000 lam=       0.000000
     -------------------------------------------------------------------


     ik =      53 coord.:    0.1666667   0.3333333   0.6666667
     -------------------------------------------------------------------
     E(   2 )=  -8.1182 eV   Re[Sigma]=       0.000000 meV Im[Sigma]=       0.000000 meV     Z=       1.000000 lam=       0.000000
     E(   3 )=  -5.4137 eV   Re[Sigma]=       0.000000 meV Im[Sigma]=       0.000000 meV     Z=       1.000000 lam=       0.000000
     E(   4 )=  -3.2174 eV   Re[Sigma]=       0.000000 meV Im[Sigma]=       0.000000 meV     Z=       1.000000 lam=       0.000000
     -------------------------------------------------------------------


     ik =      54 coord.:    0.1666667   0.3333333   0.8333333
     -------------------------------------------------------------------
     E(   2 )=  -6.8089 eV   Re[Sigma]=       0.000000 meV Im[Sigma]=       0.000000 meV     Z=       1.000000 lam=       0.000000
     E(   3 )=  -4.5766 eV   Re[Sigma]=       0.000000 meV Im[Sigma]=       0.000000 meV     Z=       1.000000 lam=       0.000000
     E(   4 )=  -2.4092 eV   Re[Sigma]=       0.000000 meV Im[Sigma]=       0.000000 meV     Z=       1.000000 lam=       0.000000
     -------------------------------------------------------------------


     ik =      55 coord.:    0.1666667   0.5000000   0.0000000
     -------------------------------------------------------------------
     E(   2 )=  -8.6498 eV   Re[Sigma]=       0.000000 meV Im[Sigma]=       0.000000 meV     Z=       1.000000 lam=       0.000000
     E(   3 )=  -3.0372 eV   Re[Sigma]=       0.000000 meV Im[Sigma]=       0.000000 meV     Z=       1.000000 lam=       0.000000
     E(   4 )=  -2.2836 eV   Re[Sigma]=       0.000000 meV Im[Sigma]=       0.000000 meV     Z=       1.000000 lam=       0.000000
     -------------------------------------------------------------------


     ik =      56 coord.:    0.1666667   0.5000000   0.1666667
     -------------------------------------------------------------------
     E(   2 )=  -7.7841 eV   Re[Sigma]=       9.577826 meV Im[Sigma]=      50.845108 meV     Z=       1.120812 lam=      -0.107790
     E(   3 )=  -3.5170 eV   Re[Sigma]=       0.556733 meV Im[Sigma]=      41.253626 meV     Z=       1.086598 lam=      -0.079697
     E(   4 )=  -1.4636 eV   Re[Sigma]=      48.509064 meV Im[Sigma]=      64.472460 meV     Z=       0.924679 lam=       0.081457
     -------------------------------------------------------------------


     ik =      57 coord.:    0.1666667   0.5000000   0.3333333
     -------------------------------------------------------------------
     E(   2 )=  -6.8089 eV   Re[Sigma]=       0.000000 meV Im[Sigma]=       0.000000 meV     Z=       1.000000 lam=       0.000000
     E(   3 )=  -4.5766 eV   Re[Sigma]=       0.000000 meV Im[Sigma]=       0.000000 meV     Z=       1.000000 lam=       0.000000
     E(   4 )=  -2.4092 eV   Re[Sigma]=       0.000000 meV Im[Sigma]=       0.000000 meV     Z=       1.000000 lam=       0.000000
     -------------------------------------------------------------------


     ik =      58 coord.:    0.1666667   0.5000000   0.5000000
     -------------------------------------------------------------------
     E(   2 )=  -7.6363 eV   Re[Sigma]=       0.000000 meV Im[Sigma]=       0.000000 meV     Z=       1.000000 lam=       0.000000
     E(   3 )=  -4.8087 eV   Re[Sigma]=       0.000000 meV Im[Sigma]=       0.000000 meV     Z=       1.000000 lam=       0.000000
     E(   4 )=  -3.6130 eV   Re[Sigma]=       0.000000 meV Im[Sigma]=       0.000000 meV     Z=       1.000000 lam=       0.000000
     -------------------------------------------------------------------


     ik =      59 coord.:    0.1666667   0.5000000   0.6666667
     -------------------------------------------------------------------
     E(   2 )=  -7.8765 eV   Re[Sigma]=       0.000000 meV Im[Sigma]=       0.000000 meV     Z=       1.000000 lam=       0.000000
     E(   3 )=  -5.6007 eV   Re[Sigma]=       0.000000 meV Im[Sigma]=       0.000000 meV     Z=       1.000000 lam=       0.000000
     E(   4 )=  -4.3908 eV   Re[Sigma]=       0.000000 meV Im[Sigma]=       0.000000 meV     Z=       1.000000 lam=       0.000000
     -------------------------------------------------------------------


     ik =      60 coord.:    0.1666667   0.5000000   0.8333333
     -------------------------------------------------------------------
     E(   2 )=  -8.1182 eV   Re[Sigma]=       0.000000 meV Im[Sigma]=       0.000000 meV     Z=       1.000000 lam=       0.000000
     E(   3 )=  -5.4137 eV   Re[Sigma]=       0.000000 meV Im[Sigma]=       0.000000 meV     Z=       1.000000 lam=       0.000000
     E(   4 )=  -3.2174 eV   Re[Sigma]=       0.000000 meV Im[Sigma]=       0.000000 meV     Z=       1.000000 lam=       0.000000
     -------------------------------------------------------------------


     ik =      61 coord.:    0.1666667   0.6666667   0.0000000
     -------------------------------------------------------------------
     E(   2 )=  -7.7841 eV   Re[Sigma]=       9.577688 meV Im[Sigma]=      50.845477 meV     Z=       1.120814 lam=      -0.107792
     E(   3 )=  -3.5170 eV   Re[Sigma]=       0.557164 meV Im[Sigma]=      41.254010 meV     Z=       1.086600 lam=      -0.079698
     E(   4 )=  -1.4636 eV   Re[Sigma]=      48.510176 meV Im[Sigma]=      64.471555 meV     Z=       0.924674 lam=       0.081463
     -------------------------------------------------------------------


     ik =      62 coord.:    0.1666667   0.6666667   0.1666667
     -------------------------------------------------------------------
     E(   2 )=  -8.6498 eV   Re[Sigma]=       0.000000 meV Im[Sigma]=       0.000000 meV     Z=       1.000000 lam=       0.000000
     E(   3 )=  -3.0372 eV   Re[Sigma]=       0.000000 meV Im[Sigma]=       0.000000 meV     Z=       1.000000 lam=       0.000000
     E(   4 )=  -2.2836 eV   Re[Sigma]=       0.000000 meV Im[Sigma]=       0.000000 meV     Z=       1.000000 lam=       0.000000
     -------------------------------------------------------------------


     ik =      63 coord.:    0.1666667   0.6666667   0.3333333
     -------------------------------------------------------------------
     E(   2 )=  -8.1182 eV   Re[Sigma]=       0.000000 meV Im[Sigma]=       0.000000 meV     Z=       1.000000 lam=       0.000000
     E(   3 )=  -5.4137 eV   Re[Sigma]=       0.000000 meV Im[Sigma]=       0.000000 meV     Z=       1.000000 lam=       0.000000
     E(   4 )=  -3.2174 eV   Re[Sigma]=       0.000000 meV Im[Sigma]=       0.000000 meV     Z=       1.000000 lam=       0.000000
     -------------------------------------------------------------------


     ik =      64 coord.:    0.1666667   0.6666667   0.5000000
     -------------------------------------------------------------------
     E(   2 )=  -7.8765 eV   Re[Sigma]=       0.000000 meV Im[Sigma]=       0.000000 meV     Z=       1.000000 lam=       0.000000
     E(   3 )=  -5.6007 eV   Re[Sigma]=       0.000000 meV Im[Sigma]=       0.000000 meV     Z=       1.000000 lam=       0.000000
     E(   4 )=  -4.3908 eV   Re[Sigma]=       0.000000 meV Im[Sigma]=       0.000000 meV     Z=       1.000000 lam=       0.000000
     -------------------------------------------------------------------


     ik =      65 coord.:    0.1666667   0.6666667   0.6666667
     -------------------------------------------------------------------
     E(   2 )=  -7.6363 eV   Re[Sigma]=       0.000000 meV Im[Sigma]=       0.000000 meV     Z=       1.000000 lam=       0.000000
     E(   3 )=  -4.8087 eV   Re[Sigma]=       0.000000 meV Im[Sigma]=       0.000000 meV     Z=       1.000000 lam=       0.000000
     E(   4 )=  -3.6130 eV   Re[Sigma]=       0.000000 meV Im[Sigma]=       0.000000 meV     Z=       1.000000 lam=       0.000000
     -------------------------------------------------------------------


     ik =      66 coord.:    0.1666667   0.6666667   0.8333333
     -------------------------------------------------------------------
     E(   2 )=  -6.8089 eV   Re[Sigma]=       0.000000 meV Im[Sigma]=       0.000000 meV     Z=       1.000000 lam=       0.000000
     E(   3 )=  -4.5766 eV   Re[Sigma]=       0.000000 meV Im[Sigma]=       0.000000 meV     Z=       1.000000 lam=       0.000000
     E(   4 )=  -2.4092 eV   Re[Sigma]=       0.000000 meV Im[Sigma]=       0.000000 meV     Z=       1.000000 lam=       0.000000
     -------------------------------------------------------------------


     ik =      67 coord.:    0.1666667   0.8333333   0.0000000
     -------------------------------------------------------------------
     E(   2 )=  -4.2102 eV   Re[Sigma]=      -8.022475 meV Im[Sigma]=      32.627814 meV     Z=       1.060640 lam=      -0.057173
     E(   3 )=  -2.2152 eV   Re[Sigma]=     -64.324562 meV Im[Sigma]=      65.534073 meV     Z=       1.039283 lam=      -0.037798
     E(   4 )=  -0.4858 eV   Re[Sigma]=      32.664377 meV Im[Sigma]=     129.903744 meV     Z=       1.581916 lam=      -0.367855
     -------------------------------------------------------------------


     ik =      68 coord.:    0.1666667   0.8333333   0.1666667
     -------------------------------------------------------------------
     E(   2 )=  -5.3050 eV   Re[Sigma]=       9.820811 meV Im[Sigma]=      48.321896 meV     Z=       1.068147 lam=      -0.063799
     E(   3 )=  -1.9550 eV   Re[Sigma]=     -32.029518 meV Im[Sigma]=      72.131289 meV     Z=       0.902447 lam=       0.108098
     E(   4 )=  -1.7220 eV   Re[Sigma]=      12.223959 meV Im[Sigma]=     126.258054 meV     Z=       1.187691 lam=      -0.158030
     -------------------------------------------------------------------


     ik =      69 coord.:    0.1666667   0.8333333   0.3333333
     -------------------------------------------------------------------
     E(   2 )=  -6.8089 eV   Re[Sigma]=       0.000000 meV Im[Sigma]=       0.000000 meV     Z=       1.000000 lam=       0.000000
     E(   3 )=  -4.5766 eV   Re[Sigma]=       0.000000 meV Im[Sigma]=       0.000000 meV     Z=       1.000000 lam=       0.000000
     E(   4 )=  -2.4092 eV   Re[Sigma]=       0.000000 meV Im[Sigma]=       0.000000 meV     Z=       1.000000 lam=       0.000000
     -------------------------------------------------------------------


     ik =      70 coord.:    0.1666667   0.8333333   0.5000000
     -------------------------------------------------------------------
     E(   2 )=  -8.1182 eV   Re[Sigma]=       0.000000 meV Im[Sigma]=       0.000000 meV     Z=       1.000000 lam=       0.000000
     E(   3 )=  -5.4137 eV   Re[Sigma]=       0.000000 meV Im[Sigma]=       0.000000 meV     Z=       1.000000 lam=       0.000000
     E(   4 )=  -3.2174 eV   Re[Sigma]=       0.000000 meV Im[Sigma]=       0.000000 meV     Z=       1.000000 lam=       0.000000
     -------------------------------------------------------------------


     ik =      71 coord.:    0.1666667   0.8333333   0.6666667
     -------------------------------------------------------------------
     E(   2 )=  -6.8089 eV   Re[Sigma]=       0.000000 meV Im[Sigma]=       0.000000 meV     Z=       1.000000 lam=       0.000000
     E(   3 )=  -4.5766 eV   Re[Sigma]=       0.000000 meV Im[Sigma]=       0.000000 meV     Z=       1.000000 lam=       0.000000
     E(   4 )=  -2.4092 eV   Re[Sigma]=       0.000000 meV Im[Sigma]=       0.000000 meV     Z=       1.000000 lam=       0.000000
     -------------------------------------------------------------------


     ik =      72 coord.:    0.1666667   0.8333333   0.8333333
     -------------------------------------------------------------------
     E(   2 )=  -5.3050 eV   Re[Sigma]=       8.884947 meV Im[Sigma]=      52.463013 meV     Z=       1.107033 lam=      -0.096684
     E(   3 )=  -1.9550 eV   Re[Sigma]=     -29.876671 meV Im[Sigma]=      78.524276 meV     Z=       0.902714 lam=       0.107771
     E(   4 )=  -1.7220 eV   Re[Sigma]=      15.240204 meV Im[Sigma]=     121.836210 meV     Z=       1.143962 lam=      -0.125845
     -------------------------------------------------------------------


     ik =      73 coord.:    0.3333333   0.0000000   0.0000000
     -------------------------------------------------------------------
     E(   2 )=  -6.8685 eV   Re[Sigma]=      -0.283738 meV Im[Sigma]=      10.679191 meV     Z=       0.996883 lam=       0.003126
     E(   3 )=  -1.1730 eV   Re[Sigma]=      53.135870 meV Im[Sigma]=      73.115235 meV     Z=       1.017607 lam=      -0.017302
     E(   4 )=  -1.1730 eV   Re[Sigma]=      53.135870 meV Im[Sigma]=      73.115235 meV     Z=       1.017607 lam=      -0.017302
     -------------------------------------------------------------------


     ik =      74 coord.:    0.3333333   0.0000000   0.1666667
     -------------------------------------------------------------------
     E(   2 )=  -5.3050 eV   Re[Sigma]=       8.883188 meV Im[Sigma]=      52.458159 meV     Z=       1.107021 lam=      -0.096675
     E(   3 )=  -1.9550 eV   Re[Sigma]=     -29.874263 meV Im[Sigma]=      78.516608 meV     Z=       0.902714 lam=       0.107770
     E(   4 )=  -1.7220 eV   Re[Sigma]=      15.238590 meV Im[Sigma]=     121.838327 meV     Z=       1.144002 lam=      -0.125876
     -------------------------------------------------------------------


     ik =      75 coord.:    0.3333333   0.0000000   0.3333333
     -------------------------------------------------------------------
     E(   2 )=  -5.7377 eV   Re[Sigma]=       0.000000 meV Im[Sigma]=       0.000000 meV     Z=       1.000000 lam=       0.000000
     E(   3 )=  -3.1516 eV   Re[Sigma]=       0.000000 meV Im[Sigma]=       0.000000 meV     Z=       1.000000 lam=       0.000000
     E(   4 )=  -3.1516 eV   Re[Sigma]=       0.000000 meV Im[Sigma]=       0.000000 meV     Z=       1.000000 lam=       0.000000
     -------------------------------------------------------------------


     ik =      76 coord.:    0.3333333   0.0000000   0.5000000
     -------------------------------------------------------------------
     E(   2 )=  -7.6363 eV   Re[Sigma]=       0.000000 meV Im[Sigma]=       0.000000 meV     Z=       1.000000 lam=       0.000000
     E(   3 )=  -4.8087 eV   Re[Sigma]=       0.000000 meV Im[Sigma]=       0.000000 meV     Z=       1.000000 lam=       0.000000
     E(   4 )=  -3.6130 eV   Re[Sigma]=       0.000000 meV Im[Sigma]=       0.000000 meV     Z=       1.000000 lam=       0.000000
     -------------------------------------------------------------------


     ik =      77 coord.:    0.3333333   0.0000000   0.6666667
     -------------------------------------------------------------------
     E(   2 )=  -7.7256 eV   Re[Sigma]=       0.000000 meV Im[Sigma]=       0.000000 meV     Z=       1.000000 lam=       0.000000
     E(   3 )=  -6.3198 eV   Re[Sigma]=       0.000000 meV Im[Sigma]=       0.000000 meV     Z=       1.000000 lam=       0.000000
     E(   4 )=  -2.7070 eV   Re[Sigma]=       0.000000 meV Im[Sigma]=       0.000000 meV     Z=       1.000000 lam=       0.000000
     -------------------------------------------------------------------


     ik =      78 coord.:    0.3333333   0.0000000   0.8333333
     -------------------------------------------------------------------
     E(   2 )=  -7.7841 eV   Re[Sigma]=       8.784744 meV Im[Sigma]=      57.463665 meV     Z=       1.180290 lam=      -0.152751
     E(   3 )=  -3.5170 eV   Re[Sigma]=       0.618582 meV Im[Sigma]=      40.360149 meV     Z=       1.082243 lam=      -0.075993
     E(   4 )=  -1.4636 eV   Re[Sigma]=      48.733213 meV Im[Sigma]=      61.722244 meV     Z=       0.913810 lam=       0.094319
     -------------------------------------------------------------------


     ik =      79 coord.:    0.3333333   0.1666667   0.0000000
     -------------------------------------------------------------------
     E(   2 )=  -5.3050 eV   Re[Sigma]=       4.067048 meV Im[Sigma]=      59.696732 meV     Z=       1.202070 lam=      -0.168102
     E(   3 )=  -1.9550 eV   Re[Sigma]=     -37.135001 meV Im[Sigma]=      87.950188 meV     Z=       0.980306 lam=       0.020090
     E(   4 )=  -1.7220 eV   Re[Sigma]=      13.997307 meV Im[Sigma]=     125.889836 meV     Z=       1.122780 lam=      -0.109354
     -------------------------------------------------------------------


     ik =      80 coord.:    0.3333333   0.1666667   0.1666667
     -------------------------------------------------------------------
     E(   2 )=  -4.2102 eV   Re[Sigma]=      -7.693666 meV Im[Sigma]=      32.479414 meV     Z=       1.062617 lam=      -0.058927
     E(   3 )=  -2.2152 eV   Re[Sigma]=     -66.028946 meV Im[Sigma]=      64.032252 meV     Z=       1.029679 lam=      -0.028824
     E(   4 )=  -0.4858 eV   Re[Sigma]=      46.018279 meV Im[Sigma]=     141.047023 meV     Z=       2.145258 lam=      -0.533856
     -------------------------------------------------------------------


     ik =      81 coord.:    0.3333333   0.1666667   0.3333333
     -------------------------------------------------------------------
     E(   2 )=  -5.3050 eV   Re[Sigma]=       4.067695 meV Im[Sigma]=      59.699346 meV     Z=       1.202081 lam=      -0.168109
     E(   3 )=  -1.9550 eV   Re[Sigma]=     -37.136369 meV Im[Sigma]=      87.953772 meV     Z=       0.980312 lam=       0.020083
     E(   4 )=  -1.7220 eV   Re[Sigma]=      13.995879 meV Im[Sigma]=     125.886413 meV     Z=       1.122738 lam=      -0.109320
     -------------------------------------------------------------------


     ik =      82 coord.:    0.3333333   0.1666667   0.5000000
     -------------------------------------------------------------------
     E(   2 )=  -6.8089 eV   Re[Sigma]=       0.000000 meV Im[Sigma]=       0.000000 meV     Z=       1.000000 lam=       0.000000
     E(   3 )=  -4.5766 eV   Re[Sigma]=       0.000000 meV Im[Sigma]=       0.000000 meV     Z=       1.000000 lam=       0.000000
     E(   4 )=  -2.4092 eV   Re[Sigma]=       0.000000 meV Im[Sigma]=       0.000000 meV     Z=       1.000000 lam=       0.000000
     -------------------------------------------------------------------


     ik =      83 coord.:    0.3333333   0.1666667   0.6666667
     -------------------------------------------------------------------
     E(   2 )=  -8.1182 eV   Re[Sigma]=       0.000000 meV Im[Sigma]=       0.000000 meV     Z=       1.000000 lam=       0.000000
     E(   3 )=  -5.4137 eV   Re[Sigma]=       0.000000 meV Im[Sigma]=       0.000000 meV     Z=       1.000000 lam=       0.000000
     E(   4 )=  -3.2174 eV   Re[Sigma]=       0.000000 meV Im[Sigma]=       0.000000 meV     Z=       1.000000 lam=       0.000000
     -------------------------------------------------------------------


     ik =      84 coord.:    0.3333333   0.1666667   0.8333333
     -------------------------------------------------------------------
     E(   2 )=  -6.8089 eV   Re[Sigma]=       0.000000 meV Im[Sigma]=       0.000000 meV     Z=       1.000000 lam=       0.000000
     E(   3 )=  -4.5766 eV   Re[Sigma]=       0.000000 meV Im[Sigma]=       0.000000 meV     Z=       1.000000 lam=       0.000000
     E(   4 )=  -2.4092 eV   Re[Sigma]=       0.000000 meV Im[Sigma]=       0.000000 meV     Z=       1.000000 lam=       0.000000
     -------------------------------------------------------------------


     ik =      85 coord.:    0.3333333   0.3333333   0.0000000
     -------------------------------------------------------------------
     E(   2 )=  -5.7377 eV   Re[Sigma]=       0.000000 meV Im[Sigma]=       0.000000 meV     Z=       1.000000 lam=       0.000000
     E(   3 )=  -3.1516 eV   Re[Sigma]=       0.000000 meV Im[Sigma]=       0.000000 meV     Z=       1.000000 lam=       0.000000
     E(   4 )=  -3.1516 eV   Re[Sigma]=       0.000000 meV Im[Sigma]=       0.000000 meV     Z=       1.000000 lam=       0.000000
     -------------------------------------------------------------------


     ik =      86 coord.:    0.3333333   0.3333333   0.1666667
     -------------------------------------------------------------------
     E(   2 )=  -5.3050 eV   Re[Sigma]=       8.884317 meV Im[Sigma]=      52.460903 meV     Z=       1.107027 lam=      -0.096680
     E(   3 )=  -1.9550 eV   Re[Sigma]=     -29.875159 meV Im[Sigma]=      78.520188 meV     Z=       0.902718 lam=       0.107765
     E(   4 )=  -1.7220 eV   Re[Sigma]=      15.239434 meV Im[Sigma]=     121.834618 meV     Z=       1.143954 lam=      -0.125839
     -------------------------------------------------------------------


     ik =      87 coord.:    0.3333333   0.3333333   0.3333333
     -------------------------------------------------------------------
     E(   2 )=  -6.8685 eV   Re[Sigma]=      -0.284285 meV Im[Sigma]=      10.679666 meV     Z=       0.996883 lam=       0.003126
     E(   3 )=  -1.1730 eV   Re[Sigma]=      53.138018 meV Im[Sigma]=      73.115171 meV     Z=       1.017604 lam=      -0.017299
     E(   4 )=  -1.1730 eV   Re[Sigma]=      53.138018 meV Im[Sigma]=      73.115171 meV     Z=       1.017604 lam=      -0.017299
     -------------------------------------------------------------------


     ik =      88 coord.:    0.3333333   0.3333333   0.5000000
     -------------------------------------------------------------------
     E(   2 )=  -7.7841 eV   Re[Sigma]=       8.784201 meV Im[Sigma]=      57.462696 meV     Z=       1.180286 lam=      -0.152748
     E(   3 )=  -3.5170 eV   Re[Sigma]=       0.617872 meV Im[Sigma]=      40.360114 meV     Z=       1.082243 lam=      -0.075993
     E(   4 )=  -1.4636 eV   Re[Sigma]=      48.735252 meV Im[Sigma]=      61.723262 meV     Z=       0.913809 lam=       0.094320
     -------------------------------------------------------------------


     ik =      89 coord.:    0.3333333   0.3333333   0.6666667
     -------------------------------------------------------------------
     E(   2 )=  -7.7256 eV   Re[Sigma]=       0.000000 meV Im[Sigma]=       0.000000 meV     Z=       1.000000 lam=       0.000000
     E(   3 )=  -6.3198 eV   Re[Sigma]=       0.000000 meV Im[Sigma]=       0.000000 meV     Z=       1.000000 lam=       0.000000
     E(   4 )=  -2.7070 eV   Re[Sigma]=       0.000000 meV Im[Sigma]=       0.000000 meV     Z=       1.000000 lam=       0.000000
     -------------------------------------------------------------------


     ik =      90 coord.:    0.3333333   0.3333333   0.8333333
     -------------------------------------------------------------------
     E(   2 )=  -7.6363 eV   Re[Sigma]=       0.000000 meV Im[Sigma]=       0.000000 meV     Z=       1.000000 lam=       0.000000
     E(   3 )=  -4.8087 eV   Re[Sigma]=       0.000000 meV Im[Sigma]=       0.000000 meV     Z=       1.000000 lam=       0.000000
     E(   4 )=  -3.6130 eV   Re[Sigma]=       0.000000 meV Im[Sigma]=       0.000000 meV     Z=       1.000000 lam=       0.000000
     -------------------------------------------------------------------


     ik =      91 coord.:    0.3333333   0.5000000   0.0000000
     -------------------------------------------------------------------
     E(   2 )=  -7.6363 eV   Re[Sigma]=       0.000000 meV Im[Sigma]=       0.000000 meV     Z=       1.000000 lam=       0.000000
     E(   3 )=  -4.8087 eV   Re[Sigma]=       0.000000 meV Im[Sigma]=       0.000000 meV     Z=       1.000000 lam=       0.000000
     E(   4 )=  -3.6130 eV   Re[Sigma]=       0.000000 meV Im[Sigma]=       0.000000 meV     Z=       1.000000 lam=       0.000000
     -------------------------------------------------------------------


     ik =      92 coord.:    0.3333333   0.5000000   0.1666667
     -------------------------------------------------------------------
     E(   2 )=  -6.8089 eV   Re[Sigma]=       0.000000 meV Im[Sigma]=       0.000000 meV     Z=       1.000000 lam=       0.000000
     E(   3 )=  -4.5766 eV   Re[Sigma]=       0.000000 meV Im[Sigma]=       0.000000 meV     Z=       1.000000 lam=       0.000000
     E(   4 )=  -2.4092 eV   Re[Sigma]=       0.000000 meV Im[Sigma]=       0.000000 meV     Z=       1.000000 lam=       0.000000
     -------------------------------------------------------------------


     ik =      93 coord.:    0.3333333   0.5000000   0.3333333
     -------------------------------------------------------------------
     E(   2 )=  -7.7841 eV   Re[Sigma]=       9.277646 meV Im[Sigma]=      61.982946 meV     Z=       1.203830 lam=      -0.169318
     E(   3 )=  -3.5170 eV   Re[Sigma]=       1.538950 meV Im[Sigma]=      41.528102 meV     Z=       1.078495 lam=      -0.072782
     E(   4 )=  -1.4636 eV   Re[Sigma]=      44.746740 meV Im[Sigma]=      70.653349 meV     Z=       0.995495 lam=       0.004525
     -------------------------------------------------------------------


     ik =      94 coord.:    0.3333333   0.5000000   0.5000000
     -------------------------------------------------------------------
     E(   2 )=  -8.6498 eV   Re[Sigma]=       0.000000 meV Im[Sigma]=       0.000000 meV     Z=       1.000000 lam=       0.000000
     E(   3 )=  -3.0372 eV   Re[Sigma]=       0.000000 meV Im[Sigma]=       0.000000 meV     Z=       1.000000 lam=       0.000000
     E(   4 )=  -2.2836 eV   Re[Sigma]=       0.000000 meV Im[Sigma]=       0.000000 meV     Z=       1.000000 lam=       0.000000
     -------------------------------------------------------------------


     ik =      95 coord.:    0.3333333   0.5000000   0.6666667
     -------------------------------------------------------------------
     E(   2 )=  -8.1182 eV   Re[Sigma]=       0.000000 meV Im[Sigma]=       0.000000 meV     Z=       1.000000 lam=       0.000000
     E(   3 )=  -5.4137 eV   Re[Sigma]=       0.000000 meV Im[Sigma]=       0.000000 meV     Z=       1.000000 lam=       0.000000
     E(   4 )=  -3.2174 eV   Re[Sigma]=       0.000000 meV Im[Sigma]=       0.000000 meV     Z=       1.000000 lam=       0.000000
     -------------------------------------------------------------------


     ik =      96 coord.:    0.3333333   0.5000000   0.8333333
     -------------------------------------------------------------------
     E(   2 )=  -7.8765 eV   Re[Sigma]=       0.000000 meV Im[Sigma]=       0.000000 meV     Z=       1.000000 lam=       0.000000
     E(   3 )=  -5.6007 eV   Re[Sigma]=       0.000000 meV Im[Sigma]=       0.000000 meV     Z=       1.000000 lam=       0.000000
     E(   4 )=  -4.3908 eV   Re[Sigma]=       0.000000 meV Im[Sigma]=       0.000000 meV     Z=       1.000000 lam=       0.000000
     -------------------------------------------------------------------


     ik =      97 coord.:    0.3333333   0.6666667   0.0000000
     -------------------------------------------------------------------
     E(   2 )=  -7.7256 eV   Re[Sigma]=       0.000000 meV Im[Sigma]=       0.000000 meV     Z=       1.000000 lam=       0.000000
     E(   3 )=  -6.3198 eV   Re[Sigma]=       0.000000 meV Im[Sigma]=       0.000000 meV     Z=       1.000000 lam=       0.000000
     E(   4 )=  -2.7070 eV   Re[Sigma]=       0.000000 meV Im[Sigma]=       0.000000 meV     Z=       1.000000 lam=       0.000000
     -------------------------------------------------------------------


     ik =      98 coord.:    0.3333333   0.6666667   0.1666667
     -------------------------------------------------------------------
     E(   2 )=  -8.1182 eV   Re[Sigma]=       0.000000 meV Im[Sigma]=       0.000000 meV     Z=       1.000000 lam=       0.000000
     E(   3 )=  -5.4137 eV   Re[Sigma]=       0.000000 meV Im[Sigma]=       0.000000 meV     Z=       1.000000 lam=       0.000000
     E(   4 )=  -3.2174 eV   Re[Sigma]=       0.000000 meV Im[Sigma]=       0.000000 meV     Z=       1.000000 lam=       0.000000
     -------------------------------------------------------------------


     ik =      99 coord.:    0.3333333   0.6666667   0.3333333
     -------------------------------------------------------------------
     E(   2 )=  -7.7256 eV   Re[Sigma]=       0.000000 meV Im[Sigma]=       0.000000 meV     Z=       1.000000 lam=       0.000000
     E(   3 )=  -6.3198 eV   Re[Sigma]=       0.000000 meV Im[Sigma]=       0.000000 meV     Z=       1.000000 lam=       0.000000
     E(   4 )=  -2.7070 eV   Re[Sigma]=       0.000000 meV Im[Sigma]=       0.000000 meV     Z=       1.000000 lam=       0.000000
     -------------------------------------------------------------------


     ik =     100 coord.:    0.3333333   0.6666667   0.5000000
     -------------------------------------------------------------------
     E(   2 )=  -8.1182 eV   Re[Sigma]=       0.000000 meV Im[Sigma]=       0.000000 meV     Z=       1.000000 lam=       0.000000
     E(   3 )=  -5.4137 eV   Re[Sigma]=       0.000000 meV Im[Sigma]=       0.000000 meV     Z=       1.000000 lam=       0.000000
     E(   4 )=  -3.2174 eV   Re[Sigma]=       0.000000 meV Im[Sigma]=       0.000000 meV     Z=       1.000000 lam=       0.000000
     -------------------------------------------------------------------


     ik =     101 coord.:    0.3333333   0.6666667   0.6666667
     -------------------------------------------------------------------
     E(   2 )=  -7.7256 eV   Re[Sigma]=       0.000000 meV Im[Sigma]=       0.000000 meV     Z=       1.000000 lam=       0.000000
     E(   3 )=  -6.3198 eV   Re[Sigma]=       0.000000 meV Im[Sigma]=       0.000000 meV     Z=       1.000000 lam=       0.000000
     E(   4 )=  -2.7070 eV   Re[Sigma]=       0.000000 meV Im[Sigma]=       0.000000 meV     Z=       1.000000 lam=       0.000000
     -------------------------------------------------------------------


     ik =     102 coord.:    0.3333333   0.6666667   0.8333333
     -------------------------------------------------------------------
     E(   2 )=  -8.1182 eV   Re[Sigma]=       0.000000 meV Im[Sigma]=       0.000000 meV     Z=       1.000000 lam=       0.000000
     E(   3 )=  -5.4137 eV   Re[Sigma]=       0.000000 meV Im[Sigma]=       0.000000 meV     Z=       1.000000 lam=       0.000000
     E(   4 )=  -3.2174 eV   Re[Sigma]=       0.000000 meV Im[Sigma]=       0.000000 meV     Z=       1.000000 lam=       0.000000
     -------------------------------------------------------------------


     ik =     103 coord.:    0.3333333   0.8333333   0.0000000
     -------------------------------------------------------------------
     E(   2 )=  -7.7841 eV   Re[Sigma]=       9.278123 meV Im[Sigma]=      61.983122 meV     Z=       1.203829 lam=      -0.169317
     E(   3 )=  -3.5170 eV   Re[Sigma]=       1.539391 meV Im[Sigma]=      41.527875 meV     Z=       1.078494 lam=      -0.072782
     E(   4 )=  -1.4636 eV   Re[Sigma]=      44.744250 meV Im[Sigma]=      70.654565 meV     Z=       0.995513 lam=       0.004508
     -------------------------------------------------------------------


     ik =     104 coord.:    0.3333333   0.8333333   0.1666667
     -------------------------------------------------------------------
     E(   2 )=  -6.8089 eV   Re[Sigma]=       0.000000 meV Im[Sigma]=       0.000000 meV     Z=       1.000000 lam=       0.000000
     E(   3 )=  -4.5766 eV   Re[Sigma]=       0.000000 meV Im[Sigma]=       0.000000 meV     Z=       1.000000 lam=       0.000000
     E(   4 )=  -2.4092 eV   Re[Sigma]=       0.000000 meV Im[Sigma]=       0.000000 meV     Z=       1.000000 lam=       0.000000
     -------------------------------------------------------------------


     ik =     105 coord.:    0.3333333   0.8333333   0.3333333
     -------------------------------------------------------------------
     E(   2 )=  -7.6363 eV   Re[Sigma]=       0.000000 meV Im[Sigma]=       0.000000 meV     Z=       1.000000 lam=       0.000000
     E(   3 )=  -4.8087 eV   Re[Sigma]=       0.000000 meV Im[Sigma]=       0.000000 meV     Z=       1.000000 lam=       0.000000
     E(   4 )=  -3.6130 eV   Re[Sigma]=       0.000000 meV Im[Sigma]=       0.000000 meV     Z=       1.000000 lam=       0.000000
     -------------------------------------------------------------------


     ik =     106 coord.:    0.3333333   0.8333333   0.5000000
     -------------------------------------------------------------------
     E(   2 )=  -7.8765 eV   Re[Sigma]=       0.000000 meV Im[Sigma]=       0.000000 meV     Z=       1.000000 lam=       0.000000
     E(   3 )=  -5.6007 eV   Re[Sigma]=       0.000000 meV Im[Sigma]=       0.000000 meV     Z=       1.000000 lam=       0.000000
     E(   4 )=  -4.3908 eV   Re[Sigma]=       0.000000 meV Im[Sigma]=       0.000000 meV     Z=       1.000000 lam=       0.000000
     -------------------------------------------------------------------


     ik =     107 coord.:    0.3333333   0.8333333   0.6666667
     -------------------------------------------------------------------
     E(   2 )=  -8.1182 eV   Re[Sigma]=       0.000000 meV Im[Sigma]=       0.000000 meV     Z=       1.000000 lam=       0.000000
     E(   3 )=  -5.4137 eV   Re[Sigma]=       0.000000 meV Im[Sigma]=       0.000000 meV     Z=       1.000000 lam=       0.000000
     E(   4 )=  -3.2174 eV   Re[Sigma]=       0.000000 meV Im[Sigma]=       0.000000 meV     Z=       1.000000 lam=       0.000000
     -------------------------------------------------------------------


     ik =     108 coord.:    0.3333333   0.8333333   0.8333333
     -------------------------------------------------------------------
     E(   2 )=  -8.6498 eV   Re[Sigma]=       0.000000 meV Im[Sigma]=       0.000000 meV     Z=       1.000000 lam=       0.000000
     E(   3 )=  -3.0372 eV   Re[Sigma]=       0.000000 meV Im[Sigma]=       0.000000 meV     Z=       1.000000 lam=       0.000000
     E(   4 )=  -2.2836 eV   Re[Sigma]=       0.000000 meV Im[Sigma]=       0.000000 meV     Z=       1.000000 lam=       0.000000
     -------------------------------------------------------------------


     ik =     109 coord.:    0.5000000   0.0000000   0.0000000
     -------------------------------------------------------------------
     E(   2 )=  -9.4227 eV   Re[Sigma]=      -8.044683 meV Im[Sigma]=       6.592195 meV     Z=       1.006139 lam=      -0.006102
     E(   3 )=  -1.6810 eV   Re[Sigma]=      23.057908 meV Im[Sigma]=     100.776986 meV     Z=       0.950274 lam=       0.052328
     E(   4 )=  -1.6810 eV   Re[Sigma]=      23.057908 meV Im[Sigma]=     100.776986 meV     Z=       0.950274 lam=       0.052328
     -------------------------------------------------------------------


     ik =     110 coord.:    0.5000000   0.0000000   0.1666667
     -------------------------------------------------------------------
     E(   2 )=  -8.6498 eV   Re[Sigma]=       0.000000 meV Im[Sigma]=       0.000000 meV     Z=       1.000000 lam=       0.000000
     E(   3 )=  -3.0372 eV   Re[Sigma]=       0.000000 meV Im[Sigma]=       0.000000 meV     Z=       1.000000 lam=       0.000000
     E(   4 )=  -2.2836 eV   Re[Sigma]=       0.000000 meV Im[Sigma]=       0.000000 meV     Z=       1.000000 lam=       0.000000
     -------------------------------------------------------------------


     ik =     111 coord.:    0.5000000   0.0000000   0.3333333
     -------------------------------------------------------------------
     E(   2 )=  -7.6363 eV   Re[Sigma]=       0.000000 meV Im[Sigma]=       0.000000 meV     Z=       1.000000 lam=       0.000000
     E(   3 )=  -4.8087 eV   Re[Sigma]=       0.000000 meV Im[Sigma]=       0.000000 meV     Z=       1.000000 lam=       0.000000
     E(   4 )=  -3.6130 eV   Re[Sigma]=       0.000000 meV Im[Sigma]=       0.000000 meV     Z=       1.000000 lam=       0.000000
     -------------------------------------------------------------------


     ik =     112 coord.:    0.5000000   0.0000000   0.5000000
     -------------------------------------------------------------------
     E(   2 )=  -8.1432 eV   Re[Sigma]=       0.000000 meV Im[Sigma]=       0.000000 meV     Z=       1.000000 lam=       0.000000
     E(   3 )=  -4.3397 eV   Re[Sigma]=       0.000000 meV Im[Sigma]=       0.000000 meV     Z=       1.000000 lam=       0.000000
     E(   4 )=  -4.3397 eV   Re[Sigma]=       0.000000 meV Im[Sigma]=       0.000000 meV     Z=       1.000000 lam=       0.000000
     -------------------------------------------------------------------


     ik =     113 coord.:    0.5000000   0.0000000   0.6666667
     -------------------------------------------------------------------
     E(   2 )=  -7.6363 eV   Re[Sigma]=       0.000000 meV Im[Sigma]=       0.000000 meV     Z=       1.000000 lam=       0.000000
     E(   3 )=  -4.8087 eV   Re[Sigma]=       0.000000 meV Im[Sigma]=       0.000000 meV     Z=       1.000000 lam=       0.000000
     E(   4 )=  -3.6130 eV   Re[Sigma]=       0.000000 meV Im[Sigma]=       0.000000 meV     Z=       1.000000 lam=       0.000000
     -------------------------------------------------------------------


     ik =     114 coord.:    0.5000000   0.0000000   0.8333333
     -------------------------------------------------------------------
     E(   2 )=  -8.6498 eV   Re[Sigma]=       0.000000 meV Im[Sigma]=       0.000000 meV     Z=       1.000000 lam=       0.000000
     E(   3 )=  -3.0372 eV   Re[Sigma]=       0.000000 meV Im[Sigma]=       0.000000 meV     Z=       1.000000 lam=       0.000000
     E(   4 )=  -2.2836 eV   Re[Sigma]=       0.000000 meV Im[Sigma]=       0.000000 meV     Z=       1.000000 lam=       0.000000
     -------------------------------------------------------------------


     ik =     115 coord.:    0.5000000   0.1666667   0.0000000
     -------------------------------------------------------------------
     E(   2 )=  -8.6498 eV   Re[Sigma]=       0.000000 meV Im[Sigma]=       0.000000 meV     Z=       1.000000 lam=       0.000000
     E(   3 )=  -3.0372 eV   Re[Sigma]=       0.000000 meV Im[Sigma]=       0.000000 meV     Z=       1.000000 lam=       0.000000
     E(   4 )=  -2.2836 eV   Re[Sigma]=       0.000000 meV Im[Sigma]=       0.000000 meV     Z=       1.000000 lam=       0.000000
     -------------------------------------------------------------------


     ik =     116 coord.:    0.5000000   0.1666667   0.1666667
     -------------------------------------------------------------------
     E(   2 )=  -7.7841 eV   Re[Sigma]=       8.785040 meV Im[Sigma]=      57.463916 meV     Z=       1.180291 lam=      -0.152751
     E(   3 )=  -3.5170 eV   Re[Sigma]=       0.619135 meV Im[Sigma]=      40.360237 meV     Z=       1.082245 lam=      -0.075995
     E(   4 )=  -1.4636 eV   Re[Sigma]=      48.732012 meV Im[Sigma]=      61.721555 meV     Z=       0.913811 lam=       0.094318
     -------------------------------------------------------------------


     ik =     117 coord.:    0.5000000   0.1666667   0.3333333
     -------------------------------------------------------------------
     E(   2 )=  -6.8089 eV   Re[Sigma]=       0.000000 meV Im[Sigma]=       0.000000 meV     Z=       1.000000 lam=       0.000000
     E(   3 )=  -4.5766 eV   Re[Sigma]=       0.000000 meV Im[Sigma]=       0.000000 meV     Z=       1.000000 lam=       0.000000
     E(   4 )=  -2.4092 eV   Re[Sigma]=       0.000000 meV Im[Sigma]=       0.000000 meV     Z=       1.000000 lam=       0.000000
     -------------------------------------------------------------------


     ik =     118 coord.:    0.5000000   0.1666667   0.5000000
     -------------------------------------------------------------------
     E(   2 )=  -7.6363 eV   Re[Sigma]=       0.000000 meV Im[Sigma]=       0.000000 meV     Z=       1.000000 lam=       0.000000
     E(   3 )=  -4.8087 eV   Re[Sigma]=       0.000000 meV Im[Sigma]=       0.000000 meV     Z=       1.000000 lam=       0.000000
     E(   4 )=  -3.6130 eV   Re[Sigma]=       0.000000 meV Im[Sigma]=       0.000000 meV     Z=       1.000000 lam=       0.000000
     -------------------------------------------------------------------


     ik =     119 coord.:    0.5000000   0.1666667   0.6666667
     -------------------------------------------------------------------
     E(   2 )=  -7.8765 eV   Re[Sigma]=       0.000000 meV Im[Sigma]=       0.000000 meV     Z=       1.000000 lam=       0.000000
     E(   3 )=  -5.6007 eV   Re[Sigma]=       0.000000 meV Im[Sigma]=       0.000000 meV     Z=       1.000000 lam=       0.000000
     E(   4 )=  -4.3908 eV   Re[Sigma]=       0.000000 meV Im[Sigma]=       0.000000 meV     Z=       1.000000 lam=       0.000000
     -------------------------------------------------------------------


     ik =     120 coord.:    0.5000000   0.1666667   0.8333333
     -------------------------------------------------------------------
     E(   2 )=  -8.1182 eV   Re[Sigma]=       0.000000 meV Im[Sigma]=       0.000000 meV     Z=       1.000000 lam=       0.000000
     E(   3 )=  -5.4137 eV   Re[Sigma]=       0.000000 meV Im[Sigma]=       0.000000 meV     Z=       1.000000 lam=       0.000000
     E(   4 )=  -3.2174 eV   Re[Sigma]=       0.000000 meV Im[Sigma]=       0.000000 meV     Z=       1.000000 lam=       0.000000
[...]
      200        3     -5.4137      0.0000      0.0000      1.0000      0.0000
      201        3     -5.6007      0.0000      0.0000      1.0000      0.0000
      202        3     -4.8087      0.0000      0.0000      1.0000      0.0000
      203        3     -4.5766      0.0000      0.0000      1.0000      0.0000
      204        3     -3.5170      0.5553     41.2538      1.0866     -0.0797
      205        3     -1.9550    -32.0303     72.1352      0.9024      0.1081
      206        3     -4.5766      0.0000      0.0000      1.0000      0.0000
      207        3     -5.4137      0.0000      0.0000      1.0000      0.0000
      208        3     -4.5766      0.0000      0.0000      1.0000      0.0000
      209        3     -1.9550    -29.8743     78.5257      0.9027      0.1078
      210        3     -2.2152    -64.3289     65.5436      1.0393     -0.0378
      211        3     -1.0239     68.4958     47.4967      0.9554      0.0467
      212        3     -1.9550    -29.8767     78.5243      0.9027      0.1078
      213        3     -3.0372      0.0000      0.0000      1.0000      0.0000
      214        3     -3.5170      0.6176     40.3599      1.0822     -0.0760
      215        3     -2.2152    -66.0341     64.0430      1.0297     -0.0288
      216        3     -0.3746     85.0629     72.5981      1.0829     -0.0766
  
        1        4     -0.0842     73.8839      4.2731      0.9130      0.0953
        2        4     -0.3746     85.0530     72.5961      1.0829     -0.0766
        3        4     -1.1730     53.1359     73.1152      1.0176     -0.0173
        4        4     -1.6810     23.0579    100.7770      0.9503      0.0523
        5        4     -1.1730     53.1338     73.1173      1.0176     -0.0173
        6        4     -0.3746     85.0555     72.5962      1.0829     -0.0766
        7        4     -0.3746     75.9309    101.8492      1.3687     -0.2694
        8        4     -1.0239     68.4901     47.4962      0.9554      0.0467
        9        4     -1.7220     13.9973    125.8898      1.1228     -0.1094
       10        4     -2.2836      0.0000      0.0000      1.0000      0.0000
       11        4     -1.4636     44.7444     70.6527      0.9955      0.0045
       12        4     -0.4858     32.6643    129.9041      1.5819     -0.3679
       13        4     -1.1730     50.9989     68.9530      0.9831      0.0172
       14        4     -1.7220     12.2241    126.2665      1.1877     -0.1581
       15        4     -3.1516      0.0000      0.0000      1.0000      0.0000
       16        4     -3.6130      0.0000      0.0000      1.0000      0.0000
       17        4     -2.7070      0.0000      0.0000      1.0000      0.0000
       18        4     -1.4636     48.5093     64.4735      0.9247      0.0814
       19        4     -1.6810     26.0079    105.9536      0.9579      0.0439
       20        4     -2.2836      0.0000      0.0000      1.0000      0.0000
       21        4     -3.6130      0.0000      0.0000      1.0000      0.0000
       22        4     -4.3397      0.0000      0.0000      1.0000      0.0000
       23        4     -3.6130      0.0000      0.0000      1.0000      0.0000
       24        4     -2.2836      0.0000      0.0000      1.0000      0.0000
       25        4     -1.1730     50.9964     68.9549      0.9831      0.0172
       26        4     -1.4636     48.5102     64.4716      0.9247      0.0815
       27        4     -2.7070      0.0000      0.0000      1.0000      0.0000
       28        4     -3.6130      0.0000      0.0000      1.0000      0.0000
       29        4     -3.1516      0.0000      0.0000      1.0000      0.0000
       30        4     -1.7220     12.2272    126.2700      1.1877     -0.1581
       31        4     -0.3746     75.9337    101.8479      1.3687     -0.2694
       32        4     -0.4858     32.6644    129.9037      1.5819     -0.3679
       33        4     -1.4636     44.7443     70.6546      0.9955      0.0045
       34        4     -2.2836      0.0000      0.0000      1.0000      0.0000
       35        4     -1.7220     13.9989    125.8954      1.1228     -0.1094
       36        4     -1.0239     68.4958     47.4967      0.9554      0.0467
       37        4     -0.3746     85.0530     72.5961      1.0829     -0.0766
       38        4     -1.0239     68.4900     47.4961      0.9554      0.0467
       39        4     -1.7220     15.2386    121.8383      1.1440     -0.1259
       40        4     -2.2836      0.0000      0.0000      1.0000      0.0000
       41        4     -1.4636     48.7327     61.7225      0.9138      0.0943
       42        4     -0.4858     46.0187    141.0469      2.1453     -0.5339
       43        4     -1.0239     68.4901     47.4962      0.9554      0.0467
       44        4     -0.3746     85.0519     72.5957      1.0829     -0.0766
       45        4     -0.4858     46.0183    141.0470      2.1453     -0.5339
       46        4     -1.4636     48.7320     61.7216      0.9138      0.0943
       47        4     -2.2836      0.0000      0.0000      1.0000      0.0000
       48        4     -1.7220     15.2383    121.8311      1.1440     -0.1258
       49        4     -1.7220     12.2241    126.2665      1.1877     -0.1581
       50        4     -0.4858     32.6641    129.9038      1.5819     -0.3679
       51        4     -1.7220     15.2394    121.8346      1.1440     -0.1258
       52        4     -2.4092      0.0000      0.0000      1.0000      0.0000
       53        4     -3.2174      0.0000      0.0000      1.0000      0.0000
       54        4     -2.4092      0.0000      0.0000      1.0000      0.0000
       55        4     -2.2836      0.0000      0.0000      1.0000      0.0000
       56        4     -1.4636     48.5091     64.4725      0.9247      0.0815
       57        4     -2.4092      0.0000      0.0000      1.0000      0.0000
       58        4     -3.6130      0.0000      0.0000      1.0000      0.0000
       59        4     -4.3908      0.0000      0.0000      1.0000      0.0000
       60        4     -3.2174      0.0000      0.0000      1.0000      0.0000
       61        4     -1.4636     48.5102     64.4716      0.9247      0.0815
       62        4     -2.2836      0.0000      0.0000      1.0000      0.0000
       63        4     -3.2174      0.0000      0.0000      1.0000      0.0000
       64        4     -4.3908      0.0000      0.0000      1.0000      0.0000
       65        4     -3.6130      0.0000      0.0000      1.0000      0.0000
       66        4     -2.4092      0.0000      0.0000      1.0000      0.0000
       67        4     -0.4858     32.6644    129.9037      1.5819     -0.3679
       68        4     -1.7220     12.2240    126.2581      1.1877     -0.1580
       69        4     -2.4092      0.0000      0.0000      1.0000      0.0000
       70        4     -3.2174      0.0000      0.0000      1.0000      0.0000
       71        4     -2.4092      0.0000      0.0000      1.0000      0.0000
       72        4     -1.7220     15.2402    121.8362      1.1440     -0.1258
       73        4     -1.1730     53.1359     73.1152      1.0176     -0.0173
       74        4     -1.7220     15.2386    121.8383      1.1440     -0.1259
       75        4     -3.1516      0.0000      0.0000      1.0000      0.0000
       76        4     -3.6130      0.0000      0.0000      1.0000      0.0000
       77        4     -2.7070      0.0000      0.0000      1.0000      0.0000
       78        4     -1.4636     48.7332     61.7222      0.9138      0.0943
       79        4     -1.7220     13.9973    125.8898      1.1228     -0.1094
       80        4     -0.4858     46.0183    141.0470      2.1453     -0.5339
       81        4     -1.7220     13.9959    125.8864      1.1227     -0.1093
       82        4     -2.4092      0.0000      0.0000      1.0000      0.0000
       83        4     -3.2174      0.0000      0.0000      1.0000      0.0000
       84        4     -2.4092      0.0000      0.0000      1.0000      0.0000
       85        4     -3.1516      0.0000      0.0000      1.0000      0.0000
       86        4     -1.7220     15.2394    121.8346      1.1440     -0.1258
       87        4     -1.1730     53.1380     73.1152      1.0176     -0.0173
       88        4     -1.4636     48.7353     61.7233      0.9138      0.0943
       89        4     -2.7070      0.0000      0.0000      1.0000      0.0000
       90        4     -3.6130      0.0000      0.0000      1.0000      0.0000
       91        4     -3.6130      0.0000      0.0000      1.0000      0.0000
       92        4     -2.4092      0.0000      0.0000      1.0000      0.0000
       93        4     -1.4636     44.7467     70.6533      0.9955      0.0045
       94        4     -2.2836      0.0000      0.0000      1.0000      0.0000
       95        4     -3.2174      0.0000      0.0000      1.0000      0.0000
       96        4     -4.3908      0.0000      0.0000      1.0000      0.0000
       97        4     -2.7070      0.0000      0.0000      1.0000      0.0000
       98        4     -3.2174      0.0000      0.0000      1.0000      0.0000
       99        4     -2.7070      0.0000      0.0000      1.0000      0.0000
      100        4     -3.2174      0.0000      0.0000      1.0000      0.0000
      101        4     -2.7070      0.0000      0.0000      1.0000      0.0000
      102        4     -3.2174      0.0000      0.0000      1.0000      0.0000
      103        4     -1.4636     44.7443     70.6546      0.9955      0.0045
      104        4     -2.4092      0.0000      0.0000      1.0000      0.0000
      105        4     -3.6130      0.0000      0.0000      1.0000      0.0000
      106        4     -4.3908      0.0000      0.0000      1.0000      0.0000
      107        4     -3.2174      0.0000      0.0000      1.0000      0.0000
      108        4     -2.2836      0.0000      0.0000      1.0000      0.0000
      109        4     -1.6810     23.0579    100.7770      0.9503      0.0523
      110        4     -2.2836      0.0000      0.0000      1.0000      0.0000
      111        4     -3.6130      0.0000      0.0000      1.0000      0.0000
      112        4     -4.3397      0.0000      0.0000      1.0000      0.0000
      113        4     -3.6130      0.0000      0.0000      1.0000      0.0000
      114        4     -2.2836      0.0000      0.0000      1.0000      0.0000
      115        4     -2.2836      0.0000      0.0000      1.0000      0.0000
      116        4     -1.4636     48.7320     61.7216      0.9138      0.0943
      117        4     -2.4092      0.0000      0.0000      1.0000      0.0000
      118        4     -3.6130      0.0000      0.0000      1.0000      0.0000
      119        4     -4.3908      0.0000      0.0000      1.0000      0.0000
      120        4     -3.2174      0.0000      0.0000      1.0000      0.0000
      121        4     -3.6130      0.0000      0.0000      1.0000      0.0000
      122        4     -2.4092      0.0000      0.0000      1.0000      0.0000
      123        4     -1.4636     48.7353     61.7233      0.9138      0.0943
      124        4     -2.2836      0.0000      0.0000      1.0000      0.0000
      125        4     -3.2174      0.0000      0.0000      1.0000      0.0000
      126        4     -4.3908      0.0000      0.0000      1.0000      0.0000
      127        4     -4.3397      0.0000      0.0000      1.0000      0.0000
      128        4     -3.6130      0.0000      0.0000      1.0000      0.0000
      129        4     -2.2836      0.0000      0.0000      1.0000      0.0000
      130        4     -1.6810     23.0646    100.7875      0.9503      0.0523
      131        4     -2.2836      0.0000      0.0000      1.0000      0.0000
      132        4     -3.6130      0.0000      0.0000      1.0000      0.0000
      133        4     -3.6130      0.0000      0.0000      1.0000      0.0000
      134        4     -4.3908      0.0000      0.0000      1.0000      0.0000
      135        4     -3.2174      0.0000      0.0000      1.0000      0.0000
      136        4     -2.2836      0.0000      0.0000      1.0000      0.0000
      137        4     -1.4636     48.7331     61.7218      0.9138      0.0943
      138        4     -2.4092      0.0000      0.0000      1.0000      0.0000
      139        4     -2.2836      0.0000      0.0000      1.0000      0.0000
      140        4     -3.2174      0.0000      0.0000      1.0000      0.0000
      141        4     -4.3908      0.0000      0.0000      1.0000      0.0000
      142        4     -3.6130      0.0000      0.0000      1.0000      0.0000
      143        4     -2.4092      0.0000      0.0000      1.0000      0.0000
      144        4     -1.4636     48.7317     61.7234      0.9138      0.0943
      145        4     -1.1730     53.1338     73.1173      1.0176     -0.0173
      146        4     -1.4636     48.7327     61.7225      0.9138      0.0943
      147        4     -2.7070      0.0000      0.0000      1.0000      0.0000
      148        4     -3.6130      0.0000      0.0000      1.0000      0.0000
      149        4     -3.1516      0.0000      0.0000      1.0000      0.0000
      150        4     -1.7220     15.2422    121.8436      1.1440     -0.1259
      151        4     -1.4636     44.7444     70.6527      0.9955      0.0045
      152        4     -2.2836      0.0000      0.0000      1.0000      0.0000
      153        4     -3.2174      0.0000      0.0000      1.0000      0.0000
      154        4     -4.3908      0.0000      0.0000      1.0000      0.0000
      155        4     -3.6130      0.0000      0.0000      1.0000      0.0000
      156        4     -2.4092      0.0000      0.0000      1.0000      0.0000
      157        4     -2.7070      0.0000      0.0000      1.0000      0.0000
      158        4     -3.2174      0.0000      0.0000      1.0000      0.0000
      159        4     -2.7070      0.0000      0.0000      1.0000      0.0000
      160        4     -3.2174      0.0000      0.0000      1.0000      0.0000
      161        4     -2.7070      0.0000      0.0000      1.0000      0.0000
      162        4     -3.2174      0.0000      0.0000      1.0000      0.0000
      163        4     -3.6130      0.0000      0.0000      1.0000      0.0000
      164        4     -4.3908      0.0000      0.0000      1.0000      0.0000
      165        4     -3.2174      0.0000      0.0000      1.0000      0.0000
      166        4     -2.2836      0.0000      0.0000      1.0000      0.0000
      167        4     -1.4636     44.7446     70.6539      0.9955      0.0045
      168        4     -2.4092      0.0000      0.0000      1.0000      0.0000
      169        4     -3.1516      0.0000      0.0000      1.0000      0.0000
      170        4     -3.6130      0.0000      0.0000      1.0000      0.0000
      171        4     -2.7070      0.0000      0.0000      1.0000      0.0000
      172        4     -1.4636     48.7331     61.7218      0.9138      0.0943
      173        4     -1.1730     53.1356     73.1252      1.0176     -0.0173
      174        4     -1.7220     15.2426    121.8443      1.1440     -0.1259
      175        4     -1.7220     13.9989    125.8954      1.1228     -0.1094
      176        4     -2.4092      0.0000      0.0000      1.0000      0.0000
      177        4     -3.2174      0.0000      0.0000      1.0000      0.0000
      178        4     -2.4092      0.0000      0.0000      1.0000      0.0000
      179        4     -1.7220     14.0005    125.8952      1.1228     -0.1093
      180        4     -0.4858     46.0199    141.0798      2.1459     -0.5340
      181        4     -0.3746     85.0555     72.5962      1.0829     -0.0766
      182        4     -0.4858     46.0187    141.0469      2.1453     -0.5339
      183        4     -1.4636     48.7332     61.7222      0.9138      0.0943
      184        4     -2.2836      0.0000      0.0000      1.0000      0.0000
      185        4     -1.7220     15.2422    121.8436      1.1440     -0.1259
      186        4     -1.0239     68.4960     47.4969      0.9554      0.0467
      187        4     -0.4858     32.6643    129.9041      1.5819     -0.3679
      188        4     -1.7220     15.2383    121.8311      1.1440     -0.1258
      189        4     -2.4092      0.0000      0.0000      1.0000      0.0000
      190        4     -3.2174      0.0000      0.0000      1.0000      0.0000
      191        4     -2.4092      0.0000      0.0000      1.0000      0.0000
      192        4     -1.7220     12.2256    126.2645      1.1877     -0.1580
      193        4     -1.4636     48.5093     64.4735      0.9247      0.0814
      194        4     -2.4092      0.0000      0.0000      1.0000      0.0000
      195        4     -3.6130      0.0000      0.0000      1.0000      0.0000
      196        4     -4.3908      0.0000      0.0000      1.0000      0.0000
      197        4     -3.2174      0.0000      0.0000      1.0000      0.0000
      198        4     -2.2836      0.0000      0.0000      1.0000      0.0000
      199        4     -2.2836      0.0000      0.0000      1.0000      0.0000
      200        4     -3.2174      0.0000      0.0000      1.0000      0.0000
      201        4     -4.3908      0.0000      0.0000      1.0000      0.0000
      202        4     -3.6130      0.0000      0.0000      1.0000      0.0000
      203        4     -2.4092      0.0000      0.0000      1.0000      0.0000
      204        4     -1.4636     48.5080     64.4729      0.9247      0.0815
      205        4     -1.7220     12.2272    126.2700      1.1877     -0.1581
      206        4     -2.4092      0.0000      0.0000      1.0000      0.0000
      207        4     -3.2174      0.0000      0.0000      1.0000      0.0000
      208        4     -2.4092      0.0000      0.0000      1.0000      0.0000
      209        4     -1.7220     15.2426    121.8443      1.1440     -0.1259
      210        4     -0.4858     32.6636    129.9324      1.5822     -0.3680
      211        4     -1.0239     68.4958     47.4967      0.9554      0.0467
      212        4     -1.7220     15.2402    121.8362      1.1440     -0.1258
      213        4     -2.2836      0.0000      0.0000      1.0000      0.0000
      214        4     -1.4636     48.7317     61.7234      0.9138      0.0943
      215        4     -0.4858     46.0199    141.0798      2.1459     -0.5340
      216        4     -0.3746     85.0629     72.5981      1.0829     -0.0766
  
     ===================================================================
     Memory usage:  VmHWM =        20Mb
                   VmPeak =       268Mb
     ===================================================================

 
     Unfolding on the coarse grid
     elphon_wrap  :      0.00s CPU      0.00s WALL (       1 calls)
 
     INITIALIZATION: 
 
 
 
     Electron-Phonon interpolation
     ephwann      :      2.59s CPU      2.77s WALL (       1 calls)
     ep-interp    :      2.37s CPU      2.55s WALL (     216 calls)
 
     DynW2B       :      0.01s CPU      0.01s WALL (     216 calls)
     HamW2B       :      0.92s CPU      1.00s WALL (   93744 calls)
     ephW2Bp      :      0.07s CPU      0.14s WALL (     216 calls)
 
 
     Total program execution
     EPW          :     2.59s CPU         2.77s WALL

                                                                                          
 Please consider citing:                                                                  
 S. Ponce, E. R. Margine, C. Verdi and F. Giustino, Comput. Phys. Commun. 209, 116 (2016) 
                                                                                          
 In addition, if you used anisotropic Eliashberg superconductivity please cite:           
              E. R. Margine and F. Giustino, Phys. Rev. B 87, 024505 (2013)               
              if you used transport properties (scattering rates, mobility) please cite:  
              S. Ponce, E. R. Margine and F. Giustino, Phys. Rev. B 97, 121201 (2018)     
