
     Program PWSCF v.6.7GPU starts on  6Feb2021 at  3: 6:25 

     This program is part of the open-source Quantum ESPRESSO suite
     for quantum simulation of materials; please cite
         "P. Giannozzi et al., J. Phys.:Condens. Matter 21 395502 (2009);
         "P. Giannozzi et al., J. Phys.:Condens. Matter 29 465901 (2017);
         "P. Giannozzi et al., J. Chem. Phys. 152 154105 (2020);
          URL http://www.quantum-espresso.org", 
     in publications or presentations arising from this work. More details at
     http://www.quantum-espresso.org/quote

     Parallel version (MPI), running on     4 processors

     MPI processes distributed on     1 nodes
     R & G space division:  proc/nbgrp/npool/nimage =       4
     Reading input from vc-relax-scf-1.in

     Current dimensions of program PWSCF are:
     Max number of different atomic species (ntypx) = 10
     Max number of k-points (npk) =  40000
     Max angular momentum in pseudopotentials (lmaxx) =  3

     gamma-point specific algorithms are used

     Subspace diagonalization in iterative solution of the eigenvalue problem:
     a serial algorithm will be used

 
     Parallelization info
     --------------------
     sticks:   dense  smooth     PW     G-vecs:    dense   smooth      PW
     Min          86      86     20                 1039     1039     130
     Max          89      89     22                 1040     1040     134
     Sum         349     349     85                 4159     4159     531
 
     Using Slab Decomposition
 


     bravais-lattice index     =           14
     lattice parameter (alat)  =       7.0103  a.u.
     unit-cell volume          =     245.3705 (a.u.)^3
     number of atoms/cell      =            2
     number of atomic types    =            1
     number of electrons       =        10.00
     number of Kohn-Sham states=            9
     kinetic-energy cutoff     =      25.0000  Ry
     charge density cutoff     =     100.0000  Ry
     scf convergence threshold =      1.0E-07
     mixing beta               =       0.7000
     number of iterations used =            8  plain     mixing
     energy convergence thresh.=      1.0E-04
     force convergence thresh. =      1.0E-03
     press convergence thresh. =      5.0E-01
     Exchange-correlation= SLA  PZ   NOGX NOGC
                           (   1   1   0   0   0   0   0)
     nstep                     =           50


     celldm(1)=   7.010336  celldm(2)=   1.000000  celldm(3)=   1.000000
     celldm(4)=   0.495175  celldm(5)=   0.495175  celldm(6)=   0.495175

     crystal axes: (cart. coord. in units of alat)
               a(1) = (   1.000000   0.000000   0.000000 )  
               a(2) = (   0.495175   0.868793   0.000000 )  
               a(3) = (   0.495175   0.287729   0.819765 )  

     reciprocal axes: (cart. coord. in units 2 pi/alat)
               b(1) = (  1.000000 -0.569957 -0.403996 )  
               b(2) = (  0.000000  1.151022 -0.403996 )  
               b(3) = (  0.000000  0.000000  1.219862 )  


     PseudoPot. # 1 for As read from file:
     /home/fdossantos/codes/gitlab_q-e_develop/test-suite/..//pseudo/As.pz-bhs.UPF
     MD5 check sum: 2c53d8691f3db84e0fbdf898b12bc293
     Pseudo is Norm-conserving, Zval =  5.0
     Generated by new atomic code, or converted to UPF format
     Using radial grid of  525 points,  2 beta functions with: 
                l(1) =   0
                l(2) =   1

     atomic species   valence    mass     pseudopotential
        As             5.00    74.90000     As( 1.00)

      cell mass =   0.00700 AMU/(a.u.)^2 

      2 Sym. Ops., with inversion, found



   Cartesian axes

     site n.     atom                  positions (alat units)
         1           As  tau(   1) = (   0.2900100   0.2900100   0.2900100  )
         2           As  tau(   2) = (  -0.2900100  -0.2900100  -0.2900100  )

     number of k points=     1  Methfessel-Paxton smearing, width (Ry)=  0.0050
                       cart. coord. in units 2pi/alat
        k(    1) = (   0.0000000   0.0000000   0.0000000), wk =   2.0000000

     Dense  grid:     2080 G-vectors     FFT dimensions: (  24,  24,  24)

     Estimated max dynamical RAM per process >       0.65 MB

     Estimated total dynamical RAM >       2.60 MB

     Initial potential from superposition of free atoms

     starting charge    9.99960, renormalised to   10.00000
     Starting wfcs are    8 randomized atomic wfcs +    1 random wfcs

     total cpu time spent up to now is        0.0 secs

     Self-consistent Calculation

     iteration #  1     ecut=    25.00 Ry     beta= 0.70
     Davidson diagonalization with overlap
     ethr =  1.00E-02,  avg # of iterations =  5.0

     total cpu time spent up to now is        0.0 secs

     total energy              =     -23.07861408 Ry
     estimated scf accuracy    <       0.62968249 Ry

     iteration #  2     ecut=    25.00 Ry     beta= 0.70
     Davidson diagonalization with overlap
     ethr =  6.30E-03,  avg # of iterations =  2.0

     total cpu time spent up to now is        0.0 secs

     total energy              =     -23.19760945 Ry
     estimated scf accuracy    <       0.02895699 Ry

     iteration #  3     ecut=    25.00 Ry     beta= 0.70
     Davidson diagonalization with overlap
     ethr =  2.90E-04,  avg # of iterations =  2.0

     total cpu time spent up to now is        0.0 secs

     total energy              =     -23.20399076 Ry
     estimated scf accuracy    <       0.00164576 Ry

     iteration #  4     ecut=    25.00 Ry     beta= 0.70
     Davidson diagonalization with overlap
     ethr =  1.65E-05,  avg # of iterations =  4.0

     total cpu time spent up to now is        0.0 secs

     total energy              =     -23.20479639 Ry
     estimated scf accuracy    <       0.00012891 Ry

     iteration #  5     ecut=    25.00 Ry     beta= 0.70
     Davidson diagonalization with overlap
     ethr =  1.29E-06,  avg # of iterations =  2.0

     total cpu time spent up to now is        0.0 secs

     total energy              =     -23.20482492 Ry
     estimated scf accuracy    <       0.00000484 Ry

     iteration #  6     ecut=    25.00 Ry     beta= 0.70
     Davidson diagonalization with overlap
     ethr =  4.84E-08,  avg # of iterations =  3.0

     total cpu time spent up to now is        0.0 secs

     total energy              =     -23.20482644 Ry
     estimated scf accuracy    <       0.00000065 Ry

     iteration #  7     ecut=    25.00 Ry     beta= 0.70
     Davidson diagonalization with overlap
     ethr =  6.49E-09,  avg # of iterations =  2.0

     total cpu time spent up to now is        0.0 secs

     total energy              =     -23.20482655 Ry
     estimated scf accuracy    <       0.00000036 Ry

     iteration #  8     ecut=    25.00 Ry     beta= 0.70
     Davidson diagonalization with overlap
     ethr =  3.55E-09,  avg # of iterations =  1.0

     total cpu time spent up to now is        0.0 secs

     End of self-consistent calculation

          k = 0.0000 0.0000 0.0000 (   266 PWs)   bands (ev):

    -7.7478   4.5693   6.8302   7.5466   8.0697  10.1839  13.2750  14.3345
    15.1417

     the Fermi energy is     9.7595 ev

!    total energy              =     -23.20482661 Ry
     estimated scf accuracy    <          4.6E-09 Ry
     smearing contrib. (-TS)   =       0.00000000 Ry
     internal energy E=F+TS    =     -23.20482661 Ry

     convergence has been achieved in   8 iterations

     Forces acting on atoms (cartesian axes, Ry/au):

     atom    1 type  1   force =     0.41672165    1.56259969   -1.42723182
     atom    2 type  1   force =    -0.41672165   -1.56259969    1.42723182

     Total force =     3.050366     Total SCF correction =     0.000025


     Computing stress (Cartesian axis) and pressure

          total   stress  (Ry/bohr**3)                   (kbar)     P=     2824.69
   0.00949070   0.00449605  -0.00327222         1396.13      661.39     -481.36
   0.00449605   0.02745473  -0.01270854          661.39     4038.73    -1869.49
  -0.00327222  -0.01270854   0.02066022         -481.36    -1869.49     3039.22


     Wentzcovitch Damped Cell Dynamics Minimization:
     convergence thresholds EPSE = 1.00E-04  EPSF = 1.00E-03

     Entering Dynamics;  it =     1   time =  0.00000 pico-seconds

  new lattice vectors (alat unit) :
   1.090936623   0.043079658  -0.031353273
   0.577631538   1.118671852  -0.121317386
   0.526897156   0.284929125   0.931483051
  new unit-cell volume =    400.2927 (a.u.)^3
  new positions in cryst coord
As       0.010772940   0.291090165   0.299203249
As      -0.010772940  -0.291090165  -0.299203249
  new positions in cart coord (alat unit)
As       0.337544796   0.411350188   0.243050690
As      -0.337544796  -0.411350188  -0.243050690

     Ekin =     0.00000000 Ry    T =    0.0 K  Etot =      -23.20482661
     new unit-cell volume =    400.29266 a.u.^3 (    59.31725 Ang^3 )
     density =      4.19353 g/cm^3

CELL_PARAMETERS (alat=  7.01033620)
   1.090936623   0.043079658  -0.031353273
   0.577631538   1.118671852  -0.121317386
   0.526897156   0.284929125   0.931483051

ATOMIC_POSITIONS (alat)
As            0.3375447959        0.4113501884        0.2430506900
As           -0.3375447959       -0.4113501884       -0.2430506900



     Writing output data file ./pwscf.save/
     NEW-OLD atomic charge density approx. for the potential
     extrapolated charge   13.87007, renormalised to   10.00000

     total cpu time spent up to now is        0.0 secs

     Self-consistent Calculation

     iteration #  1     ecut=    25.00 Ry     beta= 0.70
     Davidson diagonalization with overlap
     ethr =  1.00E-06,  avg # of iterations = 15.0

     total cpu time spent up to now is        0.1 secs

     total energy              =     -24.12588661 Ry
     estimated scf accuracy    <       1.23521129 Ry

     iteration #  2     ecut=    25.00 Ry     beta= 0.70
     Davidson diagonalization with overlap
     ethr =  1.00E-02,  avg # of iterations =  2.0

     total cpu time spent up to now is        0.1 secs

     total energy              =     -24.87387758 Ry
     estimated scf accuracy    <       0.49117470 Ry

     iteration #  3     ecut=    25.00 Ry     beta= 0.70
     Davidson diagonalization with overlap
     ethr =  4.91E-03,  avg # of iterations =  1.0

     total cpu time spent up to now is        0.1 secs

     total energy              =     -24.87918423 Ry
     estimated scf accuracy    <       0.06264910 Ry

     iteration #  4     ecut=    25.00 Ry     beta= 0.70
     Davidson diagonalization with overlap
     ethr =  6.26E-04,  avg # of iterations =  2.0

     total cpu time spent up to now is        0.1 secs

     total energy              =     -24.89019006 Ry
     estimated scf accuracy    <       0.00390947 Ry

     iteration #  5     ecut=    25.00 Ry     beta= 0.70
     Davidson diagonalization with overlap
     ethr =  3.91E-05,  avg # of iterations =  4.0

     total cpu time spent up to now is        0.1 secs

     total energy              =     -24.89104047 Ry
     estimated scf accuracy    <       0.01031701 Ry

     iteration #  6     ecut=    25.00 Ry     beta= 0.70
     Davidson diagonalization with overlap
     ethr =  3.91E-05,  avg # of iterations =  1.0

     total cpu time spent up to now is        0.1 secs

     total energy              =     -24.89121065 Ry
     estimated scf accuracy    <       0.00762295 Ry

     iteration #  7     ecut=    25.00 Ry     beta= 0.70
     Davidson diagonalization with overlap
     ethr =  3.91E-05,  avg # of iterations =  1.0

     total cpu time spent up to now is        0.1 secs

     total energy              =     -24.89181892 Ry
     estimated scf accuracy    <       0.00007044 Ry

     iteration #  8     ecut=    25.00 Ry     beta= 0.70
     Davidson diagonalization with overlap
     ethr =  7.04E-07,  avg # of iterations =  5.0

     total cpu time spent up to now is        0.1 secs

     total energy              =     -24.89186969 Ry
     estimated scf accuracy    <       0.00001183 Ry

     iteration #  9     ecut=    25.00 Ry     beta= 0.70
     Davidson diagonalization with overlap
     ethr =  1.18E-07,  avg # of iterations =  2.0

     total cpu time spent up to now is        0.1 secs

     total energy              =     -24.89187225 Ry
     estimated scf accuracy    <       0.00000076 Ry

     iteration # 10     ecut=    25.00 Ry     beta= 0.70
     Davidson diagonalization with overlap
     ethr =  7.55E-09,  avg # of iterations =  3.0

     total cpu time spent up to now is        0.1 secs

     total energy              =     -24.89187238 Ry
     estimated scf accuracy    <       0.00000012 Ry

     iteration # 11     ecut=    25.00 Ry     beta= 0.70
     Davidson diagonalization with overlap
     ethr =  1.20E-09,  avg # of iterations =  2.0

     total cpu time spent up to now is        0.1 secs

     End of self-consistent calculation

          k = 0.0000 0.0000 0.0000 (   266 PWs)   bands (ev):

    -8.4251  -2.4099   0.6712   3.3465   4.3610   5.3190   5.3261   7.6525
     9.2704

     the Fermi energy is     4.8890 ev

!    total energy              =     -24.89187241 Ry
     estimated scf accuracy    <          4.5E-09 Ry
     smearing contrib. (-TS)   =       0.00000000 Ry
     internal energy E=F+TS    =     -24.89187241 Ry

     convergence has been achieved in  11 iterations

     Forces acting on atoms (cartesian axes, Ry/au):

     atom    1 type  1   force =     0.06747787    0.02823945   -0.03218339
     atom    2 type  1   force =    -0.06747787   -0.02823945    0.03218339

     Total force =     0.113018     Total SCF correction =     0.000063


     Computing stress (Cartesian axis) and pressure

          total   stress  (Ry/bohr**3)                   (kbar)     P=      200.05
   0.00119928  -0.00184372  -0.00090989          176.42     -271.22     -133.85
  -0.00184372   0.00156606   0.00060323         -271.22      230.38       88.74
  -0.00090989   0.00060323   0.00131447         -133.85       88.74      193.37


     Entering Dynamics;  it =     2   time =  0.00726 pico-seconds

  new lattice vectors (alat unit) :
   1.214975598   0.029155168  -0.028959342
   0.571223805   1.091086208  -0.099075119
   0.569318145   0.286960528   1.052339960
  new unit-cell volume =    490.4753 (a.u.)^3
  new positions in cryst coord
As       0.011374325   0.240195213   0.334770164
As      -0.011374325  -0.240195213  -0.334770164
  new positions in cart coord (alat unit)
As       0.341615480   0.358471128   0.328165259
As      -0.341615480  -0.358471128  -0.328165259

     Ekin =     4.47006948 Ry    T = ****** K  Etot =      -20.42180293
     new unit-cell volume =    490.47528 a.u.^3 (    72.68094 Ang^3 )
     density =      3.42248 g/cm^3

CELL_PARAMETERS (alat=  7.01033620)
   1.214975598   0.029155168  -0.028959342
   0.571223805   1.091086208  -0.099075119
   0.569318145   0.286960528   1.052339960

ATOMIC_POSITIONS (alat)
As            0.3416154800        0.3584711276        0.3281652586
As           -0.3416154800       -0.3584711276       -0.3281652586



     Writing output data file ./pwscf.save/
     NEW-OLD atomic charge density approx. for the potential

     negative rho (up, down):  2.314E-06 0.000E+00
     extrapolated charge   11.83860, renormalised to   10.00000

     total cpu time spent up to now is        0.1 secs

     Self-consistent Calculation

     iteration #  1     ecut=    25.00 Ry     beta= 0.70
     Davidson diagonalization with overlap
     ethr =  1.00E-06,  avg # of iterations = 11.0

     total cpu time spent up to now is        0.1 secs

     total energy              =     -24.81294083 Ry
     estimated scf accuracy    <       0.29494488 Ry

     iteration #  2     ecut=    25.00 Ry     beta= 0.70
     Davidson diagonalization with overlap
     ethr =  2.95E-03,  avg # of iterations =  2.0

     total cpu time spent up to now is        0.1 secs

     total energy              =     -24.93664911 Ry
     estimated scf accuracy    <       0.29091136 Ry

     iteration #  3     ecut=    25.00 Ry     beta= 0.70
     Davidson diagonalization with overlap
     ethr =  2.91E-03,  avg # of iterations =  1.0

     total cpu time spent up to now is        0.1 secs

     total energy              =     -24.94661683 Ry
     estimated scf accuracy    <       0.03096838 Ry

     iteration #  4     ecut=    25.00 Ry     beta= 0.70
     Davidson diagonalization with overlap
     ethr =  3.10E-04,  avg # of iterations =  1.0

     total cpu time spent up to now is        0.1 secs

     total energy              =     -24.94635849 Ry
     estimated scf accuracy    <       0.27413790 Ry

     iteration #  5     ecut=    25.00 Ry     beta= 0.70
     Davidson diagonalization with overlap
     ethr =  3.10E-04,  avg # of iterations =  1.0

     total cpu time spent up to now is        0.1 secs

     total energy              =     -24.94743750 Ry
     estimated scf accuracy    <       0.02868974 Ry

     iteration #  6     ecut=    25.00 Ry     beta= 0.70
     Davidson diagonalization with overlap
     ethr =  2.87E-04,  avg # of iterations =  1.0

     total cpu time spent up to now is        0.1 secs

     total energy              =     -24.94992465 Ry
     estimated scf accuracy    <       0.00756066 Ry

     iteration #  7     ecut=    25.00 Ry     beta= 0.70
     Davidson diagonalization with overlap
     ethr =  7.56E-05,  avg # of iterations =  1.0

     total cpu time spent up to now is        0.1 secs

     total energy              =     -24.94894128 Ry
     estimated scf accuracy    <       0.01129048 Ry

     iteration #  8     ecut=    25.00 Ry     beta= 0.70
     Davidson diagonalization with overlap
     ethr =  7.56E-05,  avg # of iterations =  1.0

     total cpu time spent up to now is        0.1 secs

     total energy              =     -24.94947068 Ry
     estimated scf accuracy    <       0.00008653 Ry

     iteration #  9     ecut=    25.00 Ry     beta= 0.70
     Davidson diagonalization with overlap
     ethr =  8.65E-07,  avg # of iterations =  2.0

     total cpu time spent up to now is        0.1 secs

     total energy              =     -24.94948659 Ry
     estimated scf accuracy    <       0.00008497 Ry

     iteration # 10     ecut=    25.00 Ry     beta= 0.70
     Davidson diagonalization with overlap
     ethr =  8.50E-07,  avg # of iterations =  1.0

     total cpu time spent up to now is        0.1 secs

     total energy              =     -24.94949315 Ry
     estimated scf accuracy    <       0.00001089 Ry

     iteration # 11     ecut=    25.00 Ry     beta= 0.70
     Davidson diagonalization with overlap
     ethr =  1.09E-07,  avg # of iterations =  1.0

     total cpu time spent up to now is        0.1 secs

     total energy              =     -24.94949354 Ry
     estimated scf accuracy    <       0.00000632 Ry

     iteration # 12     ecut=    25.00 Ry     beta= 0.70
     Davidson diagonalization with overlap
     ethr =  6.32E-08,  avg # of iterations =  1.0

     total cpu time spent up to now is        0.1 secs

     total energy              =     -24.94949372 Ry
     estimated scf accuracy    <       0.00000018 Ry

     iteration # 13     ecut=    25.00 Ry     beta= 0.70
     Davidson diagonalization with overlap
     ethr =  1.76E-09,  avg # of iterations =  4.0

     total cpu time spent up to now is        0.1 secs

     End of self-consistent calculation

          k = 0.0000 0.0000 0.0000 (   266 PWs)   bands (ev):

    -9.9739  -4.3338  -0.9748   1.5906   2.2323   2.2467   3.8249   6.7115
     7.1466

     the Fermi energy is     2.2395 ev

!    total energy              =     -24.94949380 Ry
     estimated scf accuracy    <       0.00000004 Ry
     smearing contrib. (-TS)   =      -0.00272703 Ry
     internal energy E=F+TS    =     -24.94676677 Ry

     convergence has been achieved in  13 iterations

     Forces acting on atoms (cartesian axes, Ry/au):

     atom    1 type  1   force =     0.00637169    0.00638124   -0.00979284
     atom    2 type  1   force =    -0.00637169   -0.00638124    0.00979284

     Total force =     0.018826     Total SCF correction =     0.000127


     Computing stress (Cartesian axis) and pressure

          total   stress  (Ry/bohr**3)                   (kbar)     P=      107.17
   0.00105056  -0.00070973  -0.00035349          154.54     -104.40      -52.00
  -0.00070973   0.00079803   0.00061201         -104.40      117.39       90.03
  -0.00035349   0.00061201   0.00033700          -52.00       90.03       49.57


     Entering Dynamics;  it =     3   time =  0.01451 pico-seconds

  new lattice vectors (alat unit) :
   1.214421153   0.043457231  -0.035738442
   0.583575746   1.137783195  -0.112362907
   0.564053841   0.297791789   1.001233158
  new unit-cell volume =    486.6942 (a.u.)^3
  new positions in cryst coord
As       0.012863501   0.250472132   0.322903702
As      -0.012863501  -0.250472132  -0.322903702
  new positions in cart coord (alat unit)
As       0.343926243   0.381700066   0.294698395
As      -0.343926243  -0.381700066  -0.294698395

     Ekin =     1.56495030 Ry    T = ****** K  Etot =      -23.38454350
     new unit-cell volume =    486.69416 a.u.^3 (    72.12063 Ang^3 )
     density =      3.44906 g/cm^3

CELL_PARAMETERS (alat=  7.01033620)
   1.214421153   0.043457231  -0.035738442
   0.583575746   1.137783195  -0.112362907
   0.564053841   0.297791789   1.001233158

ATOMIC_POSITIONS (alat)
As            0.3439262431        0.3817000660        0.2946983950
As           -0.3439262431       -0.3817000660       -0.2946983950



     Writing output data file ./pwscf.save/
     NEW-OLD atomic charge density approx. for the potential
     extrapolated charge    9.92231, renormalised to   10.00000

     total cpu time spent up to now is        0.1 secs

     Self-consistent Calculation

     iteration #  1     ecut=    25.00 Ry     beta= 0.70
     Davidson diagonalization with overlap
     ethr =  1.00E-06,  avg # of iterations = 10.0

     total cpu time spent up to now is        0.1 secs

     total energy              =     -24.94437647 Ry
     estimated scf accuracy    <       0.02749453 Ry

     iteration #  2     ecut=    25.00 Ry     beta= 0.70
     Davidson diagonalization with overlap
     ethr =  2.75E-04,  avg # of iterations =  2.0

     total cpu time spent up to now is        0.1 secs

     total energy              =     -24.92931998 Ry
     estimated scf accuracy    <       0.09403814 Ry

     iteration #  3     ecut=    25.00 Ry     beta= 0.70
     Davidson diagonalization with overlap
     ethr =  2.75E-04,  avg # of iterations =  2.0

     total cpu time spent up to now is        0.1 secs

     total energy              =     -24.94615934 Ry
     estimated scf accuracy    <       0.24511241 Ry

     iteration #  4     ecut=    25.00 Ry     beta= 0.70
     Davidson diagonalization with overlap
     ethr =  2.75E-04,  avg # of iterations =  1.0

     total cpu time spent up to now is        0.1 secs

     total energy              =     -24.95252711 Ry
     estimated scf accuracy    <       0.00971511 Ry

     iteration #  5     ecut=    25.00 Ry     beta= 0.70
     Davidson diagonalization with overlap
     ethr =  9.72E-05,  avg # of iterations =  1.0

     total cpu time spent up to now is        0.1 secs

     total energy              =     -24.95094448 Ry
     estimated scf accuracy    <       0.00686768 Ry

     iteration #  6     ecut=    25.00 Ry     beta= 0.70
     Davidson diagonalization with overlap
     ethr =  6.87E-05,  avg # of iterations =  1.0

     total cpu time spent up to now is        0.1 secs

     total energy              =     -24.95072472 Ry
     estimated scf accuracy    <       0.00207514 Ry

     iteration #  7     ecut=    25.00 Ry     beta= 0.70
     Davidson diagonalization with overlap
     ethr =  2.08E-05,  avg # of iterations =  1.0

     total cpu time spent up to now is        0.1 secs

     total energy              =     -24.95103361 Ry
     estimated scf accuracy    <       0.00020937 Ry

     iteration #  8     ecut=    25.00 Ry     beta= 0.70
     Davidson diagonalization with overlap
     ethr =  2.09E-06,  avg # of iterations =  4.0

     total cpu time spent up to now is        0.1 secs

     total energy              =     -24.95106390 Ry
     estimated scf accuracy    <       0.00034914 Ry

     iteration #  9     ecut=    25.00 Ry     beta= 0.70
     Davidson diagonalization with overlap
     ethr =  2.09E-06,  avg # of iterations =  1.0

     total cpu time spent up to now is        0.1 secs

     total energy              =     -24.95107787 Ry
     estimated scf accuracy    <       0.00002760 Ry

     iteration # 10     ecut=    25.00 Ry     beta= 0.70
     Davidson diagonalization with overlap
     ethr =  2.76E-07,  avg # of iterations =  1.0

     total cpu time spent up to now is        0.1 secs

     total energy              =     -24.95107225 Ry
     estimated scf accuracy    <       0.00022513 Ry

     iteration # 11     ecut=    25.00 Ry     beta= 0.70
     Davidson diagonalization with overlap
     ethr =  2.76E-07,  avg # of iterations =  1.0

     total cpu time spent up to now is        0.1 secs

     total energy              =     -24.95107003 Ry
     estimated scf accuracy    <       0.00005796 Ry

     iteration # 12     ecut=    25.00 Ry     beta= 0.70
     Davidson diagonalization with overlap
     ethr =  2.76E-07,  avg # of iterations =  1.0

     total cpu time spent up to now is        0.1 secs

     total energy              =     -24.95107228 Ry
     estimated scf accuracy    <       0.00000119 Ry

     iteration # 13     ecut=    25.00 Ry     beta= 0.70
     Davidson diagonalization with overlap
     ethr =  1.19E-08,  avg # of iterations =  2.0

     total cpu time spent up to now is        0.1 secs

     End of self-consistent calculation

          k = 0.0000 0.0000 0.0000 (   266 PWs)   bands (ev):

    -9.6858  -4.3892  -0.9674   1.8708   2.4528   2.5563   3.7295   6.7661
     7.0256

     the Fermi energy is     2.5045 ev

!    total energy              =     -24.95107237 Ry
     estimated scf accuracy    <          4.9E-09 Ry
     smearing contrib. (-TS)   =       0.00024790 Ry
     internal energy E=F+TS    =     -24.95132027 Ry

     convergence has been achieved in  13 iterations

     Forces acting on atoms (cartesian axes, Ry/au):

     atom    1 type  1   force =     0.04805307    0.10767336   -0.05625131
     atom    2 type  1   force =    -0.04805307   -0.10767336    0.05625131

     Total force =     0.184753     Total SCF correction =     0.000027


     Computing stress (Cartesian axis) and pressure

          total   stress  (Ry/bohr**3)                   (kbar)     P=       82.88
   0.00055825  -0.00116052  -0.00052242           82.12     -170.72      -76.85
  -0.00116052   0.00036624   0.00021559         -170.72       53.88       31.71
  -0.00052242   0.00021559   0.00076573          -76.85       31.71      112.64


     Entering Dynamics;  it =     4   time =  0.02177 pico-seconds

  new lattice vectors (alat unit) :
   1.221720743   0.037262538  -0.046547772
   0.579592315   1.135583062  -0.126727536
   0.561220291   0.295136960   1.008078130
  new unit-cell volume =    496.6448 (a.u.)^3
  new positions in cryst coord
As       0.014207717   0.264865840   0.317906755
As      -0.014207717  -0.264865840  -0.317906755
  new positions in cart coord (alat unit)
As       0.349287789   0.395132610   0.286247714
As      -0.349287789  -0.395132610  -0.286247714

     Ekin =     0.15489327 Ry    T = ****** K  Etot =      -24.79617909
     new unit-cell volume =    496.64479 a.u.^3 (    73.59516 Ang^3 )
     density =      3.37996 g/cm^3

CELL_PARAMETERS (alat=  7.01033620)
   1.221720743   0.037262538  -0.046547772
   0.579592315   1.135583062  -0.126727536
   0.561220291   0.295136960   1.008078130

ATOMIC_POSITIONS (alat)
As            0.3492877893        0.3951326102        0.2862477145
As           -0.3492877893       -0.3951326102       -0.2862477145



     Writing output data file ./pwscf.save/
     NEW-OLD atomic charge density approx. for the potential
     extrapolated charge   10.20035, renormalised to   10.00000

     total cpu time spent up to now is        0.1 secs

     Self-consistent Calculation

     iteration #  1     ecut=    25.00 Ry     beta= 0.70
     Davidson diagonalization with overlap
     ethr =  1.00E-06,  avg # of iterations =  9.0

     total cpu time spent up to now is        0.1 secs

     total energy              =     -24.99585094 Ry
     estimated scf accuracy    <       0.00182495 Ry

     iteration #  2     ecut=    25.00 Ry     beta= 0.70
     Davidson diagonalization with overlap
     ethr =  1.82E-05,  avg # of iterations =  2.0

     total cpu time spent up to now is        0.1 secs

     total energy              =     -24.99693704 Ry
     estimated scf accuracy    <       0.00055102 Ry

     iteration #  3     ecut=    25.00 Ry     beta= 0.70
     Davidson diagonalization with overlap
     ethr =  5.51E-06,  avg # of iterations =  1.0

     total cpu time spent up to now is        0.1 secs

     total energy              =     -24.99690512 Ry
     estimated scf accuracy    <       0.00021690 Ry

     iteration #  4     ecut=    25.00 Ry     beta= 0.70
     Davidson diagonalization with overlap
     ethr =  2.17E-06,  avg # of iterations =  2.0

     total cpu time spent up to now is        0.1 secs

     total energy              =     -24.99686225 Ry
     estimated scf accuracy    <       0.00147615 Ry

     iteration #  5     ecut=    25.00 Ry     beta= 0.70
     Davidson diagonalization with overlap
     ethr =  2.17E-06,  avg # of iterations =  1.0

     total cpu time spent up to now is        0.1 secs

     total energy              =     -24.99697534 Ry
     estimated scf accuracy    <       0.00000359 Ry

     iteration #  6     ecut=    25.00 Ry     beta= 0.70
     Davidson diagonalization with overlap
     ethr =  3.59E-08,  avg # of iterations =  3.0

     total cpu time spent up to now is        0.1 secs

     total energy              =     -24.99697638 Ry
     estimated scf accuracy    <       0.00000055 Ry

     iteration #  7     ecut=    25.00 Ry     beta= 0.70
     Davidson diagonalization with overlap
     ethr =  5.46E-09,  avg # of iterations =  2.0

     total cpu time spent up to now is        0.1 secs

     End of self-consistent calculation

          k = 0.0000 0.0000 0.0000 (   266 PWs)   bands (ev):

    -9.4663  -4.6620  -0.8109   1.8604   1.9962   2.9329   3.5080   6.3408
     6.6407

     the Fermi energy is     2.4082 ev

!    total energy              =     -24.99697647 Ry
     estimated scf accuracy    <       0.00000004 Ry
     smearing contrib. (-TS)   =       0.00000000 Ry
     internal energy E=F+TS    =     -24.99697647 Ry

     convergence has been achieved in   7 iterations

     Forces acting on atoms (cartesian axes, Ry/au):

     atom    1 type  1   force =     0.04734602    0.09140787   -0.02601027
     atom    2 type  1   force =    -0.04734602   -0.09140787    0.02601027

     Total force =     0.150157     Total SCF correction =     0.000142


     Computing stress (Cartesian axis) and pressure

          total   stress  (Ry/bohr**3)                   (kbar)     P=       47.12
   0.00060195  -0.00127613  -0.00057784           88.55     -187.73      -85.00
  -0.00127613   0.00003729   0.00044726         -187.73        5.49       65.79
  -0.00057784   0.00044726   0.00032167          -85.00       65.79       47.32


     Entering Dynamics;  it =     5   time =  0.02903 pico-seconds

  new lattice vectors (alat unit) :
   1.234841743   0.027026950  -0.062152572
   0.573582318   1.132646003  -0.120720096
   0.554393126   0.293745396   1.016335648
  new unit-cell volume =    508.6057 (a.u.)^3
  new positions in cryst coord
As       0.014238873   0.282563661   0.316921261
As      -0.014238873  -0.282563661  -0.316921261
  new positions in cart coord (alat unit)
As       0.355355243   0.413523596   0.287102281
As      -0.355355243  -0.413523596  -0.287102281

     Ekin =     0.08518772 Ry    T = ****** K  Etot =      -24.91178875
     new unit-cell volume =    508.60573 a.u.^3 (    75.36759 Ang^3 )
     density =      3.30047 g/cm^3

CELL_PARAMETERS (alat=  7.01033620)
   1.234841743   0.027026950  -0.062152572
   0.573582318   1.132646003  -0.120720096
   0.554393126   0.293745396   1.016335648

ATOMIC_POSITIONS (alat)
As            0.3553552428        0.4135235955        0.2871022807
As           -0.3553552428       -0.4135235955       -0.2871022807



     Writing output data file ./pwscf.save/
     NEW-OLD atomic charge density approx. for the potential
     extrapolated charge   10.23516, renormalised to   10.00000

     total cpu time spent up to now is        0.2 secs

     Self-consistent Calculation

     iteration #  1     ecut=    25.00 Ry     beta= 0.70
     Davidson diagonalization with overlap
     ethr =  1.00E-06,  avg # of iterations =  9.0

     total cpu time spent up to now is        0.2 secs

     total energy              =     -25.05340058 Ry
     estimated scf accuracy    <       0.00168295 Ry

     iteration #  2     ecut=    25.00 Ry     beta= 0.70
     Davidson diagonalization with overlap
     ethr =  1.68E-05,  avg # of iterations =  2.0

     total cpu time spent up to now is        0.2 secs

     total energy              =     -25.05450279 Ry
     estimated scf accuracy    <       0.00052612 Ry

     iteration #  3     ecut=    25.00 Ry     beta= 0.70
     Davidson diagonalization with overlap
     ethr =  5.26E-06,  avg # of iterations =  1.0

     total cpu time spent up to now is        0.2 secs

     total energy              =     -25.05450152 Ry
     estimated scf accuracy    <       0.00008101 Ry

     iteration #  4     ecut=    25.00 Ry     beta= 0.70
     Davidson diagonalization with overlap
     ethr =  8.10E-07,  avg # of iterations =  2.0

     total cpu time spent up to now is        0.2 secs

     total energy              =     -25.05449160 Ry
     estimated scf accuracy    <       0.00021484 Ry

     iteration #  5     ecut=    25.00 Ry     beta= 0.70
     Davidson diagonalization with overlap
     ethr =  8.10E-07,  avg # of iterations =  1.0

     total cpu time spent up to now is        0.2 secs

     total energy              =     -25.05451796 Ry
     estimated scf accuracy    <       0.00000809 Ry

     iteration #  6     ecut=    25.00 Ry     beta= 0.70
     Davidson diagonalization with overlap
     ethr =  8.09E-08,  avg # of iterations =  2.0

     total cpu time spent up to now is        0.2 secs

     total energy              =     -25.05451882 Ry
     estimated scf accuracy    <       0.00000025 Ry

     iteration #  7     ecut=    25.00 Ry     beta= 0.70
     Davidson diagonalization with overlap
     ethr =  2.45E-09,  avg # of iterations =  4.0

     total cpu time spent up to now is        0.2 secs

     End of self-consistent calculation

          k = 0.0000 0.0000 0.0000 (   266 PWs)   bands (ev):

    -9.4251  -4.8403  -0.6704   1.4331   1.6248   3.2842   3.4285   5.5146
     6.3836

     the Fermi energy is     2.7716 ev

!    total energy              =     -25.05451894 Ry
     estimated scf accuracy    <       0.00000002 Ry
     smearing contrib. (-TS)   =       0.00000000 Ry
     internal energy E=F+TS    =     -25.05451894 Ry

     convergence has been achieved in   7 iterations

     Forces acting on atoms (cartesian axes, Ry/au):

     atom    1 type  1   force =     0.04089571    0.08043185   -0.00861817
     atom    2 type  1   force =    -0.04089571   -0.08043185    0.00861817

     Total force =     0.128187     Total SCF correction =     0.000115


     Computing stress (Cartesian axis) and pressure

          total   stress  (Ry/bohr**3)                   (kbar)     P=       20.00
   0.00066075  -0.00118661  -0.00058934           97.20     -174.56      -86.70
  -0.00118661  -0.00018180   0.00050293         -174.56      -26.74       73.98
  -0.00058934   0.00050293  -0.00007110          -86.70       73.98      -10.46


     Entering Dynamics;  it =     6   time =  0.03628 pico-seconds

  new lattice vectors (alat unit) :
   1.255373242   0.008383497  -0.082627936
   0.563937115   1.127452119  -0.119568687
   0.544823553   0.292183987   1.013216290
  new unit-cell volume =    520.1385 (a.u.)^3
  new positions in cryst coord
As       0.014629002   0.303087585   0.317556823
As      -0.014629002  -0.303087585  -0.317556823
  new positions in cart coord (alat unit)
As       0.362299632   0.434624401   0.284305197
As      -0.362299632  -0.434624401  -0.284305197

     Ekin =     0.13365917 Ry    T = ****** K  Etot =      -24.92085977
     new unit-cell volume =    520.13847 a.u.^3 (    77.07657 Ang^3 )
     density =      3.22729 g/cm^3

CELL_PARAMETERS (alat=  7.01033620)
   1.255373242   0.008383497  -0.082627936
   0.563937115   1.127452119  -0.119568687
   0.544823553   0.292183987   1.013216290

ATOMIC_POSITIONS (alat)
As            0.3622996321        0.4346244007        0.2843051975
As           -0.3622996321       -0.4346244007       -0.2843051975



     Writing output data file ./pwscf.save/
     NEW-OLD atomic charge density approx. for the potential
     extrapolated charge   10.22172, renormalised to   10.00000

     total cpu time spent up to now is        0.2 secs

     Self-consistent Calculation

     iteration #  1     ecut=    25.00 Ry     beta= 0.70
     Davidson diagonalization with overlap
     ethr =  1.00E-06,  avg # of iterations =  9.0

     total cpu time spent up to now is        0.2 secs

     total energy              =     -25.11739289 Ry
     estimated scf accuracy    <       0.00133777 Ry

     iteration #  2     ecut=    25.00 Ry     beta= 0.70
     Davidson diagonalization with overlap
     ethr =  1.34E-05,  avg # of iterations =  2.0

     total cpu time spent up to now is        0.2 secs

     total energy              =     -25.11831032 Ry
     estimated scf accuracy    <       0.00044835 Ry

     iteration #  3     ecut=    25.00 Ry     beta= 0.70
     Davidson diagonalization with overlap
     ethr =  4.48E-06,  avg # of iterations =  1.0

     total cpu time spent up to now is        0.2 secs

     total energy              =     -25.11831624 Ry
     estimated scf accuracy    <       0.00006316 Ry

     iteration #  4     ecut=    25.00 Ry     beta= 0.70
     Davidson diagonalization with overlap
     ethr =  6.32E-07,  avg # of iterations =  2.0

     total cpu time spent up to now is        0.2 secs

     total energy              =     -25.11831973 Ry
     estimated scf accuracy    <       0.00003005 Ry

     iteration #  5     ecut=    25.00 Ry     beta= 0.70
     Davidson diagonalization with overlap
     ethr =  3.00E-07,  avg # of iterations =  1.0

     total cpu time spent up to now is        0.2 secs

     total energy              =     -25.11832577 Ry
     estimated scf accuracy    <       0.00000971 Ry

     iteration #  6     ecut=    25.00 Ry     beta= 0.70
     Davidson diagonalization with overlap
     ethr =  9.71E-08,  avg # of iterations =  1.0

     total cpu time spent up to now is        0.2 secs

     total energy              =     -25.11832685 Ry
     estimated scf accuracy    <       0.00000016 Ry

     iteration #  7     ecut=    25.00 Ry     beta= 0.70
     Davidson diagonalization with overlap
     ethr =  1.64E-09,  avg # of iterations =  4.0

     total cpu time spent up to now is        0.2 secs

     End of self-consistent calculation

          k = 0.0000 0.0000 0.0000 (   266 PWs)   bands (ev):

    -9.5600  -4.9035  -0.4498   0.6969   1.2283   3.4726   3.7972   4.5580
     6.0585

     the Fermi energy is     2.4940 ev

!    total energy              =     -25.11832693 Ry
     estimated scf accuracy    <       0.00000001 Ry
     smearing contrib. (-TS)   =       0.00000000 Ry
     internal energy E=F+TS    =     -25.11832693 Ry

     convergence has been achieved in   7 iterations

     Forces acting on atoms (cartesian axes, Ry/au):

     atom    1 type  1   force =     0.01972559    0.05742859    0.00099706
     atom    2 type  1   force =    -0.01972559   -0.05742859   -0.00099706

     Total force =     0.085885     Total SCF correction =     0.000054


     Computing stress (Cartesian axis) and pressure

          total   stress  (Ry/bohr**3)                   (kbar)     P=        0.17
   0.00062885  -0.00096234  -0.00053689           92.51     -141.56      -78.98
  -0.00096234  -0.00027582   0.00045439         -141.56      -40.57       66.84
  -0.00053689   0.00045439  -0.00034948          -78.98       66.84      -51.41


     Entering Dynamics;  it =     7   time =  0.04354 pico-seconds

  new lattice vectors (alat unit) :
   1.284488457  -0.016267557  -0.107599675
   0.553322988   1.121987033  -0.117338827
   0.534089892   0.293526017   1.011693920
  new unit-cell volume =    537.2475 (a.u.)^3
  new positions in cryst coord
As       0.012153912   0.326411077   0.320623596
As      -0.012153912  -0.326411077  -0.320623596
  new positions in cart coord (alat unit)
As       0.367464133   0.460142649   0.284764493
As      -0.367464133  -0.460142649  -0.284764493

     Ekin =     0.19743092 Ry    T = ****** K  Etot =      -24.92089601
     new unit-cell volume =    537.24750 a.u.^3 (    79.61187 Ang^3 )
     density =      3.12452 g/cm^3

CELL_PARAMETERS (alat=  7.01033620)
   1.284488457  -0.016267557  -0.107599675
   0.553322988   1.121987033  -0.117338827
   0.534089892   0.293526017   1.011693920

ATOMIC_POSITIONS (alat)
As            0.3674641334        0.4601426492        0.2847644928
As           -0.3674641334       -0.4601426492       -0.2847644928



     Writing output data file ./pwscf.save/
     NEW-OLD atomic charge density approx. for the potential

     negative rho (up, down):  4.243E-05 0.000E+00
     extrapolated charge   10.31844, renormalised to   10.00000

     total cpu time spent up to now is        0.2 secs

     Self-consistent Calculation

     iteration #  1     ecut=    25.00 Ry     beta= 0.70
     Davidson diagonalization with overlap
     ethr =  1.00E-06,  avg # of iterations =  9.0

     total cpu time spent up to now is        0.2 secs

     total energy              =     -25.16408404 Ry
     estimated scf accuracy    <       0.00241801 Ry

     iteration #  2     ecut=    25.00 Ry     beta= 0.70
     Davidson diagonalization with overlap
     ethr =  2.42E-05,  avg # of iterations =  3.0

     total cpu time spent up to now is        0.2 secs

     total energy              =     -25.16668452 Ry
     estimated scf accuracy    <       0.00136494 Ry

     iteration #  3     ecut=    25.00 Ry     beta= 0.70
     Davidson diagonalization with overlap
     ethr =  1.36E-05,  avg # of iterations =  1.0

     total cpu time spent up to now is        0.2 secs

     total energy              =     -25.16662981 Ry
     estimated scf accuracy    <       0.00026103 Ry

     iteration #  4     ecut=    25.00 Ry     beta= 0.70
     Davidson diagonalization with overlap
     ethr =  2.61E-06,  avg # of iterations =  2.0

     total cpu time spent up to now is        0.2 secs

     total energy              =     -25.16667589 Ry
     estimated scf accuracy    <       0.00000717 Ry

     iteration #  5     ecut=    25.00 Ry     beta= 0.70
     Davidson diagonalization with overlap
     ethr =  7.17E-08,  avg # of iterations =  4.0

     total cpu time spent up to now is        0.2 secs

     total energy              =     -25.16667695 Ry
     estimated scf accuracy    <       0.00001434 Ry

     iteration #  6     ecut=    25.00 Ry     beta= 0.70
     Davidson diagonalization with overlap
     ethr =  7.17E-08,  avg # of iterations =  1.0

     total cpu time spent up to now is        0.2 secs

     total energy              =     -25.16667815 Ry
     estimated scf accuracy    <       0.00000088 Ry

     iteration #  7     ecut=    25.00 Ry     beta= 0.70
     Davidson diagonalization with overlap
     ethr =  8.84E-09,  avg # of iterations =  2.0

     total cpu time spent up to now is        0.2 secs

     End of self-consistent calculation

          k = 0.0000 0.0000 0.0000 (   266 PWs)   bands (ev):

    -9.9930  -4.9387  -0.3004  -0.1708   0.6004   3.3636   3.5267   4.3743
     5.5869

     the Fermi energy is     2.0321 ev

!    total energy              =     -25.16667830 Ry
     estimated scf accuracy    <          8.3E-09 Ry
     smearing contrib. (-TS)   =       0.00000000 Ry
     internal energy E=F+TS    =     -25.16667830 Ry

     convergence has been achieved in   7 iterations

     Forces acting on atoms (cartesian axes, Ry/au):

     atom    1 type  1   force =    -0.01315785    0.00174762   -0.00324494
     atom    2 type  1   force =     0.01315785   -0.00174762    0.00324494

     Total force =     0.019324     Total SCF correction =     0.000028


     Computing stress (Cartesian axis) and pressure

          total   stress  (Ry/bohr**3)                   (kbar)     P=       -8.70
   0.00051733  -0.00061940  -0.00038861           76.10      -91.12      -57.17
  -0.00061940  -0.00021208   0.00041242          -91.12      -31.20       60.67
  -0.00038861   0.00041242  -0.00048276          -57.17       60.67      -71.02


     Entering Dynamics;  it =     8   time =  0.05080 pico-seconds

  new lattice vectors (alat unit) :
   1.321648660  -0.043975704  -0.135580766
   0.559459095   1.126977372  -0.113702281
   0.537886502   0.296191045   1.009294951
  new unit-cell volume =    563.3149 (a.u.)^3
  new positions in cryst coord
As       0.013559756   0.334740317   0.309783804
As      -0.013559756  -0.334740317  -0.309783804
  new positions in cart coord (alat unit)
As       0.371823274   0.468403651   0.272764049
As      -0.371823274  -0.468403651  -0.272764049

     Ekin =     0.25069643 Ry    T = ****** K  Etot =      -24.91598187
     new unit-cell volume =    563.31494 a.u.^3 (    83.47466 Ang^3 )
     density =      2.97993 g/cm^3

CELL_PARAMETERS (alat=  7.01033620)
   1.321648660  -0.043975704  -0.135580766
   0.559459095   1.126977372  -0.113702281
   0.537886502   0.296191045   1.009294951

ATOMIC_POSITIONS (alat)
As            0.3718232744        0.4684036514        0.2727640493
As           -0.3718232744       -0.4684036514       -0.2727640493



     Writing output data file ./pwscf.save/
     NEW-OLD atomic charge density approx. for the potential

     negative rho (up, down):  5.268E-04 0.000E+00
     extrapolated charge   10.46273, renormalised to   10.00000

     total cpu time spent up to now is        0.2 secs

     Self-consistent Calculation

     iteration #  1     ecut=    25.00 Ry     beta= 0.70
     Davidson diagonalization with overlap
     ethr =  1.00E-06,  avg # of iterations =  8.0

     total cpu time spent up to now is        0.2 secs

     total energy              =     -25.17873917 Ry
     estimated scf accuracy    <       0.00345242 Ry

     iteration #  2     ecut=    25.00 Ry     beta= 0.70
     Davidson diagonalization with overlap
     ethr =  3.45E-05,  avg # of iterations =  3.0

     total cpu time spent up to now is        0.2 secs

     total energy              =     -25.18527461 Ry
     estimated scf accuracy    <       0.00295564 Ry

     iteration #  3     ecut=    25.00 Ry     beta= 0.70
     Davidson diagonalization with overlap
     ethr =  2.96E-05,  avg # of iterations =  1.0

     total cpu time spent up to now is        0.2 secs

     total energy              =     -25.18500115 Ry
     estimated scf accuracy    <       0.00074905 Ry

     iteration #  4     ecut=    25.00 Ry     beta= 0.70
     Davidson diagonalization with overlap
     ethr =  7.49E-06,  avg # of iterations =  2.0

     total cpu time spent up to now is        0.2 secs

     total energy              =     -25.18508688 Ry
     estimated scf accuracy    <       0.00001218 Ry

     iteration #  5     ecut=    25.00 Ry     beta= 0.70
     Davidson diagonalization with overlap
     ethr =  1.22E-07,  avg # of iterations =  4.0

     total cpu time spent up to now is        0.2 secs

     total energy              =     -25.18509265 Ry
     estimated scf accuracy    <       0.00001195 Ry

     iteration #  6     ecut=    25.00 Ry     beta= 0.70
     Davidson diagonalization with overlap
     ethr =  1.19E-07,  avg # of iterations =  1.0

     total cpu time spent up to now is        0.2 secs

     total energy              =     -25.18509397 Ry
     estimated scf accuracy    <       0.00000107 Ry

     iteration #  7     ecut=    25.00 Ry     beta= 0.70
     Davidson diagonalization with overlap
     ethr =  1.07E-08,  avg # of iterations =  2.0

     total cpu time spent up to now is        0.2 secs

     End of self-consistent calculation

          k = 0.0000 0.0000 0.0000 (   266 PWs)   bands (ev):

   -10.3359  -5.2490  -0.9620  -0.2126   0.0576   2.8069   3.3017   4.1956
     5.1075

     the Fermi energy is     1.5868 ev

!    total energy              =     -25.18509415 Ry
     estimated scf accuracy    <       0.00000003 Ry
     smearing contrib. (-TS)   =       0.00000000 Ry
     internal energy E=F+TS    =     -25.18509415 Ry

     convergence has been achieved in   7 iterations

     Forces acting on atoms (cartesian axes, Ry/au):

     atom    1 type  1   force =    -0.01883195   -0.00632237    0.03002718
     atom    2 type  1   force =     0.01883195    0.00632237   -0.03002718

     Total force =     0.050917     Total SCF correction =     0.000108


     Computing stress (Cartesian axis) and pressure

          total   stress  (Ry/bohr**3)                   (kbar)     P=      -24.54
   0.00026956  -0.00046662  -0.00028235           39.65      -68.64      -41.53
  -0.00046662  -0.00027975   0.00028027          -68.64      -41.15       41.23
  -0.00028235   0.00028027  -0.00049026          -41.53       41.23      -72.12


     Entering Dynamics;  it =     9   time =  0.05805 pico-seconds

  new lattice vectors (alat unit) :
   1.362471179  -0.074699359  -0.165487281
   0.558652728   1.126301965  -0.109553510
   0.537253946   0.299016643   1.006814181
  new unit-cell volume =    588.6321 (a.u.)^3
  new positions in cryst coord
As       0.012833794   0.334392366   0.310610877
As      -0.012833794  -0.334392366  -0.310610877
  new positions in cart coord (alat unit)
As       0.371171802   0.468545925   0.273969749
As      -0.371171802  -0.468545925  -0.273969749

     Ekin =     0.16980056 Ry    T = ****** K  Etot =      -25.01529359
     new unit-cell volume =    588.63214 a.u.^3 (    87.22628 Ang^3 )
     density =      2.85176 g/cm^3

CELL_PARAMETERS (alat=  7.01033620)
   1.362471179  -0.074699359  -0.165487281
   0.558652728   1.126301965  -0.109553510
   0.537253946   0.299016643   1.006814181

ATOMIC_POSITIONS (alat)
As            0.3711718018        0.4685459251        0.2739697486
As           -0.3711718018       -0.4685459251       -0.2739697486



     Writing output data file ./pwscf.save/
     NEW-OLD atomic charge density approx. for the potential

     negative rho (up, down):  6.697E-04 0.000E+00
     extrapolated charge   10.43008, renormalised to   10.00000

     total cpu time spent up to now is        0.2 secs

     Self-consistent Calculation

     iteration #  1     ecut=    25.00 Ry     beta= 0.70
     Davidson diagonalization with overlap
     ethr =  1.00E-06,  avg # of iterations =  8.0

     total cpu time spent up to now is        0.2 secs

     total energy              =     -25.19584378 Ry
     estimated scf accuracy    <       0.00296195 Ry

     iteration #  2     ecut=    25.00 Ry     beta= 0.70
     Davidson diagonalization with overlap
     ethr =  2.96E-05,  avg # of iterations =  3.0

     total cpu time spent up to now is        0.2 secs

     total energy              =     -25.20194710 Ry
     estimated scf accuracy    <       0.00272527 Ry

     iteration #  3     ecut=    25.00 Ry     beta= 0.70
     Davidson diagonalization with overlap
     ethr =  2.73E-05,  avg # of iterations =  1.0

     total cpu time spent up to now is        0.2 secs

     total energy              =     -25.20167182 Ry
     estimated scf accuracy    <       0.00072720 Ry

     iteration #  4     ecut=    25.00 Ry     beta= 0.70
     Davidson diagonalization with overlap
     ethr =  7.27E-06,  avg # of iterations =  2.0

     total cpu time spent up to now is        0.2 secs

     total energy              =     -25.20174253 Ry
     estimated scf accuracy    <       0.00001853 Ry

     iteration #  5     ecut=    25.00 Ry     beta= 0.70
     Davidson diagonalization with overlap
     ethr =  1.85E-07,  avg # of iterations =  4.0

     total cpu time spent up to now is        0.2 secs

     total energy              =     -25.20175028 Ry
     estimated scf accuracy    <       0.00000144 Ry

     iteration #  6     ecut=    25.00 Ry     beta= 0.70
     Davidson diagonalization with overlap
     ethr =  1.44E-08,  avg # of iterations =  4.0

     total cpu time spent up to now is        0.2 secs

     total energy              =     -25.20175054 Ry
     estimated scf accuracy    <       0.00000075 Ry

     iteration #  7     ecut=    25.00 Ry     beta= 0.70
     Davidson diagonalization with overlap
     ethr =  7.54E-09,  avg # of iterations =  1.0

     total cpu time spent up to now is        0.2 secs

     End of self-consistent calculation

          k = 0.0000 0.0000 0.0000 (   266 PWs)   bands (ev):

   -10.6124  -5.4937  -1.2665  -0.5313  -0.4144   2.5203   3.1001   3.8641
     4.6779

     the Fermi energy is     1.1954 ev

!    total energy              =     -25.20175067 Ry
     estimated scf accuracy    <       0.00000002 Ry
     smearing contrib. (-TS)   =       0.00000000 Ry
     internal energy E=F+TS    =     -25.20175067 Ry

     convergence has been achieved in   7 iterations

     Forces acting on atoms (cartesian axes, Ry/au):

     atom    1 type  1   force =    -0.02383584   -0.00756076    0.03455870
     atom    2 type  1   force =     0.02383584    0.00756076   -0.03455870

     Total force =     0.060326     Total SCF correction =     0.000073


     Computing stress (Cartesian axis) and pressure

          total   stress  (Ry/bohr**3)                   (kbar)     P=      -37.62
   0.00008925  -0.00034252  -0.00016851           13.13      -50.39      -24.79
  -0.00034252  -0.00035494   0.00021676          -50.39      -52.21       31.89
  -0.00016851   0.00021676  -0.00050146          -24.79       31.89      -73.77


     Entering Dynamics;  it =    10   time =  0.06531 pico-seconds

  new lattice vectors (alat unit) :
   1.405600584  -0.107286077  -0.196321429
   0.557370056   1.125102241  -0.104695363
   0.536467204   0.302154347   1.004325640
  new unit-cell volume =    614.7181 (a.u.)^3
  new positions in cryst coord
As       0.011356975   0.333027301   0.312785234
As      -0.011356975  -0.333027301  -0.312785234
  new positions in cart coord (alat unit)
As       0.369381836   0.467980735   0.277042199
As      -0.369381836  -0.467980735  -0.277042199

     Ekin =     0.16314972 Ry    T = ****** K  Etot =      -25.03860095
     new unit-cell volume =    614.71814 a.u.^3 (    91.09183 Ang^3 )
     density =      2.73075 g/cm^3

CELL_PARAMETERS (alat=  7.01033620)
   1.405600584  -0.107286077  -0.196321429
   0.557370056   1.125102241  -0.104695363
   0.536467204   0.302154347   1.004325640

ATOMIC_POSITIONS (alat)
As            0.3693818362        0.4679807348        0.2770421987
As           -0.3693818362       -0.4679807348       -0.2770421987



     Writing output data file ./pwscf.save/
     NEW-OLD atomic charge density approx. for the potential

     negative rho (up, down):  9.366E-04 0.000E+00
     extrapolated charge   10.42434, renormalised to   10.00000

     total cpu time spent up to now is        0.3 secs

     Self-consistent Calculation

     iteration #  1     ecut=    25.00 Ry     beta= 0.70
     Davidson diagonalization with overlap
     ethr =  1.00E-06,  avg # of iterations =  8.0

     negative rho (up, down):  3.237E-07 0.000E+00

     total cpu time spent up to now is        0.3 secs

     total energy              =     -25.20573973 Ry
     estimated scf accuracy    <       0.00312469 Ry

     iteration #  2     ecut=    25.00 Ry     beta= 0.70
     Davidson diagonalization with overlap
     ethr =  3.12E-05,  avg # of iterations =  3.0

     total cpu time spent up to now is        0.3 secs

     total energy              =     -25.21223852 Ry
     estimated scf accuracy    <       0.00283707 Ry

     iteration #  3     ecut=    25.00 Ry     beta= 0.70
     Davidson diagonalization with overlap
     ethr =  2.84E-05,  avg # of iterations =  1.0

     total cpu time spent up to now is        0.3 secs

     total energy              =     -25.21194133 Ry
     estimated scf accuracy    <       0.00076205 Ry

     iteration #  4     ecut=    25.00 Ry     beta= 0.70
     Davidson diagonalization with overlap
     ethr =  7.62E-06,  avg # of iterations =  2.0

     total cpu time spent up to now is        0.3 secs

     total energy              =     -25.21201313 Ry
     estimated scf accuracy    <       0.00002034 Ry

     iteration #  5     ecut=    25.00 Ry     beta= 0.70
     Davidson diagonalization with overlap
     ethr =  2.03E-07,  avg # of iterations =  4.0

     total cpu time spent up to now is        0.3 secs

     total energy              =     -25.21202069 Ry
     estimated scf accuracy    <       0.00001299 Ry

     iteration #  6     ecut=    25.00 Ry     beta= 0.70
     Davidson diagonalization with overlap
     ethr =  1.30E-07,  avg # of iterations =  1.0

     total cpu time spent up to now is        0.3 secs

     total energy              =     -25.21202240 Ry
     estimated scf accuracy    <       0.00000053 Ry

     iteration #  7     ecut=    25.00 Ry     beta= 0.70
     Davidson diagonalization with overlap
     ethr =  5.26E-09,  avg # of iterations =  4.0

     total cpu time spent up to now is        0.3 secs

     End of self-consistent calculation

          k = 0.0000 0.0000 0.0000 (   266 PWs)   bands (ev):

   -10.8672  -5.7063  -1.5180  -0.8760  -0.8426   2.2984   2.8970   3.5034
     4.2972

     the Fermi energy is     0.8463 ev

!    total energy              =     -25.21202255 Ry
     estimated scf accuracy    <       0.00000005 Ry
     smearing contrib. (-TS)   =       0.00000000 Ry
     internal energy E=F+TS    =     -25.21202255 Ry

     convergence has been achieved in   7 iterations

     Forces acting on atoms (cartesian axes, Ry/au):

     atom    1 type  1   force =    -0.02496829   -0.00761938    0.03430083
     atom    2 type  1   force =     0.02496829    0.00761938   -0.03430083

     Total force =     0.060959     Total SCF correction =     0.000094


     Computing stress (Cartesian axis) and pressure

          total   stress  (Ry/bohr**3)                   (kbar)     P=      -47.80
  -0.00005767  -0.00023631  -0.00007748           -8.48      -34.76      -11.40
  -0.00023631  -0.00041353   0.00016406          -34.76      -60.83       24.13
  -0.00007748   0.00016406  -0.00050369          -11.40       24.13      -74.10


     Entering Dynamics;  it =    11   time =  0.07257 pico-seconds

  new lattice vectors (alat unit) :
   1.449849021  -0.140786362  -0.227387041
   0.555847800   1.123524518  -0.099284725
   0.536779540   0.305493767   1.006739532
  new unit-cell volume =    643.8084 (a.u.)^3
  new positions in cryst coord
As       0.009124260   0.330662280   0.316213443
As      -0.009124260  -0.330662280  -0.316213443
  new positions in cart coord (alat unit)
As       0.366763607   0.466823844   0.283440122
As      -0.366763607  -0.466823844  -0.283440122

     Ekin =     0.17495127 Ry    T = ****** K  Etot =      -25.03707128
     new unit-cell volume =    643.80840 a.u.^3 (    95.40256 Ang^3 )
     density =      2.60736 g/cm^3

CELL_PARAMETERS (alat=  7.01033620)
   1.449849021  -0.140786362  -0.227387041
   0.555847800   1.123524518  -0.099284725
   0.536779540   0.305493767   1.006739532

ATOMIC_POSITIONS (alat)
As            0.3667636070        0.4668238437        0.2834401219
As           -0.3667636070       -0.4668238437       -0.2834401219



     Writing output data file ./pwscf.save/
     NEW-OLD atomic charge density approx. for the potential

     negative rho (up, down):  1.167E-03 0.000E+00
     extrapolated charge   10.45183, renormalised to   10.00000

     total cpu time spent up to now is        0.3 secs

     Self-consistent Calculation

     iteration #  1     ecut=    25.00 Ry     beta= 0.70
     Davidson diagonalization with overlap
     ethr =  1.00E-06,  avg # of iterations =  8.0

     negative rho (up, down):  1.802E-05 0.000E+00

     total cpu time spent up to now is        0.3 secs

     total energy              =     -25.20734909 Ry
     estimated scf accuracy    <       0.00379220 Ry

     iteration #  2     ecut=    25.00 Ry     beta= 0.70
     Davidson diagonalization with overlap
     ethr =  3.79E-05,  avg # of iterations =  3.0

     negative rho (up, down):  1.049E-06 0.000E+00

     total cpu time spent up to now is        0.3 secs

     total energy              =     -25.21531767 Ry
     estimated scf accuracy    <       0.00331256 Ry

     iteration #  3     ecut=    25.00 Ry     beta= 0.70
     Davidson diagonalization with overlap
     ethr =  3.31E-05,  avg # of iterations =  1.0

     total cpu time spent up to now is        0.3 secs

     total energy              =     -25.21497798 Ry
     estimated scf accuracy    <       0.00092310 Ry

     iteration #  4     ecut=    25.00 Ry     beta= 0.70
     Davidson diagonalization with overlap
     ethr =  9.23E-06,  avg # of iterations =  2.0

     total cpu time spent up to now is        0.3 secs

     total energy              =     -25.21504685 Ry
     estimated scf accuracy    <       0.00004293 Ry

     iteration #  5     ecut=    25.00 Ry     beta= 0.70
     Davidson diagonalization with overlap
     ethr =  4.29E-07,  avg # of iterations =  4.0

     total cpu time spent up to now is        0.3 secs

     total energy              =     -25.21506169 Ry
     estimated scf accuracy    <       0.00000990 Ry

     iteration #  6     ecut=    25.00 Ry     beta= 0.70
     Davidson diagonalization with overlap
     ethr =  9.90E-08,  avg # of iterations =  2.0

     total cpu time spent up to now is        0.3 secs

     total energy              =     -25.21506190 Ry
     estimated scf accuracy    <       0.00000248 Ry

     iteration #  7     ecut=    25.00 Ry     beta= 0.70
     Davidson diagonalization with overlap
     ethr =  2.48E-08,  avg # of iterations =  2.0

     total cpu time spent up to now is        0.3 secs

     End of self-consistent calculation

          k = 0.0000 0.0000 0.0000 (   266 PWs)   bands (ev):

   -11.0910  -5.9378  -1.7327  -1.2532  -1.2309   2.1176   2.6573   3.0786
     3.9478

     the Fermi energy is     0.5283 ev

!    total energy              =     -25.21506228 Ry
     estimated scf accuracy    <       0.00000002 Ry
     smearing contrib. (-TS)   =       0.00000000 Ry
     internal energy E=F+TS    =     -25.21506228 Ry

     convergence has been achieved in   7 iterations

     Forces acting on atoms (cartesian axes, Ry/au):

     atom    1 type  1   force =    -0.02220410   -0.00543552    0.02794561
     atom    2 type  1   force =     0.02220410    0.00543552   -0.02794561

     Total force =     0.051059     Total SCF correction =     0.000044


     Computing stress (Cartesian axis) and pressure

          total   stress  (Ry/bohr**3)                   (kbar)     P=      -57.27
  -0.00017568  -0.00015206  -0.00001547          -25.84      -22.37       -2.28
  -0.00015206  -0.00046713   0.00012746          -22.37      -68.72       18.75
  -0.00001547   0.00012746  -0.00052503           -2.28       18.75      -77.24


     Entering Dynamics;  it =    12   time =  0.07982 pico-seconds

  new lattice vectors (alat unit) :
   1.445926376  -0.174334585  -0.210460370
   0.554229994   1.121515022  -0.093465197
   0.536939003   0.308930661   1.006717400
  new unit-cell volume =    644.5974 (a.u.)^3
  new positions in cryst coord
As       0.006428991   0.327294964   0.320545820
As      -0.006428991  -0.327294964  -0.320545820
  new positions in cart coord (alat unit)
As       0.362806086   0.464971856   0.290755319
As      -0.362806086  -0.464971856  -0.290755319

     Ekin =     0.17997799 Ry    T = ****** K  Etot =      -25.03508428
     new unit-cell volume =    644.59736 a.u.^3 (    95.51947 Ang^3 )
     density =      2.60417 g/cm^3

CELL_PARAMETERS (alat=  7.01033620)
   1.445926376  -0.174334585  -0.210460370
   0.554229994   1.121515022  -0.093465197
   0.536939003   0.308930661   1.006717400

ATOMIC_POSITIONS (alat)
As            0.3628060864        0.4649718560        0.2907553191
As           -0.3628060864       -0.4649718560       -0.2907553191



     Writing output data file ./pwscf.save/
     NEW-OLD atomic charge density approx. for the potential
     extrapolated charge   10.01224, renormalised to   10.00000

     total cpu time spent up to now is        0.3 secs

     Self-consistent Calculation

     iteration #  1     ecut=    25.00 Ry     beta= 0.70
     Davidson diagonalization with overlap
     ethr =  1.00E-06,  avg # of iterations =  7.0

     total cpu time spent up to now is        0.3 secs

     total energy              =     -25.21949981 Ry
     estimated scf accuracy    <       0.00018933 Ry

     iteration #  2     ecut=    25.00 Ry     beta= 0.70
     Davidson diagonalization with overlap
     ethr =  1.89E-06,  avg # of iterations =  2.0

     total cpu time spent up to now is        0.3 secs

     total energy              =     -25.21953935 Ry
     estimated scf accuracy    <       0.00001856 Ry

     iteration #  3     ecut=    25.00 Ry     beta= 0.70
     Davidson diagonalization with overlap
     ethr =  1.86E-07,  avg # of iterations =  1.0

     total cpu time spent up to now is        0.3 secs

     total energy              =     -25.21954233 Ry
     estimated scf accuracy    <       0.00000115 Ry

     iteration #  4     ecut=    25.00 Ry     beta= 0.70
     Davidson diagonalization with overlap
     ethr =  1.15E-08,  avg # of iterations =  2.0

     total cpu time spent up to now is        0.3 secs

     total energy              =     -25.21954240 Ry
     estimated scf accuracy    <       0.00000023 Ry

     iteration #  5     ecut=    25.00 Ry     beta= 0.70
     Davidson diagonalization with overlap
     ethr =  2.34E-09,  avg # of iterations =  2.0

     total cpu time spent up to now is        0.3 secs

     total energy              =     -25.21954245 Ry
     estimated scf accuracy    <       0.00000017 Ry

     iteration #  6     ecut=    25.00 Ry     beta= 0.70
     Davidson diagonalization with overlap
     ethr =  1.66E-09,  avg # of iterations =  1.0

     total cpu time spent up to now is        0.3 secs

     End of self-consistent calculation

          k = 0.0000 0.0000 0.0000 (   266 PWs)   bands (ev):

   -11.0732  -5.9154  -1.6552  -1.3561  -1.2472   2.2779   2.6947   2.9071
     3.9110

     the Fermi energy is     0.5051 ev

!    total energy              =     -25.21954248 Ry
     estimated scf accuracy    <          1.6E-09 Ry
     smearing contrib. (-TS)   =       0.00000000 Ry
     internal energy E=F+TS    =     -25.21954248 Ry

     convergence has been achieved in   6 iterations

     Forces acting on atoms (cartesian axes, Ry/au):

     atom    1 type  1   force =    -0.01385450    0.00025317    0.01641944
     atom    2 type  1   force =     0.01385450   -0.00025317   -0.01641944

     Total force =     0.030385     Total SCF correction =     0.000034


     Computing stress (Cartesian axis) and pressure

          total   stress  (Ry/bohr**3)                   (kbar)     P=      -57.58
  -0.00017554  -0.00013403  -0.00002637          -25.82      -19.72       -3.88
  -0.00013403  -0.00048660   0.00011707          -19.72      -71.58       17.22
  -0.00002637   0.00011707  -0.00051223           -3.88       17.22      -75.35


     Entering Dynamics;  it =    13   time =  0.08708 pico-seconds

  new lattice vectors (alat unit) :
   1.445093146  -0.208446242  -0.210289605
   0.551710085   1.117629518  -0.086963858
   0.536822335   0.306473814   1.004699041
  new unit-cell volume =    646.6902 (a.u.)^3
  new positions in cryst coord
As       0.002403716   0.324649570   0.325118993
As      -0.002403716  -0.324649570  -0.325118993
  new positions in cart coord (alat unit)
As       0.357117172   0.461977355   0.297908485
As      -0.357117172  -0.461977355  -0.297908485

     Ekin =     0.06527550 Ry    T = ****** K  Etot =      -25.15426698
     new unit-cell volume =    646.69015 a.u.^3 (    95.82959 Ang^3 )
     density =      2.59574 g/cm^3

CELL_PARAMETERS (alat=  7.01033620)
   1.445093146  -0.208446242  -0.210289605
   0.551710085   1.117629518  -0.086963858
   0.536822335   0.306473814   1.004699041

ATOMIC_POSITIONS (alat)
As            0.3571171720        0.4619773546        0.2979084854
As           -0.3571171720       -0.4619773546       -0.2979084854



     Writing output data file ./pwscf.save/
     NEW-OLD atomic charge density approx. for the potential

     negative rho (up, down):  8.618E-06 0.000E+00
     extrapolated charge   10.03236, renormalised to   10.00000

     total cpu time spent up to now is        0.3 secs

     Self-consistent Calculation

     iteration #  1     ecut=    25.00 Ry     beta= 0.70
     Davidson diagonalization with overlap
     ethr =  1.00E-06,  avg # of iterations =  7.0

     total cpu time spent up to now is        0.3 secs

     total energy              =     -25.22228792 Ry
     estimated scf accuracy    <       0.00024830 Ry

     iteration #  2     ecut=    25.00 Ry     beta= 0.70
     Davidson diagonalization with overlap
     ethr =  2.48E-06,  avg # of iterations =  2.0

     total cpu time spent up to now is        0.3 secs

     total energy              =     -25.22236301 Ry
     estimated scf accuracy    <       0.00002688 Ry

     iteration #  3     ecut=    25.00 Ry     beta= 0.70
     Davidson diagonalization with overlap
     ethr =  2.69E-07,  avg # of iterations =  1.0

     total cpu time spent up to now is        0.3 secs

     total energy              =     -25.22236590 Ry
     estimated scf accuracy    <       0.00000200 Ry

     iteration #  4     ecut=    25.00 Ry     beta= 0.70
     Davidson diagonalization with overlap
     ethr =  2.00E-08,  avg # of iterations =  2.0

     total cpu time spent up to now is        0.3 secs

     End of self-consistent calculation

          k = 0.0000 0.0000 0.0000 (   266 PWs)   bands (ev):

   -11.1014  -5.8740  -1.6959  -1.3902  -1.3107   2.3807   2.7323   2.7787
     3.8524

     the Fermi energy is     0.4541 ev

!    total energy              =     -25.22236624 Ry
     estimated scf accuracy    <       0.00000009 Ry
     smearing contrib. (-TS)   =       0.00000000 Ry
     internal energy E=F+TS    =     -25.22236624 Ry

     convergence has been achieved in   4 iterations

     Forces acting on atoms (cartesian axes, Ry/au):

     atom    1 type  1   force =    -0.00257998    0.00187046    0.00275251
     atom    2 type  1   force =     0.00257998   -0.00187046   -0.00275251

     Total force =     0.005955     Total SCF correction =     0.000055


     Computing stress (Cartesian axis) and pressure

          total   stress  (Ry/bohr**3)                   (kbar)     P=      -56.56
  -0.00018103  -0.00010031  -0.00002128          -26.63      -14.76       -3.13
  -0.00010031  -0.00048522   0.00009957          -14.76      -71.38       14.65
  -0.00002128   0.00009957  -0.00048729           -3.13       14.65      -71.68


     Entering Dynamics;  it =    14   time =  0.09434 pico-seconds

  new lattice vectors (alat unit) :
   1.443367476  -0.242990353  -0.210035916
   0.548372552   1.111958266  -0.079836162
   0.536323972   0.306291451   1.000854325
  new unit-cell volume =    646.1087 (a.u.)^3
  new positions in cryst coord
As      -0.000482583   0.320329413   0.329544068
As       0.000482583  -0.320329413  -0.329544068
  new positions in cart coord (alat unit)
As       0.351705697   0.457246732   0.304353094
As      -0.351705697  -0.457246732  -0.304353094

     Ekin =     0.06932548 Ry    T = ****** K  Etot =      -25.15304076
     new unit-cell volume =    646.10868 a.u.^3 (    95.74343 Ang^3 )
     density =      2.59808 g/cm^3

CELL_PARAMETERS (alat=  7.01033620)
   1.443367476  -0.242990353  -0.210035916
   0.548372552   1.111958266  -0.079836162
   0.536323972   0.306291451   1.000854325

ATOMIC_POSITIONS (alat)
As            0.3517056971        0.4572467324        0.3043530940
As           -0.3517056971       -0.4572467324       -0.3043530940



     Writing output data file ./pwscf.save/
     NEW-OLD atomic charge density approx. for the potential

     negative rho (up, down):  2.278E-05 0.000E+00
     extrapolated charge    9.99100, renormalised to   10.00000

     total cpu time spent up to now is        0.3 secs

     Self-consistent Calculation

     iteration #  1     ecut=    25.00 Ry     beta= 0.70
     Davidson diagonalization with overlap
     ethr =  1.00E-06,  avg # of iterations =  7.0

     total cpu time spent up to now is        0.3 secs

     total energy              =     -25.22361657 Ry
     estimated scf accuracy    <       0.00029162 Ry

     iteration #  2     ecut=    25.00 Ry     beta= 0.70
     Davidson diagonalization with overlap
     ethr =  2.92E-06,  avg # of iterations =  2.0

     total cpu time spent up to now is        0.3 secs

     total energy              =     -25.22368134 Ry
     estimated scf accuracy    <       0.00003164 Ry

     iteration #  3     ecut=    25.00 Ry     beta= 0.70
     Davidson diagonalization with overlap
     ethr =  3.16E-07,  avg # of iterations =  2.0

     total cpu time spent up to now is        0.3 secs

     total energy              =     -25.22368623 Ry
     estimated scf accuracy    <       0.00000296 Ry

     iteration #  4     ecut=    25.00 Ry     beta= 0.70
     Davidson diagonalization with overlap
     ethr =  2.96E-08,  avg # of iterations =  2.0

     total cpu time spent up to now is        0.3 secs

     total energy              =     -25.22368616 Ry
     estimated scf accuracy    <       0.00000622 Ry

     iteration #  5     ecut=    25.00 Ry     beta= 0.70
     Davidson diagonalization with overlap
     ethr =  2.96E-08,  avg # of iterations =  1.0

     total cpu time spent up to now is        0.3 secs

     End of self-consistent calculation

          k = 0.0000 0.0000 0.0000 (   266 PWs)   bands (ev):

   -11.1238  -5.7862  -1.8452  -1.3560  -1.2755   2.4550   2.7347   2.7985
     3.8227

     the Fermi energy is     0.4262 ev

!    total energy              =     -25.22368715 Ry
     estimated scf accuracy    <       0.00000003 Ry
     smearing contrib. (-TS)   =       0.00000000 Ry
     internal energy E=F+TS    =     -25.22368715 Ry

     convergence has been achieved in   5 iterations

     Forces acting on atoms (cartesian axes, Ry/au):

     atom    1 type  1   force =     0.00856095    0.01078817   -0.01072214
     atom    2 type  1   force =    -0.00856095   -0.01078817    0.01072214

     Total force =     0.024684     Total SCF correction =     0.000169


     Computing stress (Cartesian axis) and pressure

          total   stress  (Ry/bohr**3)                   (kbar)     P=      -52.96
  -0.00018441  -0.00006404  -0.00001521          -27.13       -9.42       -2.24
  -0.00006404  -0.00046003   0.00005870           -9.42      -67.67        8.63
  -0.00001521   0.00005870  -0.00043568           -2.24        8.63      -64.09


     Entering Dynamics;  it =    15   time =  0.10159 pico-seconds

  new lattice vectors (alat unit) :
   1.440672824  -0.277764191  -0.209631558
   0.544355615   1.104868388  -0.072318410
   0.535403205   0.305860830   0.995431085
  new unit-cell volume =    643.1252 (a.u.)^3
  new positions in cryst coord
As      -0.000351778   0.320652225   0.329305601
As       0.000351778  -0.320652225  -0.329305601
  new positions in cart coord (alat unit)
As       0.350353316   0.455097903   0.304685716
As      -0.350353316  -0.455097903  -0.304685716

     Ekin =     0.07083320 Ry    T = ****** K  Etot =      -25.15285395
     new unit-cell volume =    643.12519 a.u.^3 (    95.30132 Ang^3 )
     density =      2.61013 g/cm^3

CELL_PARAMETERS (alat=  7.01033620)
   1.440672824  -0.277764191  -0.209631558
   0.544355615   1.104868388  -0.072318410
   0.535403205   0.305860830   0.995431085

ATOMIC_POSITIONS (alat)
As            0.3503533159        0.4550979031        0.3046857162
As           -0.3503533159       -0.4550979031       -0.3046857162



     Writing output data file ./pwscf.save/
     NEW-OLD atomic charge density approx. for the potential

     negative rho (up, down):  1.256E-04 0.000E+00
     extrapolated charge    9.95361, renormalised to   10.00000

     total cpu time spent up to now is        0.4 secs

     Self-consistent Calculation

     iteration #  1     ecut=    25.00 Ry     beta= 0.70
     Davidson diagonalization with overlap
     ethr =  1.00E-06,  avg # of iterations =  7.0

     negative rho (up, down):  3.128E-06 0.000E+00

     total cpu time spent up to now is        0.4 secs

     total energy              =     -25.22541972 Ry
     estimated scf accuracy    <       0.00011610 Ry

     iteration #  2     ecut=    25.00 Ry     beta= 0.70
     Davidson diagonalization with overlap
     ethr =  1.16E-06,  avg # of iterations =  3.0

     total cpu time spent up to now is        0.4 secs

     total energy              =     -25.22552360 Ry
     estimated scf accuracy    <       0.00003559 Ry

     iteration #  3     ecut=    25.00 Ry     beta= 0.70
     Davidson diagonalization with overlap
     ethr =  3.56E-07,  avg # of iterations =  1.0

     total cpu time spent up to now is        0.4 secs

     total energy              =     -25.22552371 Ry
     estimated scf accuracy    <       0.00000574 Ry

     iteration #  4     ecut=    25.00 Ry     beta= 0.70
     Davidson diagonalization with overlap
     ethr =  5.74E-08,  avg # of iterations =  2.0

     total cpu time spent up to now is        0.4 secs

     total energy              =     -25.22552438 Ry
     estimated scf accuracy    <       0.00000186 Ry

     iteration #  5     ecut=    25.00 Ry     beta= 0.70
     Davidson diagonalization with overlap
     ethr =  1.86E-08,  avg # of iterations =  1.0

     total cpu time spent up to now is        0.4 secs

     total energy              =     -25.22552472 Ry
     estimated scf accuracy    <       0.00000020 Ry

     iteration #  6     ecut=    25.00 Ry     beta= 0.70
     Davidson diagonalization with overlap
     ethr =  2.00E-09,  avg # of iterations =  1.0

     total cpu time spent up to now is        0.4 secs

     End of self-consistent calculation

          k = 0.0000 0.0000 0.0000 (   266 PWs)   bands (ev):

   -11.1703  -5.6343  -1.8647  -1.4030  -1.2813   2.5140   2.7424   2.9189
     3.8098

     the Fermi energy is     0.4049 ev

!    total energy              =     -25.22552474 Ry
     estimated scf accuracy    <       0.00000002 Ry
     smearing contrib. (-TS)   =       0.00000000 Ry
     internal energy E=F+TS    =     -25.22552474 Ry

     convergence has been achieved in   6 iterations

     Forces acting on atoms (cartesian axes, Ry/au):

     atom    1 type  1   force =     0.00816915    0.01054949   -0.00884290
     atom    2 type  1   force =    -0.00816915   -0.01054949    0.00884290

     Total force =     0.022637     Total SCF correction =     0.000053


     Computing stress (Cartesian axis) and pressure

[...]

     Total force =     0.019530     Total SCF correction =     0.000058


     Computing stress (Cartesian axis) and pressure

          total   stress  (Ry/bohr**3)                   (kbar)     P=       -2.55
  -0.00005120  -0.00001835  -0.00001119           -7.53       -2.70       -1.65
  -0.00001835  -0.00002032  -0.00005359           -2.70       -2.99       -7.88
  -0.00001119  -0.00005359   0.00001956           -1.65       -7.88        2.88


     Entering Dynamics;  it =    46   time =  0.32655 pico-seconds

  new lattice vectors (alat unit) :
   1.395300317  -0.271681796  -0.210965998
   0.523223063   1.008654053  -0.126412386
   0.510490751   0.190114828   0.952906101
  new unit-cell volume =    556.4923 (a.u.)^3
  new positions in cryst coord
As       0.001633062   0.313076572   0.313031572
As      -0.001633062  -0.313076572  -0.313031572
  new positions in cart coord (alat unit)
As       0.325887217   0.374854223   0.258368418
As      -0.325887217  -0.374854223  -0.258368418

     Ekin =     0.00246443 Ry    T = 6190.1 K  Etot =      -25.24195205
     new unit-cell volume =    556.49225 a.u.^3 (    82.46364 Ang^3 )
     density =      3.01647 g/cm^3

CELL_PARAMETERS (alat=  7.01033620)
   1.395300317  -0.271681796  -0.210965998
   0.523223063   1.008654053  -0.126412386
   0.510490751   0.190114828   0.952906101

ATOMIC_POSITIONS (alat)
As            0.3258872165        0.3748542233        0.2583684181
As           -0.3258872165       -0.3748542233       -0.2583684181



     Writing output data file ./pwscf.save/
     NEW-OLD atomic charge density approx. for the potential
     extrapolated charge    9.95839, renormalised to   10.00000

     total cpu time spent up to now is        1.0 secs

     Self-consistent Calculation

     iteration #  1     ecut=    25.00 Ry     beta= 0.70
     Davidson diagonalization with overlap
     ethr =  1.00E-06,  avg # of iterations =  5.0

     total cpu time spent up to now is        1.0 secs

     total energy              =     -25.24522692 Ry
     estimated scf accuracy    <       0.00002499 Ry

     iteration #  2     ecut=    25.00 Ry     beta= 0.70
     Davidson diagonalization with overlap
     ethr =  2.50E-07,  avg # of iterations =  4.0

     total cpu time spent up to now is        1.0 secs

     total energy              =     -25.24527716 Ry
     estimated scf accuracy    <       0.00003085 Ry

     iteration #  3     ecut=    25.00 Ry     beta= 0.70
     Davidson diagonalization with overlap
     ethr =  2.50E-07,  avg # of iterations =  1.0

     total cpu time spent up to now is        1.0 secs

     total energy              =     -25.24527243 Ry
     estimated scf accuracy    <       0.00000988 Ry

     iteration #  4     ecut=    25.00 Ry     beta= 0.70
     Davidson diagonalization with overlap
     ethr =  9.88E-08,  avg # of iterations =  2.0

     total cpu time spent up to now is        1.0 secs

     total energy              =     -25.24527370 Ry
     estimated scf accuracy    <       0.00000136 Ry

     iteration #  5     ecut=    25.00 Ry     beta= 0.70
     Davidson diagonalization with overlap
     ethr =  1.36E-08,  avg # of iterations =  2.0

     total cpu time spent up to now is        1.0 secs

     End of self-consistent calculation

          k = 0.0000 0.0000 0.0000 (   266 PWs)   bands (ev):

   -10.9177  -4.4692  -1.2417  -0.8482  -0.4816   3.6832   4.0153   4.4354
     4.5292

     the Fermi energy is     1.0076 ev

!    total energy              =     -25.24527398 Ry
     estimated scf accuracy    <       0.00000009 Ry
     smearing contrib. (-TS)   =       0.00000000 Ry
     internal energy E=F+TS    =     -25.24527398 Ry

     convergence has been achieved in   5 iterations

     Forces acting on atoms (cartesian axes, Ry/au):

     atom    1 type  1   force =    -0.00674972   -0.00756828   -0.00629157
     atom    2 type  1   force =     0.00674972    0.00756828    0.00629157

     Total force =     0.016877     Total SCF correction =     0.000086


     Computing stress (Cartesian axis) and pressure

          total   stress  (Ry/bohr**3)                   (kbar)     P=       -3.43
  -0.00005802  -0.00003365  -0.00002059           -8.53       -4.95       -3.03
  -0.00003365  -0.00002916  -0.00006117           -4.95       -4.29       -9.00
  -0.00002059  -0.00006117   0.00001729           -3.03       -9.00        2.54


     Entering Dynamics;  it =    47   time =  0.33381 pico-seconds

  new lattice vectors (alat unit) :
   1.391952303  -0.271935371  -0.211128648
   0.518999375   1.005984669  -0.130519940
   0.505894682   0.185406342   0.953236834
  new unit-cell volume =    554.0278 (a.u.)^3
  new positions in cryst coord
As       0.001662040   0.311533147   0.311203300
As      -0.001662040  -0.311533147  -0.311203300
  new positions in cart coord (alat unit)
As       0.321435083   0.370644668   0.255638256
As      -0.321435083  -0.370644668  -0.255638256

     Ekin =     0.00331236 Ry    T = 6058.1 K  Etot =      -25.24196162
     new unit-cell volume =    554.02783 a.u.^3 (    82.09845 Ang^3 )
     density =      3.02988 g/cm^3

CELL_PARAMETERS (alat=  7.01033620)
   1.391952303  -0.271935371  -0.211128648
   0.518999375   1.005984669  -0.130519940
   0.505894682   0.185406342   0.953236834

ATOMIC_POSITIONS (alat)
As            0.3214350830        0.3706446678        0.2556382565
As           -0.3214350830       -0.3706446678       -0.2556382565



     Writing output data file ./pwscf.save/
     NEW-OLD atomic charge density approx. for the potential
     extrapolated charge    9.95552, renormalised to   10.00000

     total cpu time spent up to now is        1.0 secs

     Self-consistent Calculation

     iteration #  1     ecut=    25.00 Ry     beta= 0.70
     Davidson diagonalization with overlap
     ethr =  1.00E-06,  avg # of iterations =  5.0

     total cpu time spent up to now is        1.0 secs

     total energy              =     -25.24625478 Ry
     estimated scf accuracy    <       0.00003219 Ry

     iteration #  2     ecut=    25.00 Ry     beta= 0.70
     Davidson diagonalization with overlap
     ethr =  3.22E-07,  avg # of iterations =  4.0

     total cpu time spent up to now is        1.0 secs

     total energy              =     -25.24631131 Ry
     estimated scf accuracy    <       0.00003716 Ry

     iteration #  3     ecut=    25.00 Ry     beta= 0.70
     Davidson diagonalization with overlap
     ethr =  3.22E-07,  avg # of iterations =  1.0

     total cpu time spent up to now is        1.0 secs

     total energy              =     -25.24630608 Ry
     estimated scf accuracy    <       0.00001129 Ry

     iteration #  4     ecut=    25.00 Ry     beta= 0.70
     Davidson diagonalization with overlap
     ethr =  1.13E-07,  avg # of iterations =  2.0

     total cpu time spent up to now is        1.0 secs

     total energy              =     -25.24630749 Ry
     estimated scf accuracy    <       0.00000191 Ry

     iteration #  5     ecut=    25.00 Ry     beta= 0.70
     Davidson diagonalization with overlap
     ethr =  1.91E-08,  avg # of iterations =  1.0

     total cpu time spent up to now is        1.0 secs

     total energy              =     -25.24630790 Ry
     estimated scf accuracy    <       0.00000011 Ry

     iteration #  6     ecut=    25.00 Ry     beta= 0.70
     Davidson diagonalization with overlap
     ethr =  1.07E-09,  avg # of iterations =  4.0

     total cpu time spent up to now is        1.0 secs

     End of self-consistent calculation

          k = 0.0000 0.0000 0.0000 (   266 PWs)   bands (ev):

   -10.8971  -4.4677  -1.2433  -0.8258  -0.4266   3.7758   4.0246   4.4958
     4.5547

     the Fermi energy is     1.0319 ev

!    total energy              =     -25.24630791 Ry
     estimated scf accuracy    <       0.00000002 Ry
     smearing contrib. (-TS)   =       0.00000000 Ry
     internal energy E=F+TS    =     -25.24630791 Ry

     convergence has been achieved in   6 iterations

     Forces acting on atoms (cartesian axes, Ry/au):

     atom    1 type  1   force =    -0.00508467   -0.00572497   -0.00473513
     atom    2 type  1   force =     0.00508467    0.00572497    0.00473513

     Total force =     0.012732     Total SCF correction =     0.000065


     Computing stress (Cartesian axis) and pressure

          total   stress  (Ry/bohr**3)                   (kbar)     P=       -4.90
  -0.00006899  -0.00005393  -0.00003317          -10.15       -7.93       -4.88
  -0.00005393  -0.00004354  -0.00007197           -7.93       -6.41      -10.59
  -0.00003317  -0.00007197   0.00001260           -4.88      -10.59        1.85


     Entering Dynamics;  it =    48   time =  0.34106 pico-seconds

  new lattice vectors (alat unit) :
   1.388236754  -0.272511857  -0.211485555
   0.514313150   1.003000169  -0.135228976
   0.500864464   0.180009778   0.953158535
  new unit-cell volume =    551.1263 (a.u.)^3
  new positions in cryst coord
As       0.001688877   0.309725642   0.309111757
As      -0.001688877  -0.309725642  -0.309111757
  new positions in cart coord (alat unit)
As       0.316463626   0.365837772   0.252391455
As      -0.316463626  -0.365837772  -0.252391455

     Ekin =     0.00433785 Ry    T = 5932.4 K  Etot =      -25.24197006
     new unit-cell volume =    551.12629 a.u.^3 (    81.66849 Ang^3 )
     density =      3.04584 g/cm^3

CELL_PARAMETERS (alat=  7.01033620)
   1.388236754  -0.272511857  -0.211485555
   0.514313150   1.003000169  -0.135228976
   0.500864464   0.180009778   0.953158535

ATOMIC_POSITIONS (alat)
As            0.3164636262        0.3658377716        0.2523914553
As           -0.3164636262       -0.3658377716       -0.2523914553



     Writing output data file ./pwscf.save/
     NEW-OLD atomic charge density approx. for the potential
     extrapolated charge    9.94735, renormalised to   10.00000

     total cpu time spent up to now is        1.0 secs

     Self-consistent Calculation

     iteration #  1     ecut=    25.00 Ry     beta= 0.70
     Davidson diagonalization with overlap
     ethr =  1.00E-06,  avg # of iterations =  5.0

     total cpu time spent up to now is        1.0 secs

     total energy              =     -25.24744423 Ry
     estimated scf accuracy    <       0.00004378 Ry

     iteration #  2     ecut=    25.00 Ry     beta= 0.70
     Davidson diagonalization with overlap
     ethr =  4.38E-07,  avg # of iterations =  3.0

     total cpu time spent up to now is        1.0 secs

     total energy              =     -25.24752409 Ry
     estimated scf accuracy    <       0.00005032 Ry

     iteration #  3     ecut=    25.00 Ry     beta= 0.70
     Davidson diagonalization with overlap
     ethr =  4.38E-07,  avg # of iterations =  1.0

     total cpu time spent up to now is        1.0 secs

     total energy              =     -25.24751659 Ry
     estimated scf accuracy    <       0.00001561 Ry

     iteration #  4     ecut=    25.00 Ry     beta= 0.70
     Davidson diagonalization with overlap
     ethr =  1.56E-07,  avg # of iterations =  2.0

     total cpu time spent up to now is        1.0 secs

     total energy              =     -25.24751902 Ry
     estimated scf accuracy    <       0.00000013 Ry

     iteration #  5     ecut=    25.00 Ry     beta= 0.70
     Davidson diagonalization with overlap
     ethr =  1.27E-09,  avg # of iterations =  4.0

     total cpu time spent up to now is        1.0 secs

     total energy              =     -25.24751918 Ry
     estimated scf accuracy    <       0.00000016 Ry

     iteration #  6     ecut=    25.00 Ry     beta= 0.70
     Davidson diagonalization with overlap
     ethr =  1.27E-09,  avg # of iterations =  1.0

     total cpu time spent up to now is        1.0 secs

     End of self-consistent calculation

          k = 0.0000 0.0000 0.0000 (   266 PWs)   bands (ev):

   -10.8743  -4.4635  -1.2436  -0.8004  -0.3647   3.8844   4.0373   4.5690
     4.5846

     the Fermi energy is     1.0600 ev

!    total energy              =     -25.24751919 Ry
     estimated scf accuracy    <       0.00000002 Ry
     smearing contrib. (-TS)   =       0.00000000 Ry
     internal energy E=F+TS    =     -25.24751919 Ry

     convergence has been achieved in   6 iterations

     Forces acting on atoms (cartesian axes, Ry/au):

     atom    1 type  1   force =    -0.00338820   -0.00380746   -0.00315725
     atom    2 type  1   force =     0.00338820    0.00380746    0.00315725

     Total force =     0.008479     Total SCF correction =     0.000065


     Computing stress (Cartesian axis) and pressure

          total   stress  (Ry/bohr**3)                   (kbar)     P=       -6.42
  -0.00008090  -0.00007673  -0.00004771          -11.90      -11.29       -7.02
  -0.00007673  -0.00005872  -0.00008493          -11.29       -8.64      -12.49
  -0.00004771  -0.00008493   0.00000866           -7.02      -12.49        1.27


     Entering Dynamics;  it =    49   time =  0.34832 pico-seconds

  new lattice vectors (alat unit) :
   1.384133612  -0.273577013  -0.212137014
   0.509010446   0.999564423  -0.140672261
   0.495260251   0.173746742   0.953089966
  new unit-cell volume =    547.9605 (a.u.)^3
  new positions in cryst coord
As       0.001704634   0.307721907   0.306836059
As      -0.001704634  -0.307721907  -0.306836059
  new positions in cart coord (alat unit)
As       0.310956811   0.360433288   0.248792817
As      -0.310956811  -0.360433288  -0.248792817

     Ekin =     0.00552554 Ry    T = 5812.9 K  Etot =      -25.24199365
     new unit-cell volume =    547.96052 a.u.^3 (    81.19937 Ang^3 )
     density =      3.06343 g/cm^3

CELL_PARAMETERS (alat=  7.01033620)
   1.384133612  -0.273577013  -0.212137014
   0.509010446   0.999564423  -0.140672261
   0.495260251   0.173746742   0.953089966

ATOMIC_POSITIONS (alat)
As            0.3109568106        0.3604332879        0.2487928171
As           -0.3109568106       -0.3604332879       -0.2487928171



     Writing output data file ./pwscf.save/
     NEW-OLD atomic charge density approx. for the potential
     extrapolated charge    9.94223, renormalised to   10.00000

     total cpu time spent up to now is        1.0 secs

     Self-consistent Calculation

     iteration #  1     ecut=    25.00 Ry     beta= 0.70
     Davidson diagonalization with overlap
     ethr =  1.00E-06,  avg # of iterations =  7.0

     total cpu time spent up to now is        1.0 secs

     total energy              =     -25.24888709 Ry
     estimated scf accuracy    <       0.00005445 Ry

     iteration #  2     ecut=    25.00 Ry     beta= 0.70
     Davidson diagonalization with overlap
     ethr =  5.44E-07,  avg # of iterations =  3.0

     total cpu time spent up to now is        1.0 secs

     total energy              =     -25.24897594 Ry
     estimated scf accuracy    <       0.00005724 Ry

     iteration #  3     ecut=    25.00 Ry     beta= 0.70
     Davidson diagonalization with overlap
     ethr =  5.44E-07,  avg # of iterations =  1.0

     total cpu time spent up to now is        1.0 secs

     total energy              =     -25.24896831 Ry
     estimated scf accuracy    <       0.00001656 Ry

     iteration #  4     ecut=    25.00 Ry     beta= 0.70
     Davidson diagonalization with overlap
     ethr =  1.66E-07,  avg # of iterations =  2.0

     total cpu time spent up to now is        1.0 secs

     End of self-consistent calculation

          k = 0.0000 0.0000 0.0000 (   266 PWs)   bands (ev):

   -10.8510  -4.4594  -1.2368  -0.7740  -0.3056   3.9989   4.0510   4.6174
     4.6636

     the Fermi energy is     1.1251 ev

!    total energy              =     -25.24897101 Ry
     estimated scf accuracy    <       0.00000006 Ry
     smearing contrib. (-TS)   =       0.00000000 Ry
     internal energy E=F+TS    =     -25.24897101 Ry

     convergence has been achieved in   4 iterations

     Forces acting on atoms (cartesian axes, Ry/au):

     atom    1 type  1   force =    -0.00233845   -0.00261697   -0.00215923
     atom    2 type  1   force =     0.00233845    0.00261697    0.00215923

     Total force =     0.005827     Total SCF correction =     0.000074


     Computing stress (Cartesian axis) and pressure

          total   stress  (Ry/bohr**3)                   (kbar)     P=       -8.30
  -0.00009381  -0.00009989  -0.00006266          -13.80      -14.69       -9.22
  -0.00009989  -0.00007624  -0.00009577          -14.69      -11.21      -14.09
  -0.00006266  -0.00009577   0.00000069           -9.22      -14.09        0.10


     Entering Dynamics;  it =    50   time =  0.35558 pico-seconds

  new lattice vectors (alat unit) :
   1.379631154  -0.275299650  -0.213188811
   0.502938795   0.995536540  -0.146971675
   0.488940949   0.166449090   0.952887008
  new unit-cell volume =    544.3989 (a.u.)^3
  new positions in cryst coord
As       0.001693480   0.305540714   0.304448582
As      -0.001693480  -0.305540714  -0.304448582
  new positions in cart coord (alat unit)
As       0.304862035   0.354385920   0.244838236
As      -0.304862035  -0.354385920  -0.244838236

     Ekin =     0.00700945 Ry    T = 5699.3 K  Etot =      -25.24196156
     new unit-cell volume =    544.39888 a.u.^3 (    80.67159 Ang^3 )
     density =      3.08347 g/cm^3

CELL_PARAMETERS (alat=  7.01033620)
   1.379631154  -0.275299650  -0.213188811
   0.502938795   0.995536540  -0.146971675
   0.488940949   0.166449090   0.952887008

ATOMIC_POSITIONS (alat)
As            0.3048620351        0.3543859205        0.2448382364
As           -0.3048620351       -0.3543859205       -0.2448382364



     Maximum number of iterations reached, stopping

     Writing output data file ./pwscf.save/
     NEW-OLD atomic charge density approx. for the potential
     extrapolated charge    9.93458, renormalised to   10.00000

     Writing output data file ./pwscf.save/
 
     init_run     :      0.01s CPU      0.01s WALL (       1 calls)
     electrons    :      0.38s CPU      0.45s WALL (      50 calls)
     update_pot   :      0.15s CPU      0.16s WALL (      50 calls)
     forces       :      0.06s CPU      0.07s WALL (      50 calls)
     stress       :      0.11s CPU      0.12s WALL (      50 calls)

     Called by init_run:
     wfcinit      :      0.00s CPU      0.00s WALL (       1 calls)
     potinit      :      0.00s CPU      0.00s WALL (       1 calls)
     hinit0       :      0.01s CPU      0.01s WALL (       1 calls)

     Called by electrons:
     c_bands      :      0.25s CPU      0.29s WALL (     294 calls)
     sum_band     :      0.05s CPU      0.06s WALL (     294 calls)
     v_of_rho     :      0.04s CPU      0.05s WALL (     341 calls)
     mix_rho      :      0.02s CPU      0.03s WALL (     294 calls)

     Called by c_bands:
     init_us_2    :      0.00s CPU      0.01s WALL (     589 calls)
     regterg      :      0.24s CPU      0.28s WALL (     294 calls)

     Called by *egterg:
     rdiaghg      :      0.06s CPU      0.07s WALL (    1022 calls)
     h_psi        :      0.15s CPU      0.17s WALL (    1076 calls)
     g_psi        :      0.00s CPU      0.00s WALL (     781 calls)

     Called by h_psi:
     h_psi:calbec :      0.01s CPU      0.01s WALL (    1076 calls)
     vloc_psi     :      0.13s CPU      0.15s WALL (    1076 calls)
     add_vuspsi   :      0.00s CPU      0.00s WALL (    1076 calls)

     General routines
     calbec       :      0.01s CPU      0.01s WALL (    1326 calls)
     fft          :      0.04s CPU      0.04s WALL (    1277 calls)
     ffts         :      0.01s CPU      0.01s WALL (     294 calls)
     fftw         :      0.13s CPU      0.15s WALL (    9752 calls)
 
     Parallel routines
 
     PWSCF        :      0.89s CPU      1.05s WALL

 
   This run was terminated on:   3: 6:26   6Feb2021            

=------------------------------------------------------------------------------=
   JOB DONE.
=------------------------------------------------------------------------------=
