                                                                                      
                                       ``:oss/                                        
                           `.+s+.     .+ys--yh+     `./ss+.                           
                          -sh//yy+`   +yy   +yy    -+h+-oyy                           
                          -yh- .oyy/.-sh.   .syo-.:sy-  /yh                           
                 `.-.`    `yh+   -oyyyo.     `/syys:    oys      `.`                  
               `/+ssys+-` `sh+      `                   oys`   .:osyo`                
               -yh- ./syyooyo`                          .sys+/oyo--yh/                
               `yy+    .-:-.                             `-/+/:`  -sh-                
                /yh.                                              oys                 
          ``..---hho---------`   .---------..`      `.-----.`    -hd+---.             
       `./osmNMMMMMMMMMMMMMMMs. +NNMMMMMMMMNNmh+.   yNMMMMMNm-  oNMMMMMNmo++:`        
       +sy--/sdMMMhyyyyyyyNMMh- .oyNMMmyyyyyhNMMm+` -yMMMdyyo:` .oyyNMMNhs+syy`       
       -yy/   /MMM+.`-+/``mMMy-   `mMMh:`````.dMMN:` `MMMy-`-dhhy```mMMy:``+hs        
        -yy+` /MMMo:-mMM+`-oo/.    mMMh:     `dMMN/`  dMMm:`dMMMMy..MMMo-.+yo`        
         .sys`/MMMMNNMMMs-         mMMmyooooymMMNo:   oMMM/sMMMMMM++MMN//oh:          
          `sh+/MMMhyyMMMs- `-`     mMMMMMMMMMNmy+-`   -MMMhMMMsmMMmdMMd/yy+           
    `-/+++oyy-/MMM+.`/hh/.`mNm:`   mMMd+/////:-.`      NMMMMMd/:NMMMMMy:/yyo/:.`      
   +os+//:-..-oMMMo:--:::-/MMMo. .-mMMd+---`           hMMMMN+. oMMMMMo. `-+osyso:`   
   syo     `mNMMMMMNNNNNNNNMMMo.oNNMMMMMNNNN:`         +MMMMs:`  dMMMN/`     ``:syo   
   /yh`     :syyyyyyyyyyyyyyyy+.`+syyyyyyyyo:`         .oyys:`   .oyys:`        +yh   
   -yh-        ````````````````    `````````              ``        ``          oys   
   -+h/------------------------::::::::://////++++++++++++++++++++++///////::::/yd:   
   shdddddddddddddddddddddddddddddhhhhhhhhyyyyyssssssssssssssssyyyyyyyhhhhhhhddddh`   
                                                                                      
  S. Ponce, E. R. Margine, C. Verdi, and F. Giustino, http://arxiv.org/abs/1604.03525 
                                                                                      

     Program EPW v.4.0.0 (svn rev. 12601) starts on 22Jul2016 at 14:25:32 

     This program is part of the open-source Quantum ESPRESSO suite
     for quantum simulation of materials; please cite
         "P. Giannozzi et al., J. Phys.:Condens. Matter 21 395502 (2009);
          URL http://www.quantum-espresso.org", 
     in publications or presentations arising from this work. More details at
     http://www.quantum-espresso.org/quote

           HOST :    @host@
           ARCH :    x86_64
             CC :    cc
            CPP :    cpp
            F90 :    mpif90
            F77 :    gfortran
         DFLAGS :    -D__GFORTRAN -D__STD_F95 -D__FFTW -D__MPI -D__PARA
      BLAS LIBS :    /home/sponce/program/espresso/BLAS/blas.a
    LAPACK LIBS :    /home/sponce/program/espresso/lapack-3.2/lapack.a
       FFT LIBS :    
      MASS LIBS :    

     Parallel version (MPI), running on     1 processors

     Reading data from directory:
     ./pb.save

   Info: using nr1, nr2, nr3 values from input

   Info: using nr1, nr2, nr3 values from input

     IMPORTANT: XC functional enforced from input :
     Exchange-correlation      = PZ ( 1  1  0  0 0 0)
     Any further DFT definition will be discarded
     Please, verify this is what you really want


     G-vector sticks info
     --------------------
     sticks:   dense  smooth     PW     G-vecs:    dense   smooth      PW
     Sum         703     703    211                12387    12387    2109


     --                                                                         

     bravais-lattice index     =            2
     lattice parameter (a_0)   =       9.2700  a.u.
     unit-cell volume          =     199.1495 (a.u.)^3
     number of atoms/cell      =            1
     number of atomic types    =            1
     kinetic-energy cut-off    =      60.0000  Ry
     charge density cut-off    =     240.0000  Ry
     convergence threshold     =      0.0E+00
     beta                      =       0.0000
     number of iterations used =            0
     Exchange-correlation      = PZ ( 1  1  0  0 0 0)


     celldm(1)=    9.27000  celldm(2)=    0.00000  celldm(3)=    0.00000
     celldm(4)=    0.00000  celldm(5)=    0.00000  celldm(6)=    0.00000

     crystal axes: (cart. coord. in units of a_0)
               a(1) = ( -0.5000  0.0000  0.5000 )  
               a(2) = (  0.0000  0.5000  0.5000 )  
               a(3) = ( -0.5000  0.5000  0.0000 )  

     reciprocal axes: (cart. coord. in units 2 pi/a_0)
               b(1) = ( -1.0000 -1.0000  1.0000 )  
               b(2) = (  1.0000  1.0000  1.0000 )  
               b(3) = ( -1.0000  1.0000 -1.0000 )  


     Atoms inside the unit cell: 

   Cartesian axes

     site n.  atom      mass           positions (a_0 units)
        1        Pb 207.2175   tau( 1) = (    0.00000    0.00000    0.00000  )

     49 Sym.Ops. (with q -> -q+G )


     G cutoff =  522.4094  (  12387 G-vectors)     FFT grid: ( 36, 36, 36)
     number of k points=   27  gaussian broad. (Ry)=  0.0200     ngauss =   1
                       cart. coord. in units 2pi/a_0
        k(    1) = (   0.0000000   0.0000000   0.0000000), wk =   0.0740741
        k(    2) = (  -0.3333333   0.3333333  -0.3333333), wk =   0.0740741
        k(    3) = (  -0.6666667   0.6666667  -0.6666667), wk =   0.0740741
        k(    4) = (   0.3333333   0.3333333   0.3333333), wk =   0.0740741
        k(    5) = (   0.0000000   0.6666667   0.0000000), wk =   0.0740741
        k(    6) = (  -0.3333333   1.0000000  -0.3333333), wk =   0.0740741
        k(    7) = (   0.6666667   0.6666667   0.6666667), wk =   0.0740741
        k(    8) = (   0.3333333   1.0000000   0.3333333), wk =   0.0740741
        k(    9) = (   0.0000000   1.3333333   0.0000000), wk =   0.0740741
        k(   10) = (  -0.3333333  -0.3333333   0.3333333), wk =   0.0740741
        k(   11) = (  -0.6666667   0.0000000   0.0000000), wk =   0.0740741
        k(   12) = (  -1.0000000   0.3333333  -0.3333333), wk =   0.0740741
        k(   13) = (   0.0000000   0.0000000   0.6666667), wk =   0.0740741
        k(   14) = (  -0.3333333   0.3333333   0.3333333), wk =   0.0740741
        k(   15) = (  -0.6666667   0.6666667  -0.0000000), wk =   0.0740741
        k(   16) = (   0.3333333   0.3333333   1.0000000), wk =   0.0740741
        k(   17) = (   0.0000000   0.6666667   0.6666667), wk =   0.0740741
        k(   18) = (  -0.3333333   1.0000000   0.3333333), wk =   0.0740741
        k(   19) = (  -0.6666667  -0.6666667   0.6666667), wk =   0.0740741
        k(   20) = (  -1.0000000  -0.3333333   0.3333333), wk =   0.0740741
        k(   21) = (  -1.3333333   0.0000000   0.0000000), wk =   0.0740741
        k(   22) = (  -0.3333333  -0.3333333   1.0000000), wk =   0.0740741
        k(   23) = (  -0.6666667  -0.0000000   0.6666667), wk =   0.0740741
        k(   24) = (  -1.0000000   0.3333333   0.3333333), wk =   0.0740741
        k(   25) = (   0.0000000   0.0000000   1.3333333), wk =   0.0740741
        k(   26) = (  -0.3333333   0.3333333   1.0000000), wk =   0.0740741
        k(   27) = (  -0.6666667   0.6666667   0.6666667), wk =   0.0740741

     PseudoPot. # 1 for Pb read from file:
     ./pb_s.UPF
     MD5 check sum: 7774f596943a2055f0d8d19eea6f2ae8
     Pseudo is Norm-conserving, Zval = 14.0
     Generated using "atomic" code by A. Dal Corso  (Quantum ESPRESSO distribution)
     Using radial grid of 1281 points,  2 beta functions with: 
                l(1) =   2
                l(2) =   1
     EPW          :     0.73s CPU         0.37s WALL

     EPW          :     1.56s CPU         0.78s WALL

     No wavefunction gauge setting applied
     -------------------------------------------------------------------
     Wannierization on  3 x  3 x  3 electronic grid
     -------------------------------------------------------------------

     Spin CASE ( default = unpolarized )

     Initializing Wannier90


     Initial Wannier projections

     (   0.00000   0.00000   0.00000) :  l =  -3 mr =   1
     (   0.00000   0.00000   0.00000) :  l =  -3 mr =   2
     (   0.00000   0.00000   0.00000) :  l =  -3 mr =   3
     (   0.00000   0.00000   0.00000) :  l =  -3 mr =   4

      - Number of bands is ( 11)
      - Number of wannier functions is (  4)
      - All guiding functions are given 

  Reading data about k-point neighbours 

      - All neighbours are found 

     AMN
      k points =    27 in    1 pools
            1 of   27 on ionode
            2 of   27 on ionode
            3 of   27 on ionode
            4 of   27 on ionode
            5 of   27 on ionode
            6 of   27 on ionode
            7 of   27 on ionode
            8 of   27 on ionode
            9 of   27 on ionode
           10 of   27 on ionode
           11 of   27 on ionode
           12 of   27 on ionode
           13 of   27 on ionode
           14 of   27 on ionode
           15 of   27 on ionode
           16 of   27 on ionode
           17 of   27 on ionode
           18 of   27 on ionode
           19 of   27 on ionode
           20 of   27 on ionode
           21 of   27 on ionode
           22 of   27 on ionode
           23 of   27 on ionode
           24 of   27 on ionode
           25 of   27 on ionode
           26 of   27 on ionode
           27 of   27 on ionode

     AMN calculated

     MMN
      k points =    27 in    1 pools
            1 of   27 on ionode
            2 of   27 on ionode
            3 of   27 on ionode
            4 of   27 on ionode
            5 of   27 on ionode
            6 of   27 on ionode
            7 of   27 on ionode
            8 of   27 on ionode
            9 of   27 on ionode
           10 of   27 on ionode
           11 of   27 on ionode
           12 of   27 on ionode
           13 of   27 on ionode
           14 of   27 on ionode
           15 of   27 on ionode
           16 of   27 on ionode
           17 of   27 on ionode
           18 of   27 on ionode
           19 of   27 on ionode
           20 of   27 on ionode
           21 of   27 on ionode
           22 of   27 on ionode
           23 of   27 on ionode
           24 of   27 on ionode
           25 of   27 on ionode
           26 of   27 on ionode
           27 of   27 on ionode
     MMN calculated

     Running Wannier90

     Wannier Function centers (cartesian, alat) and spreads (ang):

     (   0.08268   0.08268   0.08268) :   1.58499
     (   0.08268  -0.08268  -0.08268) :   1.58499
     (  -0.08268   0.08268  -0.08268) :   1.58499
     (  -0.08268  -0.08268   0.08268) :   1.58499

     -------------------------------------------------------------------
     WANNIER      :     27.28s CPU     13.66s WALL (       1 calls)
     -------------------------------------------------------------------

     Dipole matrix elements calculated


     Calculating kmap and kgmap
     Progress  kmap: ###########################
     Progress kgmap: ########################################
     kmaps        :      4.07s CPU      2.04s WALL (       1 calls)
     Symmetries of bravais lattice:  48
     Symmetries of crystal:          48


     ===================================================================
     irreducible q point #    1
     ===================================================================

     Symmetries of small group of q: 48
          in addition sym. q -> -q+G:

     Number of q in the star =    1
     List of q in the star:
          1   0.000000000   0.000000000   0.000000000
        Imposing acoustic sum rule on the dynamical matrix

        q(    1 ) = (   0.0000000   0.0000000   0.0000000 )


     ===================================================================
     irreducible q point #    2
     ===================================================================

     Symmetries of small group of q:  6

     Number of q in the star =    8
     List of q in the star:
          1  -0.333333333   0.333333333  -0.333333333
          2   0.333333333   0.333333333  -0.333333333
          3   0.333333333   0.333333333   0.333333333
          4  -0.333333333   0.333333333   0.333333333
          5   0.333333333  -0.333333333   0.333333333
          6  -0.333333333  -0.333333333  -0.333333333
          7   0.333333333  -0.333333333  -0.333333333
          8  -0.333333333  -0.333333333   0.333333333

        q(    2 ) = (  -0.3333333   0.3333333  -0.3333333 )
        q(    3 ) = (   0.3333333   0.3333333  -0.3333333 )
        q(    4 ) = (   0.3333333   0.3333333   0.3333333 )
        q(    5 ) = (  -0.3333333   0.3333333   0.3333333 )
        q(    6 ) = (   0.3333333  -0.3333333   0.3333333 )
        q(    7 ) = (  -0.3333333  -0.3333333  -0.3333333 )
        q(    8 ) = (   0.3333333  -0.3333333  -0.3333333 )
        q(    9 ) = (  -0.3333333  -0.3333333   0.3333333 )


     ===================================================================
     irreducible q point #    3
     ===================================================================

     Symmetries of small group of q:  8

     Number of q in the star =    6
     List of q in the star:
          1   0.000000000   0.666666667   0.000000000
          2  -0.666666667   0.000000000   0.000000000
          3   0.000000000  -0.666666667   0.000000000
          4   0.000000000   0.000000000   0.666666667
          5   0.000000000   0.000000000  -0.666666667
          6   0.666666667   0.000000000   0.000000000

        q(   10 ) = (   0.0000000   0.6666667   0.0000000 )
        q(   11 ) = (  -0.6666667   0.0000000   0.0000000 )
        q(   12 ) = (   0.0000000  -0.6666667   0.0000000 )
        q(   13 ) = (   0.0000000   0.0000000   0.6666667 )
        q(   14 ) = (   0.0000000   0.0000000  -0.6666667 )
        q(   15 ) = (   0.6666667   0.0000000   0.0000000 )


     ===================================================================
     irreducible q point #    4
     ===================================================================

     Symmetries of small group of q:  4

     Number of q in the star =   12
     List of q in the star:
          1   0.666666667   0.000000000   0.666666667
          2   0.666666667   0.000000000  -0.666666667
          3  -0.666666667   0.000000000  -0.666666667
          4  -0.666666667   0.000000000   0.666666667
          5   0.000000000  -0.666666667   0.666666667
          6  -0.666666667   0.666666667   0.000000000
          7  -0.666666667  -0.666666667   0.000000000
          8   0.666666667   0.666666667   0.000000000
          9   0.666666667  -0.666666667   0.000000000
         10   0.000000000   0.666666667   0.666666667
         11   0.000000000   0.666666667  -0.666666667
         12   0.000000000  -0.666666667  -0.666666667

        q(   16 ) = (   0.6666667   0.0000000   0.6666667 )
        q(   17 ) = (   0.6666667   0.0000000  -0.6666667 )
        q(   18 ) = (  -0.6666667   0.0000000  -0.6666667 )
        q(   19 ) = (  -0.6666667   0.0000000   0.6666667 )
        q(   20 ) = (   0.0000000  -0.6666667   0.6666667 )
        q(   21 ) = (  -0.6666667   0.6666667   0.0000000 )
        q(   22 ) = (  -0.6666667  -0.6666667   0.0000000 )
        q(   23 ) = (   0.6666667   0.6666667   0.0000000 )
        q(   24 ) = (   0.6666667  -0.6666667   0.0000000 )
        q(   25 ) = (   0.0000000   0.6666667   0.6666667 )
        q(   26 ) = (   0.0000000   0.6666667  -0.6666667 )
        q(   27 ) = (   0.0000000  -0.6666667  -0.6666667 )

     Writing epmatq on .epb files


     The .epb files have been correctly written


              band disentanglement is used:  nbndsub =    4

     Writing Hamiltonian, Dynamical matrix and EP vertex in Wann rep to file


     Reading Hamiltonian, Dynamical matrix and EP vertex in Wann rep from file


     Finished reading Wann rep data from file

     Using uniform q-mesh:    6   6   6
     Size of q point mesh for interpolation:        216
     Using uniform k-mesh:    6   6   6
     Size of k point mesh for interpolation:        432
     Max number of k points per pool:              432

     Fermi energy coarse grid =   9.797928 eV

     Skipping the first    5 bands:

     The Fermi level will be determined with   4.00000 electrons

     Fermi energy is calculated from the fine k-mesh: Ef =  11.759000 eV

     Warning: check if difference with Fermi level fine grid makes sense

     ===================================================================

              ibndmin =     2  ebndmin =     0.501
              ibndmax =     4  ebndmax =     1.265


     Number of ep-matrix elements per pool :         5832 ~=   45.56 Kb (@ 8 bytes/ DP)

     ===================================================================
     Phonon (Imaginary) Self-Energy in the Migdal Approximation
     ===================================================================


     Fermi Surface thickness =   6.000000 eV

     Golden Rule strictly enforced with T =   0.172347 eV
     Gaussian Broadening:   1.000000 eV, ngauss=   1
     DOS =  0.295677 states/spin/eV/Unit Cell at Ef= 11.759000 eV

     ismear =     1 iq =       1 coord.:   0.00000  0.00000  0.00000 wt:   0.00463
     -------------------------------------------------------------------
     lambda(   1 )=       0.000000   gamma=       0.000000 meV   omega=      0.0000 meV
     lambda(   2 )=       0.000000   gamma=       0.000000 meV   omega=      0.0000 meV
     lambda(   3 )=       0.000000   gamma=       0.000000 meV   omega=      0.0000 meV
     lambda( tot )=       0.000000
     -------------------------------------------------------------------


     Number of (k,k+q) pairs on the Fermi surface:      215 out of      216


     ===================================================================
     Electron (Imaginary) Self-Energy in the Migdal Approximation
     ===================================================================


     Fermi Surface thickness =   6.000000 eV

     Golden Rule strictly enforced with T =   0.172347 eV
     Gaussian Broadening:   1.000000 eV, ngauss=   1
     DOS =  0.295677 states/spin/eV/Unit Cell at Ef= 11.759000 eV
 

     ismear =     1 iq =       2 coord.:   0.00000  0.00000  0.16667 wt:   0.00463
     -------------------------------------------------------------------
     lambda(   1 )=       0.000000   gamma=       0.000000 meV   omega=     -3.4591 meV
     lambda(   2 )=       0.000000   gamma=       0.000000 meV   omega=     -1.6973 meV
     lambda(   3 )=       0.000000   gamma=       0.000000 meV   omega=     -1.6973 meV
     lambda( tot )=       0.000000
     -------------------------------------------------------------------


     Number of (k,k+q) pairs on the Fermi surface:      214 out of      216


     ismear =     1 iq =       3 coord.:   0.00000  0.00000  0.33333 wt:   0.00463
     -------------------------------------------------------------------
     lambda(   1 )=       0.000000   gamma=       0.000000 meV   omega=     -3.3764 meV
     lambda(   2 )=       0.210949   gamma=       0.001658 meV   omega=      2.9085 meV
     lambda(   3 )=       0.210955   gamma=       0.001658 meV   omega=      2.9085 meV
     lambda( tot )=       0.421903
     -------------------------------------------------------------------


     Number of (k,k+q) pairs on the Fermi surface:      214 out of      216


     ismear =     1 iq =       4 coord.:   0.00000  0.00000  0.50000 wt:   0.00463
     -------------------------------------------------------------------
     lambda(   1 )=      56.778020   gamma=       0.059644 meV   omega=      1.0634 meV
     lambda(   2 )=      -0.336916   gamma=      -0.007098 meV   omega=      4.7624 meV
     lambda(   3 )=      -0.336917   gamma=      -0.007098 meV   omega=      4.7624 meV
     lambda( tot )=      56.104188
     -------------------------------------------------------------------


     Number of (k,k+q) pairs on the Fermi surface:      214 out of      216


     ismear =     1 iq =       5 coord.:   0.00000  0.00000  0.66667 wt:   0.00463
     -------------------------------------------------------------------
     lambda(   1 )=       0.000000   gamma=       0.000000 meV   omega=     -3.3764 meV
     lambda(   2 )=       0.210955   gamma=       0.001658 meV   omega=      2.9085 meV
     lambda(   3 )=       0.210948   gamma=       0.001658 meV   omega=      2.9085 meV
     lambda( tot )=       0.421903
     -------------------------------------------------------------------


     Number of (k,k+q) pairs on the Fermi surface:      214 out of      216


     ismear =     1 iq =       6 coord.:   0.00000  0.00000  0.83333 wt:   0.00463
     -------------------------------------------------------------------
     lambda(   1 )=       0.000000   gamma=       0.000000 meV   omega=     -3.4591 meV
     lambda(   2 )=       0.000000   gamma=       0.000000 meV   omega=     -1.6973 meV
     lambda(   3 )=       0.000000   gamma=       0.000000 meV   omega=     -1.6973 meV
     lambda( tot )=       0.000000
     -------------------------------------------------------------------


     Number of (k,k+q) pairs on the Fermi surface:      214 out of      216


     ismear =     1 iq =       7 coord.:   0.00000  0.16667  0.00000 wt:   0.00463
     -------------------------------------------------------------------
     lambda(   1 )=       0.000000   gamma=       0.000000 meV   omega=     -3.4591 meV
     lambda(   2 )=       0.000000   gamma=       0.000000 meV   omega=     -1.6973 meV
     lambda(   3 )=       0.000000   gamma=       0.000000 meV   omega=     -1.6973 meV
     lambda( tot )=       0.000000
     -------------------------------------------------------------------


     Number of (k,k+q) pairs on the Fermi surface:      214 out of      216


     ismear =     1 iq =       8 coord.:   0.00000  0.16667  0.16667 wt:   0.00463
     -------------------------------------------------------------------
     lambda(   1 )=       0.000000   gamma=       0.000000 meV   omega=     -4.7009 meV
     lambda(   2 )=       0.000000   gamma=       0.000000 meV   omega=     -4.7009 meV
     lambda(   3 )=       1.431448   gamma=       0.027898 meV   omega=      4.5805 meV
     lambda( tot )=       1.431448
     -------------------------------------------------------------------


     Number of (k,k+q) pairs on the Fermi surface:      214 out of      216


     ismear =     1 iq =       9 coord.:   0.00000  0.16667  0.33333 wt:   0.00463
     -------------------------------------------------------------------
     lambda(   1 )=       0.000000   gamma=       0.000000 meV   omega=     -4.7033 meV
     lambda(   2 )=       0.000000   gamma=       0.000000 meV   omega=     -4.2534 meV
     lambda(   3 )=      -0.074412   gamma=      -0.002572 meV   omega=      6.0999 meV
     lambda( tot )=      -0.074412
     -------------------------------------------------------------------


     Number of (k,k+q) pairs on the Fermi surface:      214 out of      216


     ismear =     1 iq =      10 coord.:   0.00000  0.16667  0.50000 wt:   0.00463
     -------------------------------------------------------------------
     lambda(   1 )=      -0.848350   gamma=      -0.006869 meV   omega=      2.9524 meV
     lambda(   2 )=       0.073346   gamma=       0.000903 meV   omega=      3.6397 meV
     lambda(   3 )=      -0.411986   gamma=      -0.015257 meV   omega=      6.3140 meV
     lambda( tot )=      -1.186989
     -------------------------------------------------------------------


     Number of (k,k+q) pairs on the Fermi surface:      214 out of      216


     ismear =     1 iq =      11 coord.:   0.00000  0.16667  0.66667 wt:   0.00463
     -------------------------------------------------------------------
     lambda(   1 )=     -26.310362   gamma=      -0.088542 meV   omega=      1.9034 meV
     lambda(   2 )=       0.986837   gamma=       0.018931 meV   omega=      4.5444 meV
     lambda(   3 )=       1.016739   gamma=       0.022174 meV   omega=      4.8454 meV
     lambda( tot )=     -24.306785
     -------------------------------------------------------------------


     Number of (k,k+q) pairs on the Fermi surface:      214 out of      216


     ismear =     1 iq =      12 coord.:   0.00000  0.16667  0.83333 wt:   0.00463
     -------------------------------------------------------------------
     lambda(   1 )=       0.000000   gamma=       0.000000 meV   omega=     -4.8509 meV
     lambda(   2 )=      -8.869771   gamma=      -0.004793 meV   omega=      0.7627 meV
     lambda(   3 )=       0.047002   gamma=       0.000496 meV   omega=      3.3699 meV
     lambda( tot )=      -8.822768
     -------------------------------------------------------------------


     Number of (k,k+q) pairs on the Fermi surface:      214 out of      216


     ismear =     1 iq =      13 coord.:   0.00000  0.33333  0.00000 wt:   0.00463
     -------------------------------------------------------------------
     lambda(   1 )=       0.000000   gamma=       0.000000 meV   omega=     -3.3764 meV
     lambda(   2 )=       0.210950   gamma=       0.001658 meV   omega=      2.9085 meV
     lambda(   3 )=       0.210954   gamma=       0.001658 meV   omega=      2.9085 meV
     lambda( tot )=       0.421904
     -------------------------------------------------------------------


     Number of (k,k+q) pairs on the Fermi surface:      214 out of      216


     ismear =     1 iq =      14 coord.:   0.00000  0.33333  0.16667 wt:   0.00463
     -------------------------------------------------------------------
     lambda(   1 )=       0.000000   gamma=       0.000000 meV   omega=     -4.7033 meV
     lambda(   2 )=       0.000000   gamma=       0.000000 meV   omega=     -4.2534 meV
     lambda(   3 )=      -0.074407   gamma=      -0.002572 meV   omega=      6.0999 meV
     lambda( tot )=      -0.074407
     -------------------------------------------------------------------


     Number of (k,k+q) pairs on the Fermi surface:      214 out of      216


     ismear =     1 iq =      15 coord.:   0.00000  0.33333  0.33333 wt:   0.00463
     -------------------------------------------------------------------
     lambda(   1 )=       0.000000   gamma=       0.000000 meV   omega=     -5.3620 meV
     lambda(   2 )=       0.000000   gamma=       0.000000 meV   omega=     -5.3620 meV
     lambda(   3 )=       0.097145   gamma=       0.006194 meV   omega=      8.2852 meV
     lambda( tot )=       0.097145
     -------------------------------------------------------------------


     Number of (k,k+q) pairs on the Fermi surface:      214 out of      216


     ismear =     1 iq =      16 coord.:   0.00000  0.33333  0.50000 wt:   0.00463
     -------------------------------------------------------------------
     lambda(   1 )=       0.000000   gamma=       0.000000 meV   omega=     -2.1785 meV
     lambda(   2 )=       0.000000   gamma=       0.000000 meV   omega=     -0.9751 meV
     lambda(   3 )=       0.026950   gamma=       0.001969 meV   omega=      8.8679 meV
     lambda( tot )=       0.026950
     -------------------------------------------------------------------


     Number of (k,k+q) pairs on the Fermi surface:      214 out of      216


     ismear =     1 iq =      17 coord.:   0.00000  0.33333  0.66667 wt:   0.00463
     -------------------------------------------------------------------
     lambda(   1 )=       0.219238   gamma=       0.004263 meV   omega=      4.5752 meV
     lambda(   2 )=       0.058564   gamma=       0.001625 meV   omega=      5.4660 meV
     lambda(   3 )=       0.130987   gamma=       0.006111 meV   omega=      7.0867 meV
     lambda( tot )=       0.408789
     -------------------------------------------------------------------


     Number of (k,k+q) pairs on the Fermi surface:      214 out of      216


     ismear =     1 iq =      18 coord.:   0.00000  0.33333  0.83333 wt:   0.00463
     -------------------------------------------------------------------
     lambda(   1 )=     -26.309613   gamma=      -0.088539 meV   omega=      1.9034 meV
     lambda(   2 )=       0.986859   gamma=       0.018931 meV   omega=      4.5444 meV
     lambda(   3 )=       1.016754   gamma=       0.022174 meV   omega=      4.8454 meV
     lambda( tot )=     -24.306000
     -------------------------------------------------------------------


     Number of (k,k+q) pairs on the Fermi surface:      214 out of      216


     ismear =     1 iq =      19 coord.:   0.00000  0.50000  0.00000 wt:   0.00463
     -------------------------------------------------------------------
     lambda(   1 )=      56.777958   gamma=       0.059644 meV   omega=      1.0634 meV
     lambda(   2 )=      -0.336918   gamma=      -0.007098 meV   omega=      4.7624 meV
     lambda(   3 )=      -0.336916   gamma=      -0.007098 meV   omega=      4.7624 meV
     lambda( tot )=      56.104123
     -------------------------------------------------------------------


     Number of (k,k+q) pairs on the Fermi surface:      214 out of      216


     ismear =     1 iq =      20 coord.:   0.00000  0.50000  0.16667 wt:   0.00463
     -------------------------------------------------------------------
     lambda(   1 )=      -0.848348   gamma=      -0.006869 meV   omega=      2.9524 meV
     lambda(   2 )=       0.073335   gamma=       0.000902 meV   omega=      3.6397 meV
     lambda(   3 )=      -0.411984   gamma=      -0.015257 meV   omega=      6.3140 meV
     lambda( tot )=      -1.186997
     -------------------------------------------------------------------


     Number of (k,k+q) pairs on the Fermi surface:      214 out of      216


     ismear =     1 iq =      21 coord.:   0.00000  0.50000  0.33333 wt:   0.00463
     -------------------------------------------------------------------
     lambda(   1 )=       0.000000   gamma=       0.000000 meV   omega=     -2.1785 meV
     lambda(   2 )=       0.000000   gamma=       0.000000 meV   omega=     -0.9751 meV
     lambda(   3 )=       0.026951   gamma=       0.001969 meV   omega=      8.8679 meV
     lambda( tot )=       0.026951
     -------------------------------------------------------------------


     Number of (k,k+q) pairs on the Fermi surface:      214 out of      216


     ismear =     1 iq =      22 coord.:   0.00000  0.50000  0.50000 wt:   0.00463
     -------------------------------------------------------------------
     lambda(   1 )=       0.000000   gamma=       0.000000 meV   omega=     -3.6478 meV
     lambda(   2 )=       0.000000   gamma=       0.000000 meV   omega=     -3.6478 meV
     lambda(   3 )=       0.440190   gamma=       0.038979 meV   omega=      9.7636 meV
     lambda( tot )=       0.440190
     -------------------------------------------------------------------


     Number of (k,k+q) pairs on the Fermi surface:      214 out of      216


     ismear =     1 iq =      23 coord.:   0.00000  0.50000  0.66667 wt:   0.00463
     -------------------------------------------------------------------
     lambda(   1 )=       0.000000   gamma=       0.000000 meV   omega=     -2.1785 meV
     lambda(   2 )=       0.000000   gamma=       0.000000 meV   omega=     -0.9751 meV
     lambda(   3 )=       0.026954   gamma=       0.001969 meV   omega=      8.8679 meV
     lambda( tot )=       0.026954
     -------------------------------------------------------------------


     Number of (k,k+q) pairs on the Fermi surface:      214 out of      216


     ismear =     1 iq =      24 coord.:   0.00000  0.50000  0.83333 wt:   0.00463
     -------------------------------------------------------------------
     lambda(   1 )=      -0.848190   gamma=      -0.006867 meV   omega=      2.9524 meV
     lambda(   2 )=       0.073354   gamma=       0.000903 meV   omega=      3.6397 meV
     lambda(   3 )=      -0.411979   gamma=      -0.015256 meV   omega=      6.3140 meV
     lambda( tot )=      -1.186816
     -------------------------------------------------------------------


     Number of (k,k+q) pairs on the Fermi surface:      214 out of      216


     ismear =     1 iq =      25 coord.:   0.00000  0.66667  0.00000 wt:   0.00463
     -------------------------------------------------------------------
     lambda(   1 )=       0.000000   gamma=       0.000000 meV   omega=     -3.3764 meV
     lambda(   2 )=       0.210950   gamma=       0.001658 meV   omega=      2.9085 meV
     lambda(   3 )=       0.210953   gamma=       0.001658 meV   omega=      2.9085 meV
     lambda( tot )=       0.421902
     -------------------------------------------------------------------


     Number of (k,k+q) pairs on the Fermi surface:      214 out of      216


     ismear =     1 iq =      26 coord.:   0.00000  0.66667  0.16667 wt:   0.00463
     -------------------------------------------------------------------
     lambda(   1 )=     -26.310343   gamma=      -0.088542 meV   omega=      1.9034 meV
     lambda(   2 )=       0.986838   gamma=       0.018931 meV   omega=      4.5444 meV
     lambda(   3 )=       1.016740   gamma=       0.022174 meV   omega=      4.8454 meV
     lambda( tot )=     -24.306766
     -------------------------------------------------------------------


     Number of (k,k+q) pairs on the Fermi surface:      214 out of      216


     ismear =     1 iq =      27 coord.:   0.00000  0.66667  0.33333 wt:   0.00463
     -------------------------------------------------------------------
     lambda(   1 )=       0.219238   gamma=       0.004263 meV   omega=      4.5752 meV
     lambda(   2 )=       0.058564   gamma=       0.001625 meV   omega=      5.4660 meV
     lambda(   3 )=       0.130987   gamma=       0.006111 meV   omega=      7.0867 meV
     lambda( tot )=       0.408789
     -------------------------------------------------------------------


     Number of (k,k+q) pairs on the Fermi surface:      214 out of      216


     ismear =     1 iq =      28 coord.:   0.00000  0.66667  0.50000 wt:   0.00463
     -------------------------------------------------------------------
     lambda(   1 )=       0.000000   gamma=       0.000000 meV   omega=     -2.1785 meV
     lambda(   2 )=       0.000000   gamma=       0.000000 meV   omega=     -0.9751 meV
     lambda(   3 )=       0.026954   gamma=       0.001969 meV   omega=      8.8679 meV
     lambda( tot )=       0.026954
     -------------------------------------------------------------------


     Number of (k,k+q) pairs on the Fermi surface:      214 out of      216


     ismear =     1 iq =      29 coord.:   0.00000  0.66667  0.66667 wt:   0.00463
     -------------------------------------------------------------------
     lambda(   1 )=       0.000000   gamma=       0.000000 meV   omega=     -5.3620 meV
     lambda(   2 )=       0.000000   gamma=       0.000000 meV   omega=     -5.3620 meV
     lambda(   3 )=       0.097144   gamma=       0.006194 meV   omega=      8.2852 meV
     lambda( tot )=       0.097144
     -------------------------------------------------------------------


     Number of (k,k+q) pairs on the Fermi surface:      214 out of      216


     ismear =     1 iq =      30 coord.:   0.00000  0.66667  0.83333 wt:   0.00463
     -------------------------------------------------------------------
     lambda(   1 )=       0.000000   gamma=       0.000000 meV   omega=     -4.7033 meV
     lambda(   2 )=       0.000000   gamma=       0.000000 meV   omega=     -4.2534 meV
     lambda(   3 )=      -0.074390   gamma=      -0.002571 meV   omega=      6.0999 meV
     lambda( tot )=      -0.074390
     -------------------------------------------------------------------


     Number of (k,k+q) pairs on the Fermi surface:      214 out of      216


     ismear =     1 iq =      31 coord.:   0.00000  0.83333  0.00000 wt:   0.00463
     -------------------------------------------------------------------
     lambda(   1 )=       0.000000   gamma=       0.000000 meV   omega=     -3.4591 meV
     lambda(   2 )=       0.000000   gamma=       0.000000 meV   omega=     -1.6973 meV
     lambda(   3 )=       0.000000   gamma=       0.000000 meV   omega=     -1.6973 meV
     lambda( tot )=       0.000000
     -------------------------------------------------------------------


     Number of (k,k+q) pairs on the Fermi surface:      214 out of      216


     ismear =     1 iq =      32 coord.:   0.00000  0.83333  0.16667 wt:   0.00463
     -------------------------------------------------------------------
     lambda(   1 )=       0.000000   gamma=       0.000000 meV   omega=     -4.8509 meV
     lambda(   2 )=      -8.869963   gamma=      -0.004793 meV   omega=      0.7627 meV
     lambda(   3 )=       0.046997   gamma=       0.000496 meV   omega=      3.3699 meV
     lambda( tot )=      -8.822967
     -------------------------------------------------------------------


     Number of (k,k+q) pairs on the Fermi surface:      214 out of      216


     ismear =     1 iq =      33 coord.:   0.00000  0.83333  0.33333 wt:   0.00463
     -------------------------------------------------------------------
     lambda(   1 )=     -26.309555   gamma=      -0.088539 meV   omega=      1.9034 meV
     lambda(   2 )=       0.986859   gamma=       0.018931 meV   omega=      4.5444 meV
     lambda(   3 )=       1.016755   gamma=       0.022174 meV   omega=      4.8454 meV
     lambda( tot )=     -24.305941
     -------------------------------------------------------------------


     Number of (k,k+q) pairs on the Fermi surface:      214 out of      216


     ismear =     1 iq =      34 coord.:   0.00000  0.83333  0.50000 wt:   0.00463
     -------------------------------------------------------------------
     lambda(   1 )=      -0.848196   gamma=      -0.006868 meV   omega=      2.9524 meV
     lambda(   2 )=       0.073369   gamma=       0.000903 meV   omega=      3.6397 meV
     lambda(   3 )=      -0.411979   gamma=      -0.015256 meV   omega=      6.3140 meV
     lambda( tot )=      -1.186807
     -------------------------------------------------------------------


     Number of (k,k+q) pairs on the Fermi surface:      214 out of      216


     ismear =     1 iq =      35 coord.:   0.00000  0.83333  0.66667 wt:   0.00463
     -------------------------------------------------------------------
     lambda(   1 )=       0.000000   gamma=       0.000000 meV   omega=     -4.7033 meV
     lambda(   2 )=       0.000000   gamma=       0.000000 meV   omega=     -4.2534 meV
     lambda(   3 )=      -0.074391   gamma=      -0.002571 meV   omega=      6.0999 meV
     lambda( tot )=      -0.074391
     -------------------------------------------------------------------


     Number of (k,k+q) pairs on the Fermi surface:      214 out of      216


     ismear =     1 iq =      36 coord.:   0.00000  0.83333  0.83333 wt:   0.00463
     -------------------------------------------------------------------
     lambda(   1 )=       0.000000   gamma=       0.000000 meV   omega=     -4.7009 meV
     lambda(   2 )=       0.000000   gamma=       0.000000 meV   omega=     -4.7009 meV
     lambda(   3 )=       1.431443   gamma=       0.027897 meV   omega=      4.5805 meV
     lambda( tot )=       1.431443
     -------------------------------------------------------------------


     Number of (k,k+q) pairs on the Fermi surface:      214 out of      216


     ismear =     1 iq =      37 coord.:   0.16667  0.00000  0.00000 wt:   0.00463
     -------------------------------------------------------------------
     lambda(   1 )=       0.000000   gamma=       0.000000 meV   omega=     -3.4591 meV
     lambda(   2 )=       0.000000   gamma=       0.000000 meV   omega=     -1.6973 meV
     lambda(   3 )=       0.000000   gamma=       0.000000 meV   omega=     -1.6973 meV
     lambda( tot )=       0.000000
     -------------------------------------------------------------------


     Number of (k,k+q) pairs on the Fermi surface:      214 out of      216


     ismear =     1 iq =      38 coord.:   0.16667  0.00000  0.16667 wt:   0.00463
     -------------------------------------------------------------------
     lambda(   1 )=       0.000000   gamma=       0.000000 meV   omega=     -4.7009 meV
     lambda(   2 )=       0.000000   gamma=       0.000000 meV   omega=     -4.7009 meV
     lambda(   3 )=       1.431445   gamma=       0.027898 meV   omega=      4.5805 meV
     lambda( tot )=       1.431445
     -------------------------------------------------------------------


     Number of (k,k+q) pairs on the Fermi surface:      214 out of      216


     ismear =     1 iq =      39 coord.:   0.16667  0.00000  0.33333 wt:   0.00463
     -------------------------------------------------------------------
     lambda(   1 )=       0.000000   gamma=       0.000000 meV   omega=     -4.7033 meV
     lambda(   2 )=       0.000000   gamma=       0.000000 meV   omega=     -4.2534 meV
     lambda(   3 )=      -0.074413   gamma=      -0.002572 meV   omega=      6.0999 meV
     lambda( tot )=      -0.074413
     -------------------------------------------------------------------


     Number of (k,k+q) pairs on the Fermi surface:      214 out of      216


     ismear =     1 iq =      40 coord.:   0.16667  0.00000  0.50000 wt:   0.00463
     -------------------------------------------------------------------
     lambda(   1 )=      -0.848352   gamma=      -0.006869 meV   omega=      2.9524 meV
     lambda(   2 )=       0.073354   gamma=       0.000903 meV   omega=      3.6397 meV
     lambda(   3 )=      -0.411987   gamma=      -0.015257 meV   omega=      6.3140 meV
     lambda( tot )=      -1.186985
     -------------------------------------------------------------------


     Number of (k,k+q) pairs on the Fermi surface:      214 out of      216


     ismear =     1 iq =      41 coord.:   0.16667  0.00000  0.66667 wt:   0.00463
     -------------------------------------------------------------------
     lambda(   1 )=     -26.310322   gamma=      -0.088542 meV   omega=      1.9034 meV
     lambda(   2 )=       0.986841   gamma=       0.018931 meV   omega=      4.5444 meV
     lambda(   3 )=       1.016740   gamma=       0.022174 meV   omega=      4.8454 meV
     lambda( tot )=     -24.306741
     -------------------------------------------------------------------


     Number of (k,k+q) pairs on the Fermi surface:      214 out of      216


     ismear =     1 iq =      42 coord.:   0.16667  0.00000  0.83333 wt:   0.00463
     -------------------------------------------------------------------
     lambda(   1 )=       0.000000   gamma=       0.000000 meV   omega=     -4.8509 meV
     lambda(   2 )=      -8.869723   gamma=      -0.004793 meV   omega=      0.7627 meV
     lambda(   3 )=       0.047014   gamma=       0.000496 meV   omega=      3.3699 meV
     lambda( tot )=      -8.822709
     -------------------------------------------------------------------


     Number of (k,k+q) pairs on the Fermi surface:      214 out of      216


     ismear =     1 iq =      43 coord.:   0.16667  0.16667  0.00000 wt:   0.00463
     -------------------------------------------------------------------
     lambda(   1 )=       0.000000   gamma=       0.000000 meV   omega=     -4.7009 meV
     lambda(   2 )=       0.000000   gamma=       0.000000 meV   omega=     -4.7009 meV
     lambda(   3 )=       1.431447   gamma=       0.027898 meV   omega=      4.5805 meV
     lambda( tot )=       1.431447
     -------------------------------------------------------------------


     Number of (k,k+q) pairs on the Fermi surface:      214 out of      216


     ismear =     1 iq =      44 coord.:   0.16667  0.16667  0.16667 wt:   0.00463
     -------------------------------------------------------------------
     lambda(   1 )=       0.000000   gamma=       0.000000 meV   omega=     -3.4591 meV
     lambda(   2 )=       0.000000   gamma=       0.000000 meV   omega=     -1.6973 meV
     lambda(   3 )=       0.000000   gamma=       0.000000 meV   omega=     -1.6973 meV
     lambda( tot )=       0.000000
     -------------------------------------------------------------------


     Number of (k,k+q) pairs on the Fermi surface:      214 out of      216


     ismear =     1 iq =      45 coord.:   0.16667  0.16667  0.33333 wt:   0.00463
     -------------------------------------------------------------------
     lambda(   1 )=       0.000000   gamma=       0.000000 meV   omega=     -4.8509 meV
     lambda(   2 )=      -8.869701   gamma=      -0.004793 meV   omega=      0.7627 meV
     lambda(   3 )=       0.047000   gamma=       0.000496 meV   omega=      3.3699 meV
     lambda( tot )=      -8.822701
     -------------------------------------------------------------------


     Number of (k,k+q) pairs on the Fermi surface:      214 out of      216


     ismear =     1 iq =      46 coord.:   0.16667  0.16667  0.50000 wt:   0.00463
     -------------------------------------------------------------------
     lambda(   1 )=     -26.309835   gamma=      -0.088540 meV   omega=      1.9034 meV
     lambda(   2 )=       0.986847   gamma=       0.018931 meV   omega=      4.5444 meV
     lambda(   3 )=       1.016717   gamma=       0.022173 meV   omega=      4.8454 meV
     lambda( tot )=     -24.306271
     -------------------------------------------------------------------


     Number of (k,k+q) pairs on the Fermi surface:      214 out of      216


     ismear =     1 iq =      47 coord.:   0.16667  0.16667  0.66667 wt:   0.00463
     -------------------------------------------------------------------
     lambda(   1 )=      -0.848251   gamma=      -0.006868 meV   omega=      2.9524 meV
     lambda(   2 )=       0.073351   gamma=       0.000903 meV   omega=      3.6397 meV
     lambda(   3 )=      -0.411999   gamma=      -0.015257 meV   omega=      6.3140 meV
     lambda( tot )=      -1.186899
     -------------------------------------------------------------------


     Number of (k,k+q) pairs on the Fermi surface:      214 out of      216


     ismear =     1 iq =      48 coord.:   0.16667  0.16667  0.83333 wt:   0.00463
     -------------------------------------------------------------------
     lambda(   1 )=       0.000000   gamma=       0.000000 meV   omega=     -4.7033 meV
     lambda(   2 )=       0.000000   gamma=       0.000000 meV   omega=     -4.2534 meV
     lambda(   3 )=      -0.074398   gamma=      -0.002571 meV   omega=      6.0999 meV
     lambda( tot )=      -0.074398
     -------------------------------------------------------------------


     Number of (k,k+q) pairs on the Fermi surface:      214 out of      216


     ismear =     1 iq =      49 coord.:   0.16667  0.33333  0.00000 wt:   0.00463
     -------------------------------------------------------------------
     lambda(   1 )=       0.000000   gamma=       0.000000 meV   omega=     -4.7033 meV
     lambda(   2 )=       0.000000   gamma=       0.000000 meV   omega=     -4.2534 meV
     lambda(   3 )=      -0.074407   gamma=      -0.002572 meV   omega=      6.0999 meV
     lambda( tot )=      -0.074407
     -------------------------------------------------------------------


     Number of (k,k+q) pairs on the Fermi surface:      214 out of      216


     ismear =     1 iq =      50 coord.:   0.16667  0.33333  0.16667 wt:   0.00463
     -------------------------------------------------------------------
     lambda(   1 )=       0.000000   gamma=       0.000000 meV   omega=     -4.8509 meV
     lambda(   2 )=      -8.869804   gamma=      -0.004793 meV   omega=      0.7627 meV
     lambda(   3 )=       0.047020   gamma=       0.000496 meV   omega=      3.3699 meV
     lambda( tot )=      -8.822785
     -------------------------------------------------------------------


     Number of (k,k+q) pairs on the Fermi surface:      214 out of      216


     ismear =     1 iq =      51 coord.:   0.16667  0.33333  0.33333 wt:   0.00463
     -------------------------------------------------------------------
     lambda(   1 )=       0.000000   gamma=       0.000000 meV   omega=     -4.7033 meV
     lambda(   2 )=       0.000000   gamma=       0.000000 meV   omega=     -4.2534 meV
     lambda(   3 )=      -0.074391   gamma=      -0.002571 meV   omega=      6.0999 meV
     lambda( tot )=      -0.074391
     -------------------------------------------------------------------


     Number of (k,k+q) pairs on the Fermi surface:      214 out of      216


     ismear =     1 iq =      52 coord.:   0.16667  0.33333  0.50000 wt:   0.00463
     -------------------------------------------------------------------
     lambda(   1 )=       0.000000   gamma=       0.000000 meV   omega=     -1.3773 meV
     lambda(   2 )=     128.169734   gamma=       0.052447 meV   omega=      0.6637 meV
     lambda(   3 )=      -0.057444   gamma=      -0.002922 meV   omega=      7.4003 meV
     lambda( tot )=     128.112290
     -------------------------------------------------------------------


     Number of (k,k+q) pairs on the Fermi surface:      214 out of      216


     ismear =     1 iq =      53 coord.:   0.16667  0.33333  0.66667 wt:   0.00463
     -------------------------------------------------------------------
     lambda(   1 )=      -2.112264   gamma=      -0.033312 meV   omega=      4.1204 meV
     lambda(   2 )=      -0.079379   gamma=      -0.002972 meV   omega=      6.3489 meV
     lambda(   3 )=      -0.552862   gamma=      -0.022465 meV   omega=      6.6140 meV
     lambda( tot )=      -2.744505
     -------------------------------------------------------------------


     Number of (k,k+q) pairs on the Fermi surface:      214 out of      216


     ismear =     1 iq =      54 coord.:   0.16667  0.33333  0.83333 wt:   0.00463
     -------------------------------------------------------------------
     lambda(   1 )=       0.000000   gamma=       0.000000 meV   omega=     -1.3773 meV
     lambda(   2 )=     128.177151   gamma=       0.052450 meV   omega=      0.6637 meV
     lambda(   3 )=      -0.057445   gamma=      -0.002922 meV   omega=      7.4003 meV
     lambda( tot )=     128.119705
     -------------------------------------------------------------------


     Number of (k,k+q) pairs on the Fermi surface:      214 out of      216


     ismear =     1 iq =      55 coord.:   0.16667  0.50000  0.00000 wt:   0.00463
     -------------------------------------------------------------------
     lambda(   1 )=      -0.848313   gamma=      -0.006868 meV   omega=      2.9524 meV
     lambda(   2 )=       0.073345   gamma=       0.000903 meV   omega=      3.6397 meV
     lambda(   3 )=      -0.411975   gamma=      -0.015256 meV   omega=      6.3140 meV
     lambda( tot )=      -1.186944
     -------------------------------------------------------------------


     Number of (k,k+q) pairs on the Fermi surface:      214 out of      216


     ismear =     1 iq =      56 coord.:   0.16667  0.50000  0.16667 wt:   0.00463
     -------------------------------------------------------------------
     lambda(   1 )=     -26.309654   gamma=      -0.088540 meV   omega=      1.9034 meV
     lambda(   2 )=       0.986854   gamma=       0.018931 meV   omega=      4.5444 meV
     lambda(   3 )=       1.016757   gamma=       0.022174 meV   omega=      4.8454 meV
     lambda( tot )=     -24.306043
     -------------------------------------------------------------------


     Number of (k,k+q) pairs on the Fermi surface:      214 out of      216


     ismear =     1 iq =      57 coord.:   0.16667  0.50000  0.33333 wt:   0.00463
     -------------------------------------------------------------------
     lambda(   1 )=       0.000000   gamma=       0.000000 meV   omega=     -1.3773 meV
     lambda(   2 )=     128.169441   gamma=       0.052447 meV   omega=      0.6637 meV
     lambda(   3 )=      -0.057438   gamma=      -0.002922 meV   omega=      7.4003 meV
     lambda( tot )=     128.112003
     -------------------------------------------------------------------


     Number of (k,k+q) pairs on the Fermi surface:      214 out of      216


     ismear =     1 iq =      58 coord.:   0.16667  0.50000  0.50000 wt:   0.00463
     -------------------------------------------------------------------
     lambda(   1 )=       0.000000   gamma=       0.000000 meV   omega=     -2.1785 meV
     lambda(   2 )=       0.000000   gamma=       0.000000 meV   omega=     -0.9751 meV
     lambda(   3 )=       0.026952   gamma=       0.001969 meV   omega=      8.8679 meV
     lambda( tot )=       0.026952
     -------------------------------------------------------------------


     Number of (k,k+q) pairs on the Fermi surface:      214 out of      216


     ismear =     1 iq =      59 coord.:   0.16667  0.50000  0.66667 wt:   0.00463
     -------------------------------------------------------------------
     lambda(   1 )=       4.392000   gamma=       0.040518 meV   omega=      3.1514 meV
     lambda(   2 )=      -1.082698   gamma=      -0.021290 meV   omega=      4.6010 meV
     lambda(   3 )=      -0.416134   gamma=      -0.029179 meV   omega=      8.6883 meV
     lambda( tot )=       2.893168
     -------------------------------------------------------------------


     Number of (k,k+q) pairs on the Fermi surface:      214 out of      216


     ismear =     1 iq =      60 coord.:   0.16667  0.50000  0.83333 wt:   0.00463
     -------------------------------------------------------------------
     lambda(   1 )=      -2.112269   gamma=      -0.033312 meV   omega=      4.1204 meV
     lambda(   2 )=      -0.079379   gamma=      -0.002972 meV   omega=      6.3489 meV
     lambda(   3 )=      -0.552844   gamma=      -0.022465 meV   omega=      6.6140 meV
     lambda( tot )=      -2.744492
     -------------------------------------------------------------------


     Number of (k,k+q) pairs on the Fermi surface:      214 out of      216


     ismear =     1 iq =      61 coord.:   0.16667  0.66667  0.00000 wt:   0.00463
     -------------------------------------------------------------------
     lambda(   1 )=     -26.310266   gamma=      -0.088542 meV   omega=      1.9034 meV
     lambda(   2 )=       0.986841   gamma=       0.018931 meV   omega=      4.5444 meV
     lambda(   3 )=       1.016760   gamma=       0.022174 meV   omega=      4.8454 meV
     lambda( tot )=     -24.306665
     -------------------------------------------------------------------


     Number of (k,k+q) pairs on the Fermi surface:      214 out of      216


     ismear =     1 iq =      62 coord.:   0.16667  0.66667  0.16667 wt:   0.00463
     -------------------------------------------------------------------
     lambda(   1 )=      -0.848210   gamma=      -0.006868 meV   omega=      2.9524 meV
     lambda(   2 )=       0.073338   gamma=       0.000902 meV   omega=      3.6397 meV
     lambda(   3 )=      -0.411982   gamma=      -0.015257 meV   omega=      6.3140 meV
     lambda( tot )=      -1.186854
     -------------------------------------------------------------------


     Number of (k,k+q) pairs on the Fermi surface:      214 out of      216


     ismear =     1 iq =      63 coord.:   0.16667  0.66667  0.33333 wt:   0.00463
     -------------------------------------------------------------------
     lambda(   1 )=      -2.112274   gamma=      -0.033312 meV   omega=      4.1204 meV
     lambda(   2 )=      -0.079377   gamma=      -0.002972 meV   omega=      6.3489 meV
     lambda(   3 )=      -0.552853   gamma=      -0.022465 meV   omega=      6.6140 meV
     lambda( tot )=      -2.744503
     -------------------------------------------------------------------


     Number of (k,k+q) pairs on the Fermi surface:      214 out of      216


     ismear =     1 iq =      64 coord.:   0.16667  0.66667  0.50000 wt:   0.00463
     -------------------------------------------------------------------
     lambda(   1 )=       4.392011   gamma=       0.040518 meV   omega=      3.1514 meV
     lambda(   2 )=      -1.082704   gamma=      -0.021290 meV   omega=      4.6010 meV
     lambda(   3 )=      -0.416136   gamma=      -0.029179 meV   omega=      8.6883 meV
     lambda( tot )=       2.893172
     -------------------------------------------------------------------


     Number of (k,k+q) pairs on the Fermi surface:      214 out of      216


     ismear =     1 iq =      65 coord.:   0.16667  0.66667  0.66667 wt:   0.00463
     -------------------------------------------------------------------
     lambda(   1 )=       0.000000   gamma=       0.000000 meV   omega=     -2.1785 meV
     lambda(   2 )=       0.000000   gamma=       0.000000 meV   omega=     -0.9751 meV
     lambda(   3 )=       0.026955   gamma=       0.001969 meV   omega=      8.8679 meV
     lambda( tot )=       0.026955
     -------------------------------------------------------------------


     Number of (k,k+q) pairs on the Fermi surface:      214 out of      216


     ismear =     1 iq =      66 coord.:   0.16667  0.66667  0.83333 wt:   0.00463
     -------------------------------------------------------------------
     lambda(   1 )=       0.000000   gamma=       0.000000 meV   omega=     -1.3773 meV
     lambda(   2 )=     128.166117   gamma=       0.052445 meV   omega=      0.6637 meV
     lambda(   3 )=      -0.057441   gamma=      -0.002922 meV   omega=      7.4003 meV
     lambda( tot )=     128.108676
     -------------------------------------------------------------------


     Number of (k,k+q) pairs on the Fermi surface:      214 out of      216


     ismear =     1 iq =      67 coord.:   0.16667  0.83333  0.00000 wt:   0.00463
     -------------------------------------------------------------------
     lambda(   1 )=       0.000000   gamma=       0.000000 meV   omega=     -4.8509 meV
     lambda(   2 )=      -8.869826   gamma=      -0.004793 meV   omega=      0.7627 meV
     lambda(   3 )=       0.047036   gamma=       0.000496 meV   omega=      3.3699 meV
     lambda( tot )=      -8.822790
     -------------------------------------------------------------------


     Number of (k,k+q) pairs on the Fermi surface:      214 out of      216


     ismear =     1 iq =      68 coord.:   0.16667  0.83333  0.16667 wt:   0.00463
     -------------------------------------------------------------------
     lambda(   1 )=       0.000000   gamma=       0.000000 meV   omega=     -4.7033 meV
     lambda(   2 )=       0.000000   gamma=       0.000000 meV   omega=     -4.2534 meV
     lambda(   3 )=      -0.074393   gamma=      -0.002571 meV   omega=      6.0999 meV
     lambda( tot )=      -0.074393
     -------------------------------------------------------------------


     Number of (k,k+q) pairs on the Fermi surface:      214 out of      216


     ismear =     1 iq =      69 coord.:   0.16667  0.83333  0.33333 wt:   0.00463
     -------------------------------------------------------------------
     lambda(   1 )=       0.000000   gamma=       0.000000 meV   omega=     -1.3773 meV
     lambda(   2 )=     128.176824   gamma=       0.052450 meV   omega=      0.6637 meV
     lambda(   3 )=      -0.057446   gamma=      -0.002922 meV   omega=      7.4003 meV
     lambda( tot )=     128.119378
     -------------------------------------------------------------------


     Number of (k,k+q) pairs on the Fermi surface:      214 out of      216


     ismear =     1 iq =      70 coord.:   0.16667  0.83333  0.50000 wt:   0.00463
     -------------------------------------------------------------------
     lambda(   1 )=      -2.112260   gamma=      -0.033312 meV   omega=      4.1204 meV
     lambda(   2 )=      -0.079378   gamma=      -0.002972 meV   omega=      6.3489 meV
     lambda(   3 )=      -0.552847   gamma=      -0.022465 meV   omega=      6.6140 meV
     lambda( tot )=      -2.744485
     -------------------------------------------------------------------


     Number of (k,k+q) pairs on the Fermi surface:      214 out of      216


     ismear =     1 iq =      71 coord.:   0.16667  0.83333  0.66667 wt:   0.00463
     -------------------------------------------------------------------
     lambda(   1 )=       0.000000   gamma=       0.000000 meV   omega=     -1.3773 meV
     lambda(   2 )=     128.166524   gamma=       0.052446 meV   omega=      0.6637 meV
     lambda(   3 )=      -0.057443   gamma=      -0.002922 meV   omega=      7.4003 meV
     lambda( tot )=     128.109081
     -------------------------------------------------------------------


     Number of (k,k+q) pairs on the Fermi surface:      214 out of      216


     ismear =     1 iq =      72 coord.:   0.16667  0.83333  0.83333 wt:   0.00463
     -------------------------------------------------------------------
     lambda(   1 )=       0.000000   gamma=       0.000000 meV   omega=     -4.7033 meV
     lambda(   2 )=       0.000000   gamma=       0.000000 meV   omega=     -4.2534 meV
     lambda(   3 )=      -0.074408   gamma=      -0.002572 meV   omega=      6.0999 meV
     lambda( tot )=      -0.074408
     -------------------------------------------------------------------


     Number of (k,k+q) pairs on the Fermi surface:      214 out of      216


     ismear =     1 iq =      73 coord.:   0.33333  0.00000  0.00000 wt:   0.00463
     -------------------------------------------------------------------
     lambda(   1 )=       0.000000   gamma=       0.000000 meV   omega=     -3.3764 meV
     lambda(   2 )=       0.210950   gamma=       0.001658 meV   omega=      2.9085 meV
     lambda(   3 )=       0.210953   gamma=       0.001658 meV   omega=      2.9085 meV
     lambda( tot )=       0.421904
     -------------------------------------------------------------------


     Number of (k,k+q) pairs on the Fermi surface:      214 out of      216


     ismear =     1 iq =      74 coord.:   0.33333  0.00000  0.16667 wt:   0.00463
     -------------------------------------------------------------------
     lambda(   1 )=       0.000000   gamma=       0.000000 meV   omega=     -4.7033 meV
     lambda(   2 )=       0.000000   gamma=       0.000000 meV   omega=     -4.2534 meV
     lambda(   3 )=      -0.074409   gamma=      -0.002572 meV   omega=      6.0999 meV
     lambda( tot )=      -0.074409
     -------------------------------------------------------------------


     Number of (k,k+q) pairs on the Fermi surface:      214 out of      216


     ismear =     1 iq =      75 coord.:   0.33333  0.00000  0.33333 wt:   0.00463
     -------------------------------------------------------------------
     lambda(   1 )=       0.000000   gamma=       0.000000 meV   omega=     -5.3620 meV
     lambda(   2 )=       0.000000   gamma=       0.000000 meV   omega=     -5.3620 meV
     lambda(   3 )=       0.097145   gamma=       0.006194 meV   omega=      8.2852 meV
     lambda( tot )=       0.097145
     -------------------------------------------------------------------


     Number of (k,k+q) pairs on the Fermi surface:      214 out of      216


     ismear =     1 iq =      76 coord.:   0.33333  0.00000  0.50000 wt:   0.00463
     -------------------------------------------------------------------
     lambda(   1 )=       0.000000   gamma=       0.000000 meV   omega=     -2.1785 meV
     lambda(   2 )=       0.000000   gamma=       0.000000 meV   omega=     -0.9751 meV
     lambda(   3 )=       0.026950   gamma=       0.001969 meV   omega=      8.8679 meV
     lambda( tot )=       0.026950
     -------------------------------------------------------------------


     Number of (k,k+q) pairs on the Fermi surface:      214 out of      216


     ismear =     1 iq =      77 coord.:   0.33333  0.00000  0.66667 wt:   0.00463
     -------------------------------------------------------------------
     lambda(   1 )=       0.219238   gamma=       0.004263 meV   omega=      4.5752 meV
     lambda(   2 )=       0.058564   gamma=       0.001625 meV   omega=      5.4660 meV
     lambda(   3 )=       0.130987   gamma=       0.006111 meV   omega=      7.0867 meV
     lambda( tot )=       0.408789
     -------------------------------------------------------------------


     Number of (k,k+q) pairs on the Fermi surface:      214 out of      216


     ismear =     1 iq =      78 coord.:   0.33333  0.00000  0.83333 wt:   0.00463
     -------------------------------------------------------------------
     lambda(   1 )=     -26.309567   gamma=      -0.088539 meV   omega=      1.9034 meV
     lambda(   2 )=       0.986856   gamma=       0.018931 meV   omega=      4.5444 meV
     lambda(   3 )=       1.016759   gamma=       0.022174 meV   omega=      4.8454 meV
     lambda( tot )=     -24.305952
     -------------------------------------------------------------------


     Number of (k,k+q) pairs on the Fermi surface:      214 out of      216


     ismear =     1 iq =      79 coord.:   0.33333  0.16667  0.00000 wt:   0.00463
     -------------------------------------------------------------------
     lambda(   1 )=       0.000000   gamma=       0.000000 meV   omega=     -4.7033 meV
     lambda(   2 )=       0.000000   gamma=       0.000000 meV   omega=     -4.2534 meV
     lambda(   3 )=      -0.074408   gamma=      -0.002572 meV   omega=      6.0999 meV
     lambda( tot )=      -0.074408
     -------------------------------------------------------------------


     Number of (k,k+q) pairs on the Fermi surface:      214 out of      216


     ismear =     1 iq =      80 coord.:   0.33333  0.16667  0.16667 wt:   0.00463
     -------------------------------------------------------------------
     lambda(   1 )=       0.000000   gamma=       0.000000 meV   omega=     -4.8509 meV
     lambda(   2 )=      -8.869960   gamma=      -0.004793 meV   omega=      0.7627 meV
     lambda(   3 )=       0.047024   gamma=       0.000496 meV   omega=      3.3699 meV
     lambda( tot )=      -8.822936
     -------------------------------------------------------------------


     Number of (k,k+q) pairs on the Fermi surface:      214 out of      216


     ismear =     1 iq =      81 coord.:   0.33333  0.16667  0.33333 wt:   0.00463
     -------------------------------------------------------------------
     lambda(   1 )=       0.000000   gamma=       0.000000 meV   omega=     -4.7033 meV
     lambda(   2 )=       0.000000   gamma=       0.000000 meV   omega=     -4.2534 meV
     lambda(   3 )=      -0.074390   gamma=      -0.002571 meV   omega=      6.0999 meV
     lambda( tot )=      -0.074390
     -------------------------------------------------------------------


     Number of (k,k+q) pairs on the Fermi surface:      214 out of      216


     ismear =     1 iq =      82 coord.:   0.33333  0.16667  0.50000 wt:   0.00463
     -------------------------------------------------------------------
     lambda(   1 )=       0.000000   gamma=       0.000000 meV   omega=     -1.3773 meV
     lambda(   2 )=     128.167942   gamma=       0.052446 meV   omega=      0.6637 meV
     lambda(   3 )=      -0.057444   gamma=      -0.002922 meV   omega=      7.4003 meV
     lambda( tot )=     128.110498
     -------------------------------------------------------------------


     Number of (k,k+q) pairs on the Fermi surface:      214 out of      216


     ismear =     1 iq =      83 coord.:   0.33333  0.16667  0.66667 wt:   0.00463
     -------------------------------------------------------------------
     lambda(   1 )=      -2.112268   gamma=      -0.033312 meV   omega=      4.1204 meV
     lambda(   2 )=      -0.079379   gamma=      -0.002972 meV   omega=      6.3489 meV
     lambda(   3 )=      -0.552862   gamma=      -0.022465 meV   omega=      6.6140 meV
     lambda( tot )=      -2.744508
     -------------------------------------------------------------------


     Number of (k,k+q) pairs on the Fermi surface:      214 out of      216


     ismear =     1 iq =      84 coord.:   0.33333  0.16667  0.83333 wt:   0.00463
     -------------------------------------------------------------------
     lambda(   1 )=       0.000000   gamma=       0.000000 meV   omega=     -1.3773 meV
     lambda(   2 )=     128.177044   gamma=       0.052450 meV   omega=      0.6637 meV
     lambda(   3 )=      -0.057446   gamma=      -0.002922 meV   omega=      7.4003 meV
     lambda( tot )=     128.119598
     -------------------------------------------------------------------


     Number of (k,k+q) pairs on the Fermi surface:      214 out of      216


     ismear =     1 iq =      85 coord.:   0.33333  0.33333  0.00000 wt:   0.00463
     -------------------------------------------------------------------
     lambda(   1 )=       0.000000   gamma=       0.000000 meV   omega=     -5.3620 meV
     lambda(   2 )=       0.000000   gamma=       0.000000 meV   omega=     -5.3620 meV
     lambda(   3 )=       0.097144   gamma=       0.006194 meV   omega=      8.2852 meV
     lambda( tot )=       0.097144
     -------------------------------------------------------------------


     Number of (k,k+q) pairs on the Fermi surface:      214 out of      216


     ismear =     1 iq =      86 coord.:   0.33333  0.33333  0.16667 wt:   0.00463
     -------------------------------------------------------------------
     lambda(   1 )=       0.000000   gamma=       0.000000 meV   omega=     -4.7033 meV
     lambda(   2 )=       0.000000   gamma=       0.000000 meV   omega=     -4.2534 meV
     lambda(   3 )=      -0.074390   gamma=      -0.002571 meV   omega=      6.0999 meV
     lambda( tot )=      -0.074390
     -------------------------------------------------------------------


     Number of (k,k+q) pairs on the Fermi surface:      214 out of      216


     ismear =     1 iq =      87 coord.:   0.33333  0.33333  0.33333 wt:   0.00463
     -------------------------------------------------------------------
     lambda(   1 )=       0.000000   gamma=       0.000000 meV   omega=     -3.3764 meV
     lambda(   2 )=       0.210954   gamma=       0.001658 meV   omega=      2.9085 meV
     lambda(   3 )=       0.210950   gamma=       0.001658 meV   omega=      2.9085 meV
     lambda( tot )=       0.421904
     -------------------------------------------------------------------


     Number of (k,k+q) pairs on the Fermi surface:      214 out of      216


     ismear =     1 iq =      88 coord.:   0.33333  0.33333  0.50000 wt:   0.00463
     -------------------------------------------------------------------
     lambda(   1 )=     -26.310247   gamma=      -0.088542 meV   omega=      1.9034 meV
     lambda(   2 )=       0.986845   gamma=       0.018931 meV   omega=      4.5444 meV
     lambda(   3 )=       1.016757   gamma=       0.022174 meV   omega=      4.8454 meV
     lambda( tot )=     -24.306645
     -------------------------------------------------------------------


     Number of (k,k+q) pairs on the Fermi surface:      214 out of      216


     ismear =     1 iq =      89 coord.:   0.33333  0.33333  0.66667 wt:   0.00463
     -------------------------------------------------------------------
     lambda(   1 )=       0.219241   gamma=       0.004263 meV   omega=      4.5752 meV
     lambda(   2 )=       0.058565   gamma=       0.001625 meV   omega=      5.4660 meV
     lambda(   3 )=       0.130981   gamma=       0.006110 meV   omega=      7.0867 meV
     lambda( tot )=       0.408787
     -------------------------------------------------------------------


     Number of (k,k+q) pairs on the Fermi surface:      214 out of      216


     ismear =     1 iq =      90 coord.:   0.33333  0.33333  0.83333 wt:   0.00463
     -------------------------------------------------------------------
     lambda(   1 )=       0.000000   gamma=       0.000000 meV   omega=     -2.1785 meV
     lambda(   2 )=       0.000000   gamma=       0.000000 meV   omega=     -0.9751 meV
     lambda(   3 )=       0.026947   gamma=       0.001968 meV   omega=      8.8679 meV
     lambda( tot )=       0.026947
     -------------------------------------------------------------------


     Number of (k,k+q) pairs on the Fermi surface:      214 out of      216


     ismear =     1 iq =      91 coord.:   0.33333  0.50000  0.00000 wt:   0.00463
     -------------------------------------------------------------------
     lambda(   1 )=       0.000000   gamma=       0.000000 meV   omega=     -2.1785 meV
     lambda(   2 )=       0.000000   gamma=       0.000000 meV   omega=     -0.9751 meV
     lambda(   3 )=       0.026952   gamma=       0.001969 meV   omega=      8.8679 meV
     lambda( tot )=       0.026952
     -------------------------------------------------------------------


     Number of (k,k+q) pairs on the Fermi surface:      214 out of      216


     ismear =     1 iq =      92 coord.:   0.33333  0.50000  0.16667 wt:   0.00463
     -------------------------------------------------------------------
     lambda(   1 )=       0.000000   gamma=       0.000000 meV   omega=     -1.3773 meV
     lambda(   2 )=     128.168816   gamma=       0.052447 meV   omega=      0.6637 meV
     lambda(   3 )=      -0.057439   gamma=      -0.002922 meV   omega=      7.4003 meV
     lambda( tot )=     128.111377
     -------------------------------------------------------------------


     Number of (k,k+q) pairs on the Fermi surface:      214 out of      216


     ismear =     1 iq =      93 coord.:   0.33333  0.50000  0.33333 wt:   0.00463
     -------------------------------------------------------------------
     lambda(   1 )=     -26.310502   gamma=      -0.088542 meV   omega=      1.9034 meV
     lambda(   2 )=       0.986849   gamma=       0.018931 meV   omega=      4.5444 meV
     lambda(   3 )=       1.016738   gamma=       0.022174 meV   omega=      4.8454 meV
     lambda( tot )=     -24.306915
     -------------------------------------------------------------------


     Number of (k,k+q) pairs on the Fermi surface:      214 out of      216


     ismear =     1 iq =      94 coord.:   0.33333  0.50000  0.50000 wt:   0.00463
     -------------------------------------------------------------------
     lambda(   1 )=      -0.848212   gamma=      -0.006868 meV   omega=      2.9524 meV
     lambda(   2 )=       0.073352   gamma=       0.000903 meV   omega=      3.6397 meV
     lambda(   3 )=      -0.411991   gamma=      -0.015257 meV   omega=      6.3140 meV
     lambda( tot )=      -1.186851
     -------------------------------------------------------------------


     Number of (k,k+q) pairs on the Fermi surface:      214 out of      216


     ismear =     1 iq =      95 coord.:   0.33333  0.50000  0.66667 wt:   0.00463
     -------------------------------------------------------------------
     lambda(   1 )=      -2.112266   gamma=      -0.033312 meV   omega=      4.1204 meV
     lambda(   2 )=      -0.079380   gamma=      -0.002972 meV   omega=      6.3489 meV
     lambda(   3 )=      -0.552849   gamma=      -0.022465 meV   omega=      6.6140 meV
     lambda( tot )=      -2.744496
     -------------------------------------------------------------------


     Number of (k,k+q) pairs on the Fermi surface:      214 out of      216


     ismear =     1 iq =      96 coord.:   0.33333  0.50000  0.83333 wt:   0.00463
     -------------------------------------------------------------------
     lambda(   1 )=       4.392072   gamma=       0.040518 meV   omega=      3.1514 meV
     lambda(   2 )=      -1.082708   gamma=      -0.021290 meV   omega=      4.6010 meV
     lambda(   3 )=      -0.416136   gamma=      -0.029179 meV   omega=      8.6883 meV
     lambda( tot )=       2.893227
     -------------------------------------------------------------------


     Number of (k,k+q) pairs on the Fermi surface:      214 out of      216


     ismear =     1 iq =      97 coord.:   0.33333  0.66667  0.00000 wt:   0.00463
     -------------------------------------------------------------------
     lambda(   1 )=       0.219235   gamma=       0.004263 meV   omega=      4.5752 meV
     lambda(   2 )=       0.058563   gamma=       0.001625 meV   omega=      5.4660 meV
     lambda(   3 )=       0.130990   gamma=       0.006111 meV   omega=      7.0867 meV
     lambda( tot )=       0.408788
     -------------------------------------------------------------------


     Number of (k,k+q) pairs on the Fermi surface:      214 out of      216


     ismear =     1 iq =      98 coord.:   0.33333  0.66667  0.16667 wt:   0.00463
     -------------------------------------------------------------------
     lambda(   1 )=      -2.112273   gamma=      -0.033312 meV   omega=      4.1204 meV
     lambda(   2 )=      -0.079373   gamma=      -0.002972 meV   omega=      6.3489 meV
     lambda(   3 )=      -0.552844   gamma=      -0.022465 meV   omega=      6.6140 meV
     lambda( tot )=      -2.744490
     -------------------------------------------------------------------


     Number of (k,k+q) pairs on the Fermi surface:      214 out of      216


     ismear =     1 iq =      99 coord.:   0.33333  0.66667  0.33333 wt:   0.00463
     -------------------------------------------------------------------
     lambda(   1 )=       0.219249   gamma=       0.004263 meV   omega=      4.5752 meV
     lambda(   2 )=       0.058564   gamma=       0.001625 meV   omega=      5.4660 meV
     lambda(   3 )=       0.130989   gamma=       0.006111 meV   omega=      7.0867 meV
     lambda( tot )=       0.408802
     -------------------------------------------------------------------


     Number of (k,k+q) pairs on the Fermi surface:      214 out of      216

     Progression iq (fine) =        100/       216

     ismear =     1 iq =     100 coord.:   0.33333  0.66667  0.50000 wt:   0.00463
     -------------------------------------------------------------------
     lambda(   1 )=      -2.112269   gamma=      -0.033312 meV   omega=      4.1204 meV
     lambda(   2 )=      -0.079379   gamma=      -0.002972 meV   omega=      6.3489 meV
     lambda(   3 )=      -0.552854   gamma=      -0.022465 meV   omega=      6.6140 meV
     lambda( tot )=      -2.744501
     -------------------------------------------------------------------


     Number of (k,k+q) pairs on the Fermi surface:      214 out of      216


     ismear =     1 iq =     101 coord.:   0.33333  0.66667  0.66667 wt:   0.00463
     -------------------------------------------------------------------
     lambda(   1 )=       0.219228   gamma=       0.004263 meV   omega=      4.5752 meV
     lambda(   2 )=       0.058562   gamma=       0.001625 meV   omega=      5.4660 meV
     lambda(   3 )=       0.130985   gamma=       0.006111 meV   omega=      7.0867 meV
     lambda( tot )=       0.408774
     -------------------------------------------------------------------


     Number of (k,k+q) pairs on the Fermi surface:      214 out of      216


     ismear =     1 iq =     102 coord.:   0.33333  0.66667  0.83333 wt:   0.00463
     -------------------------------------------------------------------
     lambda(   1 )=      -2.112270   gamma=      -0.033312 meV   omega=      4.1204 meV
     lambda(   2 )=      -0.079381   gamma=      -0.002972 meV   omega=      6.3489 meV
     lambda(   3 )=      -0.552844   gamma=      -0.022465 meV   omega=      6.6140 meV
     lambda( tot )=      -2.744495
     -------------------------------------------------------------------


     Number of (k,k+q) pairs on the Fermi surface:      214 out of      216


     ismear =     1 iq =     103 coord.:   0.33333  0.83333  0.00000 wt:   0.00463
[...]
      203        3      0.9376   -694.4490   3023.0319      3.4912     -0.7136
      204        3      2.5061    119.8433   3553.6663    -11.3224     -1.0883
      205        3      4.2119    541.1185   3681.5288     -5.4244     -1.1844
      206        3      0.9376   -694.4489   3023.0318      3.4912     -0.7136
      207        3     -0.1771  -1011.2412   3003.2612      3.5187     -0.7158
      208        3      0.9376   -694.4491   3023.0318      3.4912     -0.7136
      209        3      4.2119    541.1188   3681.5312     -5.4245     -1.1843
      210        3      3.9714    601.0144   3872.6214     -6.5124     -1.1536
      211        3      5.4468   1098.8106   2348.2253      8.3972     -0.8809
      212        3      4.2119    541.1191   3681.5328     -5.4245     -1.1843
      213        3      3.1191    523.4972   4275.8497     -3.8790     -1.2578
      214        3      2.5061    119.8429   3553.6652    -11.3225     -1.0883
      215        3      3.9714    601.0143   3872.6211     -6.5124     -1.1536
      216        3      6.4212   1047.3972    147.7066      0.8313      0.2030
  
        1        4      6.8737      0.0000      0.0000      1.0000      0.0000
        2        4      6.4212   1047.3971    147.7066      0.8313      0.2030
        3        4      5.4492   1635.1528   1073.0884      0.9525      0.0498
        4        4      4.9298   1457.7224   1228.8110      1.1007     -0.0915
        5        4      5.4492   1635.1544   1073.0908      0.9525      0.0498
        6        4      6.4212   1047.3907    147.7042      0.8313      0.2030
        7        4      6.4212   1047.3971    147.7066      0.8313      0.2030
        8        4      5.4468   1098.8115   2348.2276      8.3973     -0.8809
        9        4      4.6034   1155.4214   3005.3116    -12.1844     -1.0821
       10        4      3.9347   1438.1171   3711.4194     -4.6989     -1.2128
       11        4      4.9592   1611.6005   1253.7234      1.0500     -0.0476
       12        4      6.2108    892.1337    181.1142      0.8726      0.1460
       13        4      5.4492   1635.1528   1073.0883      0.9525      0.0498
       14        4      4.6034   1155.4213   3005.3111    -12.1844     -1.0821
       15        4      2.4513   -339.5564   2001.1777      1.3160     -0.2401
       16        4      1.9112   -359.4560   2513.6374      1.5851     -0.3691
       17        4      3.1818    570.9174   4957.5617     -1.3737     -1.7279
       18        4      4.9592   1611.5944   1253.7243      1.0500     -0.0476
       19        4      4.9298   1457.7226   1228.8115      1.1007     -0.0915
       20        4      3.9347   1438.1170   3711.4199     -4.6988     -1.2128
       21        4      1.9112   -359.4564   2513.6378      1.5851     -0.3691
       22        4      0.8828   -116.0972    359.6418      0.8228      0.2153
       23        4      1.9112   -359.4564   2513.6298      1.5851     -0.3691
       24        4      3.9347   1438.1065   3711.4050     -4.6990     -1.2128
       25        4      5.4492   1635.1548   1073.0921      0.9525      0.0498
       26        4      4.9592   1611.6013   1253.7258      1.0500     -0.0476
       27        4      3.1818    570.9169   4957.5654     -1.3737     -1.7279
       28        4      1.9112   -359.4568   2513.6308      1.5851     -0.3691
       29        4      2.4513   -339.5560   2001.1792      1.3160     -0.2401
       30        4      4.6034   1155.4245   3005.3194    -12.1841     -1.0821
       31        4      6.4212   1047.3909    147.7042      0.8313      0.2030
       32        4      6.2108    892.1338    181.1144      0.8726      0.1460
       33        4      4.9592   1611.5949   1253.7245      1.0500     -0.0476
       34        4      3.9347   1438.1074   3711.4062     -4.6990     -1.2128
       35        4      4.6034   1155.4247   3005.3203    -12.1840     -1.0821
       36        4      5.4468   1098.8112   2348.2267      8.3972     -0.8809
       37        4      6.4212   1047.3971    147.7066      0.8313      0.2030
       38        4      5.4468   1098.8187   2348.2446      8.3978     -0.8809
       39        4      4.6034   1155.4214   3005.3117    -12.1844     -1.0821
       40        4      3.9347   1438.1172   3711.4196     -4.6988     -1.2128
       41        4      4.9592   1611.6009   1253.7243      1.0500     -0.0476
       42        4      6.2108    892.1337    181.1143      0.8726      0.1460
       43        4      5.4468   1098.8170   2348.2405      8.3976     -0.8809
       44        4      6.4212   1047.3907    147.7041      0.8313      0.2030
       45        4      6.2108    892.1338    181.1143      0.8726      0.1460
       46        4      4.9592   1611.5943   1253.7242      1.0500     -0.0476
       47        4      3.9347   1438.1070   3711.4043     -4.6990     -1.2128
       48        4      4.6034   1155.4244   3005.3196    -12.1841     -1.0821
       49        4      4.6034   1155.4214   3005.3109    -12.1845     -1.0821
       50        4      6.2108    892.1338    181.1144      0.8726      0.1460
       51        4      4.6034   1155.4245   3005.3197    -12.1841     -1.0821
       52        4      3.6085    925.7561   4825.6129     -1.1528     -1.8675
       53        4      2.6144   1168.9489   4272.6279     -3.5118     -1.2848
       54        4      3.6085    925.7563   4825.6124     -1.1528     -1.8675
       55        4      3.9347   1438.1169   3711.4197     -4.6988     -1.2128
       56        4      4.9592   1611.5942   1253.7240      1.0500     -0.0476
       57        4      3.6085    925.7561   4825.6129     -1.1528     -1.8675
       58        4      1.9112   -359.4562   2513.6296      1.5851     -0.3691
       59        4      1.0451    -79.3019   4555.6809     -1.7304     -1.5779
       60        4      2.6144   1168.9488   4272.6285     -3.5118     -1.2848
       61        4      4.9592   1611.6012   1253.7252      1.0500     -0.0476
       62        4      3.9347   1438.1068   3711.4047     -4.6990     -1.2128
       63        4      2.6144   1168.9491   4272.6289     -3.5118     -1.2848
       64        4      1.0451    -79.3022   4555.6835     -1.7304     -1.5779
       65        4      1.9112   -359.4566   2513.6382      1.5851     -0.3691
       66        4      3.6085    925.7562   4825.6132     -1.1528     -1.8675
       67        4      6.2108    892.1340    181.1145      0.8726      0.1460
       68        4      4.6034   1155.4244   3005.3208    -12.1840     -1.0821
       69        4      3.6085    925.7565   4825.6139     -1.1528     -1.8675
       70        4      2.6144   1168.9496   4272.6303     -3.5118     -1.2848
       71        4      3.6085    925.7566   4825.6132     -1.1528     -1.8675
       72        4      4.6034   1155.4216   3005.3109    -12.1845     -1.0821
       73        4      5.4492   1635.1528   1073.0884      0.9525      0.0498
       74        4      4.6034   1155.4214   3005.3116    -12.1844     -1.0821
       75        4      2.4513   -339.5525   2001.1804      1.3160     -0.2401
       76        4      1.9112   -359.4563   2513.6376      1.5851     -0.3691
       77        4      3.1818    570.9171   4957.5627     -1.3737     -1.7279
       78        4      4.9592   1611.5945   1253.7244      1.0500     -0.0476
       79        4      4.6034   1155.4214   3005.3112    -12.1844     -1.0821
       80        4      6.2108    892.1338    181.1143      0.8726      0.1460
       81        4      4.6034   1155.4245   3005.3195    -12.1841     -1.0821
       82        4      3.6085    925.7561   4825.6130     -1.1528     -1.8675
       83        4      2.6144   1168.9489   4272.6283     -3.5118     -1.2848
       84        4      3.6085    925.7562   4825.6133     -1.1528     -1.8675
       85        4      2.4513   -339.5564   2001.1777      1.3160     -0.2401
       86        4      4.6034   1155.4245   3005.3197    -12.1841     -1.0821
       87        4      5.4492   1635.1552   1073.0920      0.9525      0.0498
       88        4      4.9592   1611.6014   1253.7244      1.0500     -0.0476
       89        4      3.1818    570.9174   4957.5631     -1.3737     -1.7279
       90        4      1.9112   -359.4561   2513.6299      1.5851     -0.3691
       91        4      1.9112   -359.4565   2513.6377      1.5851     -0.3691
       92        4      3.6085    925.7561   4825.6128     -1.1528     -1.8675
       93        4      4.9592   1611.6014   1253.7244      1.0500     -0.0476
       94        4      3.9347   1438.1068   3711.4045     -4.6990     -1.2128
       95        4      2.6144   1168.9489   4272.6283     -3.5118     -1.2848
       96        4      1.0451    -79.3022   4555.6823     -1.7304     -1.5779
       97        4      3.1818    570.9170   4957.5641     -1.3737     -1.7279
       98        4      2.6144   1168.9490   4272.6293     -3.5118     -1.2848
       99        4      3.1818    570.9174   4957.5631     -1.3737     -1.7279
      100        4      2.6144   1168.9491   4272.6296     -3.5118     -1.2848
      101        4      3.1818    570.9171   4957.5635     -1.3737     -1.7279
      102        4      2.6144   1168.9493   4272.6302     -3.5118     -1.2848
      103        4      4.9592   1611.5949   1253.7245      1.0500     -0.0476
      104        4      3.6085    925.7563   4825.6141     -1.1528     -1.8675
      105        4      1.9112   -359.4561   2513.6299      1.5851     -0.3691
      106        4      1.0451    -79.3022   4555.6831     -1.7304     -1.5779
      107        4      2.6144   1168.9499   4272.6316     -3.5118     -1.2848
      108        4      3.9347   1438.1175   3711.4216     -4.6988     -1.2128
      109        4      4.9298   1457.7228   1228.8115      1.1007     -0.0915
      110        4      3.9347   1438.1172   3711.4203     -4.6988     -1.2128
      111        4      1.9112   -359.4564   2513.6379      1.5851     -0.3691
      112        4      0.8828   -116.0972    359.6417      0.8228      0.2153
      113        4      1.9112   -359.4562   2513.6294      1.5851     -0.3691
      114        4      3.9347   1438.1069   3711.4049     -4.6990     -1.2128
      115        4      3.9347   1438.1171   3711.4198     -4.6988     -1.2128
      116        4      4.9592   1611.5945   1253.7242      1.0500     -0.0476
      117        4      3.6085    925.7562   4825.6130     -1.1528     -1.8675
      118        4      1.9112   -359.4564   2513.6298      1.5851     -0.3691
      119        4      1.0451    -79.3021   4555.6808     -1.7304     -1.5779
      120        4      2.6144   1168.9489   4272.6282     -3.5118     -1.2848
      121        4      1.9112   -359.4562   2513.6376      1.5851     -0.3691
      122        4      3.6085    925.7562   4825.6129     -1.1528     -1.8675
      123        4      4.9592   1611.6014   1253.7243      1.0500     -0.0476
      124        4      3.9347   1438.1068   3711.4049     -4.6990     -1.2128
      125        4      2.6144   1168.9486   4272.6282     -3.5118     -1.2848
      126        4      1.0451    -79.3022   4555.6810     -1.7304     -1.5779
      127        4      0.8828   -116.0972    359.6417      0.8228      0.2153
      128        4      1.9112   -359.4565   2513.6298      1.5851     -0.3691
      129        4      3.9347   1438.1069   3711.4050     -4.6990     -1.2128
      130        4      4.9298   1457.7226   1228.8113      1.1007     -0.0915
      131        4      3.9347   1438.1166   3711.4194     -4.6989     -1.2128
      132        4      1.9112   -359.4566   2513.6374      1.5851     -0.3691
      133        4      1.9112   -359.4562   2513.6302      1.5851     -0.3691
      134        4      1.0451    -79.3024   4555.6837     -1.7304     -1.5779
      135        4      2.6144   1168.9491   4272.6296     -3.5118     -1.2848
      136        4      3.9347   1438.1170   3711.4195     -4.6988     -1.2128
      137        4      4.9592   1611.5940   1253.7245      1.0500     -0.0476
      138        4      3.6085    925.7566   4825.6140     -1.1528     -1.8675
      139        4      3.9347   1438.1075   3711.4060     -4.6990     -1.2128
      140        4      2.6144   1168.9497   4272.6311     -3.5118     -1.2848
      141        4      1.0451    -79.3024   4555.6831     -1.7304     -1.5779
      142        4      1.9112   -359.4564   2513.6379      1.5851     -0.3691
      143        4      3.6085    925.7568   4825.6148     -1.1528     -1.8675
      144        4      4.9592   1611.6018   1253.7245      1.0500     -0.0476
      145        4      5.4492   1635.1551   1073.0925      0.9525      0.0498
      146        4      4.9592   1611.6019   1253.7264      1.0500     -0.0476
      147        4      3.1818    570.9168   4957.5662     -1.3737     -1.7279
      148        4      1.9112   -359.4570   2513.6305      1.5851     -0.3691
      149        4      2.4513   -339.5619   2001.1758      1.3160     -0.2401
      150        4      4.6034   1155.4250   3005.3192    -12.1841     -1.0821
      151        4      4.9592   1611.6012   1253.7249      1.0500     -0.0476
      152        4      3.9347   1438.1071   3711.4053     -4.6990     -1.2128
      153        4      2.6144   1168.9492   4272.6289     -3.5118     -1.2848
      154        4      1.0451    -79.3023   4555.6833     -1.7304     -1.5779
      155        4      1.9112   -359.4561   2513.6374      1.5851     -0.3691
      156        4      3.6085    925.7562   4825.6144     -1.1528     -1.8675
      157        4      3.1818    570.9172   4957.5637     -1.3737     -1.7279
      158        4      2.6144   1168.9490   4272.6292     -3.5118     -1.2848
      159        4      3.1818    570.9174   4957.5631     -1.3737     -1.7279
      160        4      2.6144   1168.9489   4272.6291     -3.5118     -1.2848
      161        4      3.1818    570.9172   4957.5631     -1.3737     -1.7279
      162        4      2.6144   1168.9488   4272.6289     -3.5118     -1.2848
      163        4      1.9112   -359.4567   2513.6305      1.5851     -0.3691
      164        4      1.0451    -79.3023   4555.6838     -1.7304     -1.5779
      165        4      2.6144   1168.9492   4272.6292     -3.5118     -1.2848
      166        4      3.9347   1438.1167   3711.4191     -4.6989     -1.2128
      167        4      4.9592   1611.5939   1253.7241      1.0500     -0.0476
      168        4      3.6085    925.7562   4825.6125     -1.1528     -1.8675
      169        4      2.4513   -339.5557   2001.1805      1.3160     -0.2401
      170        4      1.9112   -359.4565   2513.6376      1.5851     -0.3691
      171        4      3.1818    570.9167   4957.5654     -1.3737     -1.7279
      172        4      4.9592   1611.5945   1253.7255      1.0500     -0.0476
      173        4      5.4492   1635.1522   1073.0882      0.9525      0.0498
      174        4      4.6034   1155.4211   3005.3106    -12.1845     -1.0821
      175        4      4.6034   1155.4253   3005.3219    -12.1840     -1.0821
      176        4      3.6085    925.7568   4825.6163     -1.1528     -1.8675
      177        4      2.6144   1168.9500   4272.6322     -3.5118     -1.2848
      178        4      3.6085    925.7567   4825.6143     -1.1528     -1.8675
      179        4      4.6034   1155.4214   3005.3137    -12.1843     -1.0821
      180        4      6.2108    892.1339    181.1144      0.8726      0.1460
      181        4      6.4212   1047.3909    147.7041      0.8313      0.2030
      182        4      6.2108    892.1340    181.1145      0.8726      0.1460
      183        4      4.9592   1611.5949   1253.7245      1.0500     -0.0476
      184        4      3.9347   1438.1074   3711.4061     -4.6990     -1.2128
      185        4      4.6034   1155.4245   3005.3200    -12.1841     -1.0821
      186        4      5.4468   1098.8161   2348.2379      8.3975     -0.8809
      187        4      6.2108    892.1340    181.1144      0.8726      0.1460
      188        4      4.6034   1155.4243   3005.3213    -12.1839     -1.0821
      189        4      3.6085    925.7564   4825.6147     -1.1528     -1.8675
      190        4      2.6144   1168.9496   4272.6301     -3.5118     -1.2848
      191        4      3.6085    925.7567   4825.6137     -1.1528     -1.8675
      192        4      4.6034   1155.4223   3005.3116    -12.1845     -1.0821
      193        4      4.9592   1611.5947   1253.7244      1.0500     -0.0476
      194        4      3.6085    925.7564   4825.6142     -1.1528     -1.8675
      195        4      1.9112   -359.4560   2513.6299      1.5851     -0.3691
      196        4      1.0451    -79.3020   4555.6819     -1.7304     -1.5779
      197        4      2.6144   1168.9495   4272.6302     -3.5118     -1.2848
      198        4      3.9347   1438.1174   3711.4209     -4.6988     -1.2128
      199        4      3.9347   1438.1071   3711.4058     -4.6990     -1.2128
      200        4      2.6144   1168.9497   4272.6313     -3.5118     -1.2848
      201        4      1.0451    -79.3023   4555.6833     -1.7304     -1.5779
      202        4      1.9112   -359.4564   2513.6374      1.5851     -0.3691
      203        4      3.6085    925.7563   4825.6129     -1.1528     -1.8675
      204        4      4.9592   1611.6015   1253.7244      1.0500     -0.0476
      205        4      4.6034   1155.4246   3005.3217    -12.1839     -1.0821
      206        4      3.6085    925.7569   4825.6154     -1.1528     -1.8675
      207        4      2.6144   1168.9501   4272.6323     -3.5118     -1.2848
      208        4      3.6085    925.7567   4825.6138     -1.1528     -1.8675
      209        4      4.6034   1155.4213   3005.3121    -12.1844     -1.0821
      210        4      6.2108    892.1337    181.1143      0.8726      0.1460
      211        4      5.4468   1098.8204   2348.2480      8.3978     -0.8809
      212        4      4.6034   1155.4221   3005.3120    -12.1844     -1.0821
      213        4      3.9347   1438.1177   3711.4213     -4.6988     -1.2128
      214        4      4.9592   1611.6015   1253.7239      1.0500     -0.0476
      215        4      6.2108    892.1338    181.1144      0.8726      0.1460
      216        4      6.4212   1047.3974    147.7066      0.8313      0.2030
  

     ===================================================================
     Eliashberg Spectral Function in the Migdal Approximation
     ===================================================================

     lambda :   15.8598974
     lambda_tr :  107.3787498

     Estimated Allen-Dynes Tc

     logavg =    0.0000534 l_a2F =   15.9018728
     mu =   0.10 Tc =         2.146087174810 K
     mu =   0.12 Tc =         2.108540741508 K
     mu =   0.14 Tc =         2.070547119130 K
     mu =   0.16 Tc =         2.032104666821 K
     mu =   0.18 Tc =         1.993212257929 K
     mu =   0.20 Tc =         1.953869339095 K
     a2F          :      0.14s CPU      0.07s WALL (       1 calls)

     Unfolding on the coarse grid
     elphon_wrap  :    164.25s CPU     82.34s WALL (       1 calls)

     INITIALIZATION: 

     init_vloc    :      0.19s CPU      0.09s WALL (      29 calls)
     init_us_1    :      2.78s CPU      1.39s WALL (      29 calls)


     Electron-Phonon interpolation
     ephwann      :      6.88s CPU      3.46s WALL (       1 calls)
     ep-interp    :      6.52s CPU      3.28s WALL (     216 calls)
     PH SELF-ENER :      0.20s CPU      0.10s WALL (     216 calls)

     Ham: step 1  :      0.00s CPU      0.00s WALL (       1 calls)
     Ham: step 2  :      0.00s CPU      0.00s WALL (       1 calls)
     ep: step 1   :      0.01s CPU      0.00s WALL (      81 calls)
     ep: step 2   :      0.03s CPU      0.02s WALL (      81 calls)
     DynW2B       :      0.01s CPU      0.00s WALL (     216 calls)
     HamW2B       :      3.09s CPU      1.53s WALL (   93744 calls)
     ephW2Bp      :      0.07s CPU      0.03s WALL (     216 calls)


     Total program execution
     EPW          :  3m19.96s CPU     1m40.24s WALL

