                                                                                      
                                       ``:oss/                                        
                           `.+s+.     .+ys--yh+     `./ss+.                           
                          -sh//yy+`   +yy   +yy    -+h+-oyy                           
                          -yh- .oyy/.-sh.   .syo-.:sy-  /yh                           
                 `.-.`    `yh+   -oyyyo.     `/syys:    oys      `.`                  
               `/+ssys+-` `sh+      `                   oys`   .:osyo`                
               -yh- ./syyooyo`                          .sys+/oyo--yh/                
               `yy+    .-:-.                             `-/+/:`  -sh-                
                /yh.                                              oys                 
          ``..---hho---------`   .---------..`      `.-----.`    -hd+---.             
       `./osmNMMMMMMMMMMMMMMMs. +NNMMMMMMMMNNmh+.   yNMMMMMNm-  oNMMMMMNmo++:`        
       +sy--/sdMMMhyyyyyyyNMMh- .oyNMMmyyyyyhNMMm+` -yMMMdyyo:` .oyyNMMNhs+syy`       
       -yy/   /MMM+.`-+/``mMMy-   `mMMh:`````.dMMN:` `MMMy-`-dhhy```mMMy:``+hs        
        -yy+` /MMMo:-mMM+`-oo/.    mMMh:     `dMMN/`  dMMm:`dMMMMy..MMMo-.+yo`        
         .sys`/MMMMNNMMMs-         mMMmyooooymMMNo:   oMMM/sMMMMMM++MMN//oh:          
          `sh+/MMMhyyMMMs- `-`     mMMMMMMMMMNmy+-`   -MMMhMMMsmMMmdMMd/yy+           
    `-/+++oyy-/MMM+.`/hh/.`mNm:`   mMMd+/////:-.`      NMMMMMd/:NMMMMMy:/yyo/:.`      
   +os+//:-..-oMMMo:--:::-/MMMo. .-mMMd+---`           hMMMMN+. oMMMMMo. `-+osyso:`   
   syo     `mNMMMMMNNNNNNNNMMMo.oNNMMMMMNNNN:`         +MMMMs:`  dMMMN/`     ``:syo   
   /yh`     :syyyyyyyyyyyyyyyy+.`+syyyyyyyyo:`         .oyys:`   .oyys:`        +yh   
   -yh-        ````````````````    `````````              ``        ``          oys   
   -+h/------------------------::::::::://////++++++++++++++++++++++///////::::/yd:   
   shdddddddddddddddddddddddddddddhhhhhhhhyyyyyssssssssssssssssyyyyyyyhhhhhhhddddh`   
                                                                                      
  S. Ponce, E. R. Margine, C. Verdi, and F. Giustino, http://arxiv.org/abs/1604.03525 
                                                                                      

     Program EPW v.4.0.0 (svn rev. 12601) starts on 25Jul2016 at 15:44:15 

     This program is part of the open-source Quantum ESPRESSO suite
     for quantum simulation of materials; please cite
         "P. Giannozzi et al., J. Phys.:Condens. Matter 21 395502 (2009);
          URL http://www.quantum-espresso.org", 
     in publications or presentations arising from this work. More details at
     http://www.quantum-espresso.org/quote

           HOST :    @host@
           ARCH :    x86_64
             CC :    cc
            CPP :    cpp
            F90 :    mpif90
            F77 :    gfortran
         DFLAGS :    -D__GFORTRAN -D__STD_F95 -D__FFTW -D__MPI -D__PARA
      BLAS LIBS :    /home/sponce/program/espresso/BLAS/blas.a
    LAPACK LIBS :    /home/sponce/program/espresso/lapack-3.2/lapack.a
       FFT LIBS :    
      MASS LIBS :    

     Parallel version (MPI), running on     1 processors

     Reading data from directory:
     ./pb.save

   Info: using nr1, nr2, nr3 values from input

   Info: using nr1, nr2, nr3 values from input

     IMPORTANT: XC functional enforced from input :
     Exchange-correlation      = PZ ( 1  1  0  0 0 0)
     Any further DFT definition will be discarded
     Please, verify this is what you really want


     G-vector sticks info
     --------------------
     sticks:   dense  smooth     PW     G-vecs:    dense   smooth      PW
     Sum         703     703    211                12387    12387    2109


     --                                                                         

     bravais-lattice index     =            2
     lattice parameter (a_0)   =       9.2700  a.u.
     unit-cell volume          =     199.1495 (a.u.)^3
     number of atoms/cell      =            1
     number of atomic types    =            1
     kinetic-energy cut-off    =      60.0000  Ry
     charge density cut-off    =     240.0000  Ry
     convergence threshold     =      0.0E+00
     beta                      =       0.0000
     number of iterations used =            0
     Exchange-correlation      = PZ ( 1  1  0  0 0 0)


     celldm(1)=    9.27000  celldm(2)=    0.00000  celldm(3)=    0.00000
     celldm(4)=    0.00000  celldm(5)=    0.00000  celldm(6)=    0.00000

     crystal axes: (cart. coord. in units of a_0)
               a(1) = ( -0.5000  0.0000  0.5000 )  
               a(2) = (  0.0000  0.5000  0.5000 )  
               a(3) = ( -0.5000  0.5000  0.0000 )  

     reciprocal axes: (cart. coord. in units 2 pi/a_0)
               b(1) = ( -1.0000 -1.0000  1.0000 )  
               b(2) = (  1.0000  1.0000  1.0000 )  
               b(3) = ( -1.0000  1.0000 -1.0000 )  


     Atoms inside the unit cell: 

   Cartesian axes

     site n.  atom      mass           positions (a_0 units)
        1        Pb 207.2175   tau( 1) = (    0.00000    0.00000    0.00000  )

     49 Sym.Ops. (with q -> -q+G )


     G cutoff =  522.4094  (  12387 G-vectors)     FFT grid: ( 36, 36, 36)
     number of k points=   27  gaussian broad. (Ry)=  0.0200     ngauss =   1
                       cart. coord. in units 2pi/a_0
        k(    1) = (   0.0000000   0.0000000   0.0000000), wk =   0.0740741
        k(    2) = (  -0.3333333   0.3333333  -0.3333333), wk =   0.0740741
        k(    3) = (  -0.6666667   0.6666667  -0.6666667), wk =   0.0740741
        k(    4) = (   0.3333333   0.3333333   0.3333333), wk =   0.0740741
        k(    5) = (   0.0000000   0.6666667   0.0000000), wk =   0.0740741
        k(    6) = (  -0.3333333   1.0000000  -0.3333333), wk =   0.0740741
        k(    7) = (   0.6666667   0.6666667   0.6666667), wk =   0.0740741
        k(    8) = (   0.3333333   1.0000000   0.3333333), wk =   0.0740741
        k(    9) = (   0.0000000   1.3333333   0.0000000), wk =   0.0740741
        k(   10) = (  -0.3333333  -0.3333333   0.3333333), wk =   0.0740741
        k(   11) = (  -0.6666667   0.0000000   0.0000000), wk =   0.0740741
        k(   12) = (  -1.0000000   0.3333333  -0.3333333), wk =   0.0740741
        k(   13) = (   0.0000000   0.0000000   0.6666667), wk =   0.0740741
        k(   14) = (  -0.3333333   0.3333333   0.3333333), wk =   0.0740741
        k(   15) = (  -0.6666667   0.6666667  -0.0000000), wk =   0.0740741
        k(   16) = (   0.3333333   0.3333333   1.0000000), wk =   0.0740741
        k(   17) = (   0.0000000   0.6666667   0.6666667), wk =   0.0740741
        k(   18) = (  -0.3333333   1.0000000   0.3333333), wk =   0.0740741
        k(   19) = (  -0.6666667  -0.6666667   0.6666667), wk =   0.0740741
        k(   20) = (  -1.0000000  -0.3333333   0.3333333), wk =   0.0740741
        k(   21) = (  -1.3333333   0.0000000   0.0000000), wk =   0.0740741
        k(   22) = (  -0.3333333  -0.3333333   1.0000000), wk =   0.0740741
        k(   23) = (  -0.6666667  -0.0000000   0.6666667), wk =   0.0740741
        k(   24) = (  -1.0000000   0.3333333   0.3333333), wk =   0.0740741
        k(   25) = (   0.0000000   0.0000000   1.3333333), wk =   0.0740741
        k(   26) = (  -0.3333333   0.3333333   1.0000000), wk =   0.0740741
        k(   27) = (  -0.6666667   0.6666667   0.6666667), wk =   0.0740741

     PseudoPot. # 1 for Pb read from file:
     ./pb_s.UPF
     MD5 check sum: 7774f596943a2055f0d8d19eea6f2ae8
     Pseudo is Norm-conserving, Zval = 14.0
     Generated using "atomic" code by A. Dal Corso  (Quantum ESPRESSO distribution)
     Using radial grid of 1281 points,  2 beta functions with: 
                l(1) =   2
                l(2) =   1
     EPW          :     0.53s CPU         0.27s WALL

     EPW          :     1.10s CPU         0.55s WALL

     No wavefunction gauge setting applied
     -------------------------------------------------------------------
     Wannierization on  3 x  3 x  3 electronic grid
     -------------------------------------------------------------------

     Spin CASE ( default = unpolarized )

     Initializing Wannier90


     Initial Wannier projections

     (   0.00000   0.00000   0.00000) :  l =  -3 mr =   1
     (   0.00000   0.00000   0.00000) :  l =  -3 mr =   2
     (   0.00000   0.00000   0.00000) :  l =  -3 mr =   3
     (   0.00000   0.00000   0.00000) :  l =  -3 mr =   4

      - Number of bands is ( 11)
      - Number of wannier functions is (  4)
      - All guiding functions are given 

  Reading data about k-point neighbours 

      - All neighbours are found 

     AMN
      k points =    27 in    1 pools
            1 of   27 on ionode
            2 of   27 on ionode
            3 of   27 on ionode
            4 of   27 on ionode
            5 of   27 on ionode
            6 of   27 on ionode
            7 of   27 on ionode
            8 of   27 on ionode
            9 of   27 on ionode
           10 of   27 on ionode
           11 of   27 on ionode
           12 of   27 on ionode
           13 of   27 on ionode
           14 of   27 on ionode
           15 of   27 on ionode
           16 of   27 on ionode
           17 of   27 on ionode
           18 of   27 on ionode
           19 of   27 on ionode
           20 of   27 on ionode
           21 of   27 on ionode
           22 of   27 on ionode
           23 of   27 on ionode
           24 of   27 on ionode
           25 of   27 on ionode
           26 of   27 on ionode
           27 of   27 on ionode

     AMN calculated

     MMN
      k points =    27 in    1 pools
            1 of   27 on ionode
            2 of   27 on ionode
            3 of   27 on ionode
            4 of   27 on ionode
            5 of   27 on ionode
            6 of   27 on ionode
            7 of   27 on ionode
            8 of   27 on ionode
            9 of   27 on ionode
           10 of   27 on ionode
           11 of   27 on ionode
           12 of   27 on ionode
           13 of   27 on ionode
           14 of   27 on ionode
           15 of   27 on ionode
           16 of   27 on ionode
           17 of   27 on ionode
           18 of   27 on ionode
           19 of   27 on ionode
           20 of   27 on ionode
           21 of   27 on ionode
           22 of   27 on ionode
           23 of   27 on ionode
           24 of   27 on ionode
           25 of   27 on ionode
           26 of   27 on ionode
           27 of   27 on ionode
     MMN calculated

     Running Wannier90

     Wannier Function centers (cartesian, alat) and spreads (ang):

     (   0.08268   0.08268   0.08268) :   1.58499
     (   0.08268  -0.08268  -0.08268) :   1.58499
     (  -0.08268   0.08268  -0.08268) :   1.58499
     (  -0.08268  -0.08268   0.08268) :   1.58499

     -------------------------------------------------------------------
     WANNIER      :     21.98s CPU     11.00s WALL (       1 calls)
     -------------------------------------------------------------------

     Dipole matrix elements calculated


     Calculating kmap and kgmap
     Progress  kmap: ###########################
     Progress kgmap: ########################################
     kmaps        :      7.39s CPU      3.71s WALL (       1 calls)
     Symmetries of bravais lattice:  48
     Symmetries of crystal:          48


     ===================================================================
     irreducible q point #    1
     ===================================================================

     Symmetries of small group of q: 48
          in addition sym. q -> -q+G:

     Number of q in the star =    1
     List of q in the star:
          1   0.000000000   0.000000000   0.000000000
        Imposing acoustic sum rule on the dynamical matrix

        q(    1 ) = (   0.0000000   0.0000000   0.0000000 )


     ===================================================================
     irreducible q point #    2
     ===================================================================

     Symmetries of small group of q:  6

     Number of q in the star =    8
     List of q in the star:
          1  -0.333333333   0.333333333  -0.333333333
          2   0.333333333   0.333333333  -0.333333333
          3   0.333333333   0.333333333   0.333333333
          4  -0.333333333   0.333333333   0.333333333
          5   0.333333333  -0.333333333   0.333333333
          6  -0.333333333  -0.333333333  -0.333333333
          7   0.333333333  -0.333333333  -0.333333333
          8  -0.333333333  -0.333333333   0.333333333

        q(    2 ) = (  -0.3333333   0.3333333  -0.3333333 )
        q(    3 ) = (   0.3333333   0.3333333  -0.3333333 )
        q(    4 ) = (   0.3333333   0.3333333   0.3333333 )
        q(    5 ) = (  -0.3333333   0.3333333   0.3333333 )
        q(    6 ) = (   0.3333333  -0.3333333   0.3333333 )
        q(    7 ) = (  -0.3333333  -0.3333333  -0.3333333 )
        q(    8 ) = (   0.3333333  -0.3333333  -0.3333333 )
        q(    9 ) = (  -0.3333333  -0.3333333   0.3333333 )


     ===================================================================
     irreducible q point #    3
     ===================================================================

     Symmetries of small group of q:  8

     Number of q in the star =    6
     List of q in the star:
          1   0.000000000   0.666666667   0.000000000
          2  -0.666666667   0.000000000   0.000000000
          3   0.000000000  -0.666666667   0.000000000
          4   0.000000000   0.000000000   0.666666667
          5   0.000000000   0.000000000  -0.666666667
          6   0.666666667   0.000000000   0.000000000

        q(   10 ) = (   0.0000000   0.6666667   0.0000000 )
        q(   11 ) = (  -0.6666667   0.0000000   0.0000000 )
        q(   12 ) = (   0.0000000  -0.6666667   0.0000000 )
        q(   13 ) = (   0.0000000   0.0000000   0.6666667 )
        q(   14 ) = (   0.0000000   0.0000000  -0.6666667 )
        q(   15 ) = (   0.6666667   0.0000000   0.0000000 )


     ===================================================================
     irreducible q point #    4
     ===================================================================

     Symmetries of small group of q:  4

     Number of q in the star =   12
     List of q in the star:
          1   0.666666667   0.000000000   0.666666667
          2   0.666666667   0.000000000  -0.666666667
          3  -0.666666667   0.000000000  -0.666666667
          4  -0.666666667   0.000000000   0.666666667
          5   0.000000000  -0.666666667   0.666666667
          6  -0.666666667   0.666666667   0.000000000
          7  -0.666666667  -0.666666667   0.000000000
          8   0.666666667   0.666666667   0.000000000
          9   0.666666667  -0.666666667   0.000000000
         10   0.000000000   0.666666667   0.666666667
         11   0.000000000   0.666666667  -0.666666667
         12   0.000000000  -0.666666667  -0.666666667

        q(   16 ) = (   0.6666667   0.0000000   0.6666667 )
        q(   17 ) = (   0.6666667   0.0000000  -0.6666667 )
        q(   18 ) = (  -0.6666667   0.0000000  -0.6666667 )
        q(   19 ) = (  -0.6666667   0.0000000   0.6666667 )
        q(   20 ) = (   0.0000000  -0.6666667   0.6666667 )
        q(   21 ) = (  -0.6666667   0.6666667   0.0000000 )
        q(   22 ) = (  -0.6666667  -0.6666667   0.0000000 )
        q(   23 ) = (   0.6666667   0.6666667   0.0000000 )
        q(   24 ) = (   0.6666667  -0.6666667   0.0000000 )
        q(   25 ) = (   0.0000000   0.6666667   0.6666667 )
        q(   26 ) = (   0.0000000   0.6666667  -0.6666667 )
        q(   27 ) = (   0.0000000  -0.6666667  -0.6666667 )

     Writing epmatq on .epb files


     The .epb files have been correctly written


              band disentanglement is used:  nbndsub =    4

     Writing Hamiltonian, Dynamical matrix and EP vertex in Wann rep to file


     Reading Hamiltonian, Dynamical matrix and EP vertex in Wann rep from file


     Finished reading Wann rep data from file

     Using uniform q-mesh:    6   6   6
     Size of q point mesh for interpolation:        216
     Using uniform k-mesh:    6   6   6
     Size of k point mesh for interpolation:        432
     Max number of k points per pool:              432

     Fermi energy coarse grid =   9.797928 eV

     Skipping the first    5 bands:

     The Fermi level will be determined with   4.00000 electrons

     Fermi energy is calculated from the fine k-mesh: Ef =  11.756004 eV

     Warning: check if difference with Fermi level fine grid makes sense

     ===================================================================

              ibndmin =     2  ebndmin =     0.501
              ibndmax =     4  ebndmax =     1.265


     Number of ep-matrix elements per pool :         5832 ~=   45.56 Kb (@ 8 bytes/ DP)

     ===================================================================
     Phonon (Imaginary) Self-Energy in the Migdal Approximation
     ===================================================================


     Fermi Surface thickness =   6.000000 eV

     Golden Rule strictly enforced with T =   0.043087 eV
     Gaussian Broadening:   0.100000 eV, ngauss=   1
     DOS =  0.518460 states/spin/eV/Unit Cell at Ef= 11.756004 eV

     ismear =     1 iq =       1 coord.:   0.00000  0.00000  0.00000 wt:   0.00463
     -------------------------------------------------------------------
     lambda(   1 )=       0.000000   gamma=       0.000000 meV   omega=      0.0000 meV
     lambda(   2 )=       0.000000   gamma=       0.000000 meV   omega=      0.0000 meV
     lambda(   3 )=       0.000000   gamma=       0.000000 meV   omega=      0.0000 meV
     lambda( tot )=       0.000000
     -------------------------------------------------------------------


     Number of (k,k+q) pairs on the Fermi surface:      215 out of      216


     ===================================================================
     Electron (Imaginary) Self-Energy in the Migdal Approximation
     ===================================================================


     Fermi Surface thickness =   6.000000 eV

     Golden Rule strictly enforced with T =   0.043087 eV
     Gaussian Broadening:   0.100000 eV, ngauss=   1
     DOS =  0.518460 states/spin/eV/Unit Cell at Ef= 11.756004 eV
 

     ismear =     1 iq =       2 coord.:   0.00000  0.00000  0.16667 wt:   0.00463
     -------------------------------------------------------------------
     lambda(   1 )=       0.000000   gamma=       0.000000 meV   omega=      3.5890 meV
     lambda(   2 )=       0.000000   gamma=       0.000000 meV   omega=      3.5890 meV
     lambda(   3 )=       0.000000   gamma=       0.000000 meV   omega=      5.3852 meV
     lambda( tot )=       0.000000
     -------------------------------------------------------------------


     Number of (k,k+q) pairs on the Fermi surface:      214 out of      216


     ismear =     1 iq =       3 coord.:   0.00000  0.00000  0.33333 wt:   0.00463
     -------------------------------------------------------------------
     lambda(   1 )=       0.081311   gamma=       0.004658 meV   omega=      5.9304 meV
     lambda(   2 )=       0.081311   gamma=       0.004658 meV   omega=      5.9304 meV
     lambda(   3 )=       0.195410   gamma=       0.026906 meV   omega=      9.1943 meV
     lambda( tot )=       0.358033
     -------------------------------------------------------------------


     Number of (k,k+q) pairs on the Fermi surface:      214 out of      216


     ismear =     1 iq =       4 coord.:   0.00000  0.00000  0.50000 wt:   0.00463
     -------------------------------------------------------------------
     lambda(   1 )=       0.000000   gamma=       0.000000 meV   omega=      6.6766 meV
     lambda(   2 )=       0.000000   gamma=       0.000000 meV   omega=      6.6766 meV
     lambda(   3 )=       0.000000   gamma=       0.000000 meV   omega=     10.5390 meV
     lambda( tot )=       0.000000
     -------------------------------------------------------------------


     Number of (k,k+q) pairs on the Fermi surface:      214 out of      216


     ismear =     1 iq =       5 coord.:   0.00000  0.00000  0.66667 wt:   0.00463
     -------------------------------------------------------------------
     lambda(   1 )=       0.081311   gamma=       0.004658 meV   omega=      5.9304 meV
     lambda(   2 )=       0.081312   gamma=       0.004658 meV   omega=      5.9304 meV
     lambda(   3 )=       0.195410   gamma=       0.026906 meV   omega=      9.1943 meV
     lambda( tot )=       0.358033
     -------------------------------------------------------------------


     Number of (k,k+q) pairs on the Fermi surface:      214 out of      216


     ismear =     1 iq =       6 coord.:   0.00000  0.00000  0.83333 wt:   0.00463
     -------------------------------------------------------------------
     lambda(   1 )=       0.000000   gamma=       0.000000 meV   omega=      3.5890 meV
     lambda(   2 )=       0.000000   gamma=       0.000000 meV   omega=      3.5890 meV
     lambda(   3 )=       0.000000   gamma=       0.000000 meV   omega=      5.3852 meV
     lambda( tot )=       0.000000
     -------------------------------------------------------------------


     Number of (k,k+q) pairs on the Fermi surface:      214 out of      216


     ismear =     1 iq =       7 coord.:   0.00000  0.16667  0.00000 wt:   0.00463
     -------------------------------------------------------------------
     lambda(   1 )=       0.000000   gamma=       0.000000 meV   omega=      3.5890 meV
     lambda(   2 )=       0.000000   gamma=       0.000000 meV   omega=      3.5890 meV
     lambda(   3 )=       0.000000   gamma=       0.000000 meV   omega=      5.3852 meV
     lambda( tot )=       0.000000
     -------------------------------------------------------------------


     Number of (k,k+q) pairs on the Fermi surface:      214 out of      216


     ismear =     1 iq =       8 coord.:   0.00000  0.16667  0.16667 wt:   0.00463
     -------------------------------------------------------------------
     lambda(   1 )=       0.000000   gamma=       0.000000 meV   omega=      3.8973 meV
     lambda(   2 )=       0.000000   gamma=       0.000000 meV   omega=      3.8973 meV
     lambda(   3 )=       0.000000   gamma=       0.000000 meV   omega=      6.4212 meV
     lambda( tot )=       0.000000
     -------------------------------------------------------------------


     Number of (k,k+q) pairs on the Fermi surface:      214 out of      216


     ismear =     1 iq =       9 coord.:   0.00000  0.16667  0.33333 wt:   0.00463
     -------------------------------------------------------------------
     lambda(   1 )=       0.000009   gamma=       0.000000 meV   omega=      5.8119 meV
     lambda(   2 )=       0.000000   gamma=       0.000000 meV   omega=      6.1615 meV
     lambda(   3 )=       0.000012   gamma=       0.000002 meV   omega=      8.9711 meV
     lambda( tot )=       0.000021
     -------------------------------------------------------------------


     Number of (k,k+q) pairs on the Fermi surface:      214 out of      216


     ismear =     1 iq =      10 coord.:   0.00000  0.16667  0.50000 wt:   0.00463
     -------------------------------------------------------------------
     lambda(   1 )=       0.132331   gamma=       0.010194 meV   omega=      6.8772 meV
     lambda(   2 )=       0.004818   gamma=       0.000451 meV   omega=      7.5803 meV
     lambda(   3 )=       0.037481   gamma=       0.006408 meV   omega=     10.2450 meV
     lambda( tot )=       0.174630
     -------------------------------------------------------------------


     Number of (k,k+q) pairs on the Fermi surface:      214 out of      216


     ismear =     1 iq =      11 coord.:   0.00000  0.16667  0.66667 wt:   0.00463
     -------------------------------------------------------------------
     lambda(   1 )=       0.000000   gamma=       0.000000 meV   omega=      6.7600 meV
     lambda(   2 )=      -0.000000   gamma=      -0.000000 meV   omega=      7.2526 meV
     lambda(   3 )=       0.000004   gamma=       0.000001 meV   omega=      9.8847 meV
     lambda( tot )=       0.000004
     -------------------------------------------------------------------


     Number of (k,k+q) pairs on the Fermi surface:      214 out of      216


     ismear =     1 iq =      12 coord.:   0.00000  0.16667  0.83333 wt:   0.00463
     -------------------------------------------------------------------
     lambda(   1 )=       0.199967   gamma=       0.009339 meV   omega=      5.3549 meV
     lambda(   2 )=       0.118565   gamma=       0.005769 meV   omega=      5.4655 meV
     lambda(   3 )=       0.039470   gamma=       0.004058 meV   omega=      7.9447 meV
     lambda( tot )=       0.358001
     -------------------------------------------------------------------


     Number of (k,k+q) pairs on the Fermi surface:      214 out of      216


     ismear =     1 iq =      13 coord.:   0.00000  0.33333  0.00000 wt:   0.00463
     -------------------------------------------------------------------
     lambda(   1 )=       0.081312   gamma=       0.004658 meV   omega=      5.9304 meV
     lambda(   2 )=       0.081311   gamma=       0.004658 meV   omega=      5.9304 meV
     lambda(   3 )=       0.195410   gamma=       0.026906 meV   omega=      9.1943 meV
     lambda( tot )=       0.358033
     -------------------------------------------------------------------


     Number of (k,k+q) pairs on the Fermi surface:      214 out of      216


     ismear =     1 iq =      14 coord.:   0.00000  0.33333  0.16667 wt:   0.00463
     -------------------------------------------------------------------
     lambda(   1 )=       0.000009   gamma=       0.000000 meV   omega=      5.8119 meV
     lambda(   2 )=       0.000000   gamma=       0.000000 meV   omega=      6.1615 meV
     lambda(   3 )=       0.000012   gamma=       0.000002 meV   omega=      8.9711 meV
     lambda( tot )=       0.000021
     -------------------------------------------------------------------


     Number of (k,k+q) pairs on the Fermi surface:      214 out of      216


     ismear =     1 iq =      15 coord.:   0.00000  0.33333  0.33333 wt:   0.00463
     -------------------------------------------------------------------
     lambda(   1 )=       0.283929   gamma=       0.020796 meV   omega=      6.7059 meV
     lambda(   2 )=       0.283929   gamma=       0.020796 meV   omega=      6.7059 meV
     lambda(   3 )=       0.001293   gamma=       0.000219 meV   omega=     10.1933 meV
     lambda( tot )=       0.569150
     -------------------------------------------------------------------


     Number of (k,k+q) pairs on the Fermi surface:      214 out of      216


     ismear =     1 iq =      16 coord.:   0.00000  0.33333  0.50000 wt:   0.00463
     -------------------------------------------------------------------
     lambda(   1 )=       0.000020   gamma=       0.000002 meV   omega=      7.4018 meV
     lambda(   2 )=       0.000000   gamma=       0.000000 meV   omega=      8.0883 meV
     lambda(   3 )=       0.000000   gamma=       0.000000 meV   omega=     10.5654 meV
     lambda( tot )=       0.000020
     -------------------------------------------------------------------


     Number of (k,k+q) pairs on the Fermi surface:      214 out of      216


     ismear =     1 iq =      17 coord.:   0.00000  0.33333  0.66667 wt:   0.00463
     -------------------------------------------------------------------
     lambda(   1 )=       0.012465   gamma=       0.001099 meV   omega=      7.3569 meV
     lambda(   2 )=       0.088881   gamma=       0.012619 meV   omega=      9.3361 meV
     lambda(   3 )=       0.003442   gamma=       0.000505 meV   omega=      9.4900 meV
     lambda( tot )=       0.104789
     -------------------------------------------------------------------


     Number of (k,k+q) pairs on the Fermi surface:      214 out of      216


     ismear =     1 iq =      18 coord.:   0.00000  0.33333  0.83333 wt:   0.00463
     -------------------------------------------------------------------
     lambda(   1 )=       0.000000   gamma=       0.000000 meV   omega=      6.7600 meV
     lambda(   2 )=      -0.000000   gamma=      -0.000000 meV   omega=      7.2526 meV
     lambda(   3 )=       0.000004   gamma=       0.000001 meV   omega=      9.8847 meV
     lambda( tot )=       0.000004
     -------------------------------------------------------------------


     Number of (k,k+q) pairs on the Fermi surface:      214 out of      216


     ismear =     1 iq =      19 coord.:   0.00000  0.50000  0.00000 wt:   0.00463
     -------------------------------------------------------------------
     lambda(   1 )=       0.000000   gamma=       0.000000 meV   omega=      6.6766 meV
     lambda(   2 )=       0.000000   gamma=       0.000000 meV   omega=      6.6766 meV
     lambda(   3 )=       0.000000   gamma=       0.000000 meV   omega=     10.5390 meV
     lambda( tot )=       0.000000
     -------------------------------------------------------------------


     Number of (k,k+q) pairs on the Fermi surface:      214 out of      216


     ismear =     1 iq =      20 coord.:   0.00000  0.50000  0.16667 wt:   0.00463
     -------------------------------------------------------------------
     lambda(   1 )=       0.132331   gamma=       0.010194 meV   omega=      6.8772 meV
     lambda(   2 )=       0.004818   gamma=       0.000451 meV   omega=      7.5803 meV
     lambda(   3 )=       0.037481   gamma=       0.006408 meV   omega=     10.2450 meV
     lambda( tot )=       0.174630
     -------------------------------------------------------------------


     Number of (k,k+q) pairs on the Fermi surface:      214 out of      216


     ismear =     1 iq =      21 coord.:   0.00000  0.50000  0.33333 wt:   0.00463
     -------------------------------------------------------------------
     lambda(   1 )=       0.000020   gamma=       0.000002 meV   omega=      7.4018 meV
     lambda(   2 )=       0.000000   gamma=       0.000000 meV   omega=      8.0883 meV
     lambda(   3 )=       0.000000   gamma=       0.000000 meV   omega=     10.5654 meV
     lambda( tot )=       0.000020
     -------------------------------------------------------------------


     Number of (k,k+q) pairs on the Fermi surface:      214 out of      216


     ismear =     1 iq =      22 coord.:   0.00000  0.50000  0.50000 wt:   0.00463
     -------------------------------------------------------------------
     lambda(   1 )=       0.017103   gamma=       0.001659 meV   omega=      7.7175 meV
     lambda(   2 )=       0.017103   gamma=       0.001659 meV   omega=      7.7175 meV
     lambda(   3 )=       0.178386   gamma=       0.036419 meV   omega=     11.1957 meV
     lambda( tot )=       0.212592
     -------------------------------------------------------------------


     Number of (k,k+q) pairs on the Fermi surface:      214 out of      216


     ismear =     1 iq =      23 coord.:   0.00000  0.50000  0.66667 wt:   0.00463
     -------------------------------------------------------------------
     lambda(   1 )=       0.000020   gamma=       0.000002 meV   omega=      7.4018 meV
     lambda(   2 )=       0.000000   gamma=       0.000000 meV   omega=      8.0883 meV
     lambda(   3 )=       0.000000   gamma=       0.000000 meV   omega=     10.5654 meV
     lambda( tot )=       0.000020
     -------------------------------------------------------------------


     Number of (k,k+q) pairs on the Fermi surface:      214 out of      216


     ismear =     1 iq =      24 coord.:   0.00000  0.50000  0.83333 wt:   0.00463
     -------------------------------------------------------------------
     lambda(   1 )=       0.132331   gamma=       0.010194 meV   omega=      6.8772 meV
     lambda(   2 )=       0.004818   gamma=       0.000451 meV   omega=      7.5803 meV
     lambda(   3 )=       0.037481   gamma=       0.006408 meV   omega=     10.2450 meV
     lambda( tot )=       0.174630
     -------------------------------------------------------------------


     Number of (k,k+q) pairs on the Fermi surface:      214 out of      216


     ismear =     1 iq =      25 coord.:   0.00000  0.66667  0.00000 wt:   0.00463
     -------------------------------------------------------------------
     lambda(   1 )=       0.081311   gamma=       0.004658 meV   omega=      5.9304 meV
     lambda(   2 )=       0.081311   gamma=       0.004658 meV   omega=      5.9304 meV
     lambda(   3 )=       0.195410   gamma=       0.026906 meV   omega=      9.1943 meV
     lambda( tot )=       0.358033
     -------------------------------------------------------------------


     Number of (k,k+q) pairs on the Fermi surface:      214 out of      216


     ismear =     1 iq =      26 coord.:   0.00000  0.66667  0.16667 wt:   0.00463
     -------------------------------------------------------------------
     lambda(   1 )=       0.000000   gamma=       0.000000 meV   omega=      6.7600 meV
     lambda(   2 )=      -0.000000   gamma=      -0.000000 meV   omega=      7.2526 meV
     lambda(   3 )=       0.000004   gamma=       0.000001 meV   omega=      9.8847 meV
     lambda( tot )=       0.000004
     -------------------------------------------------------------------


     Number of (k,k+q) pairs on the Fermi surface:      214 out of      216


     ismear =     1 iq =      27 coord.:   0.00000  0.66667  0.33333 wt:   0.00463
     -------------------------------------------------------------------
     lambda(   1 )=       0.012465   gamma=       0.001099 meV   omega=      7.3569 meV
     lambda(   2 )=       0.088881   gamma=       0.012619 meV   omega=      9.3361 meV
     lambda(   3 )=       0.003442   gamma=       0.000505 meV   omega=      9.4900 meV
     lambda( tot )=       0.104789
     -------------------------------------------------------------------


     Number of (k,k+q) pairs on the Fermi surface:      214 out of      216


     ismear =     1 iq =      28 coord.:   0.00000  0.66667  0.50000 wt:   0.00463
     -------------------------------------------------------------------
     lambda(   1 )=       0.000020   gamma=       0.000002 meV   omega=      7.4018 meV
     lambda(   2 )=       0.000000   gamma=       0.000000 meV   omega=      8.0883 meV
     lambda(   3 )=       0.000000   gamma=       0.000000 meV   omega=     10.5654 meV
     lambda( tot )=       0.000020
     -------------------------------------------------------------------


     Number of (k,k+q) pairs on the Fermi surface:      214 out of      216


     ismear =     1 iq =      29 coord.:   0.00000  0.66667  0.66667 wt:   0.00463
     -------------------------------------------------------------------
     lambda(   1 )=       0.283929   gamma=       0.020796 meV   omega=      6.7059 meV
     lambda(   2 )=       0.283929   gamma=       0.020796 meV   omega=      6.7059 meV
     lambda(   3 )=       0.001293   gamma=       0.000219 meV   omega=     10.1933 meV
     lambda( tot )=       0.569150
     -------------------------------------------------------------------


     Number of (k,k+q) pairs on the Fermi surface:      214 out of      216


     ismear =     1 iq =      30 coord.:   0.00000  0.66667  0.83333 wt:   0.00463
     -------------------------------------------------------------------
     lambda(   1 )=       0.000009   gamma=       0.000000 meV   omega=      5.8119 meV
     lambda(   2 )=       0.000000   gamma=       0.000000 meV   omega=      6.1615 meV
     lambda(   3 )=       0.000012   gamma=       0.000002 meV   omega=      8.9711 meV
     lambda( tot )=       0.000021
     -------------------------------------------------------------------


     Number of (k,k+q) pairs on the Fermi surface:      214 out of      216


     ismear =     1 iq =      31 coord.:   0.00000  0.83333  0.00000 wt:   0.00463
     -------------------------------------------------------------------
     lambda(   1 )=       0.000000   gamma=       0.000000 meV   omega=      3.5890 meV
     lambda(   2 )=       0.000000   gamma=       0.000000 meV   omega=      3.5890 meV
     lambda(   3 )=       0.000000   gamma=       0.000000 meV   omega=      5.3852 meV
     lambda( tot )=       0.000000
     -------------------------------------------------------------------


     Number of (k,k+q) pairs on the Fermi surface:      214 out of      216


     ismear =     1 iq =      32 coord.:   0.00000  0.83333  0.16667 wt:   0.00463
     -------------------------------------------------------------------
     lambda(   1 )=       0.199966   gamma=       0.009339 meV   omega=      5.3549 meV
     lambda(   2 )=       0.118565   gamma=       0.005769 meV   omega=      5.4655 meV
     lambda(   3 )=       0.039470   gamma=       0.004058 meV   omega=      7.9447 meV
     lambda( tot )=       0.358001
     -------------------------------------------------------------------


     Number of (k,k+q) pairs on the Fermi surface:      214 out of      216


     ismear =     1 iq =      33 coord.:   0.00000  0.83333  0.33333 wt:   0.00463
     -------------------------------------------------------------------
     lambda(   1 )=       0.000000   gamma=       0.000000 meV   omega=      6.7600 meV
     lambda(   2 )=      -0.000000   gamma=      -0.000000 meV   omega=      7.2526 meV
     lambda(   3 )=       0.000004   gamma=       0.000001 meV   omega=      9.8847 meV
     lambda( tot )=       0.000004
     -------------------------------------------------------------------


     Number of (k,k+q) pairs on the Fermi surface:      214 out of      216


     ismear =     1 iq =      34 coord.:   0.00000  0.83333  0.50000 wt:   0.00463
     -------------------------------------------------------------------
     lambda(   1 )=       0.132331   gamma=       0.010194 meV   omega=      6.8772 meV
     lambda(   2 )=       0.004818   gamma=       0.000451 meV   omega=      7.5803 meV
     lambda(   3 )=       0.037481   gamma=       0.006408 meV   omega=     10.2450 meV
     lambda( tot )=       0.174630
     -------------------------------------------------------------------


     Number of (k,k+q) pairs on the Fermi surface:      214 out of      216


     ismear =     1 iq =      35 coord.:   0.00000  0.83333  0.66667 wt:   0.00463
     -------------------------------------------------------------------
     lambda(   1 )=       0.000009   gamma=       0.000000 meV   omega=      5.8119 meV
     lambda(   2 )=       0.000000   gamma=       0.000000 meV   omega=      6.1615 meV
     lambda(   3 )=       0.000012   gamma=       0.000002 meV   omega=      8.9711 meV
     lambda( tot )=       0.000021
     -------------------------------------------------------------------


     Number of (k,k+q) pairs on the Fermi surface:      214 out of      216


     ismear =     1 iq =      36 coord.:   0.00000  0.83333  0.83333 wt:   0.00463
     -------------------------------------------------------------------
     lambda(   1 )=       0.000000   gamma=       0.000000 meV   omega=      3.8973 meV
     lambda(   2 )=       0.000000   gamma=       0.000000 meV   omega=      3.8973 meV
     lambda(   3 )=       0.000000   gamma=       0.000000 meV   omega=      6.4212 meV
     lambda( tot )=       0.000000
     -------------------------------------------------------------------


     Number of (k,k+q) pairs on the Fermi surface:      214 out of      216


     ismear =     1 iq =      37 coord.:   0.16667  0.00000  0.00000 wt:   0.00463
     -------------------------------------------------------------------
     lambda(   1 )=       0.000000   gamma=       0.000000 meV   omega=      3.5890 meV
     lambda(   2 )=       0.000000   gamma=       0.000000 meV   omega=      3.5890 meV
     lambda(   3 )=       0.000000   gamma=       0.000000 meV   omega=      5.3852 meV
     lambda( tot )=       0.000000
     -------------------------------------------------------------------


     Number of (k,k+q) pairs on the Fermi surface:      214 out of      216


     ismear =     1 iq =      38 coord.:   0.16667  0.00000  0.16667 wt:   0.00463
     -------------------------------------------------------------------
     lambda(   1 )=       0.000000   gamma=       0.000000 meV   omega=      3.8973 meV
     lambda(   2 )=       0.000000   gamma=       0.000000 meV   omega=      3.8973 meV
     lambda(   3 )=      -0.000000   gamma=      -0.000000 meV   omega=      6.4212 meV
     lambda( tot )=      -0.000000
     -------------------------------------------------------------------


     Number of (k,k+q) pairs on the Fermi surface:      214 out of      216


     ismear =     1 iq =      39 coord.:   0.16667  0.00000  0.33333 wt:   0.00463
     -------------------------------------------------------------------
     lambda(   1 )=       0.000009   gamma=       0.000000 meV   omega=      5.8119 meV
     lambda(   2 )=       0.000000   gamma=       0.000000 meV   omega=      6.1615 meV
     lambda(   3 )=       0.000012   gamma=       0.000002 meV   omega=      8.9711 meV
     lambda( tot )=       0.000021
     -------------------------------------------------------------------


     Number of (k,k+q) pairs on the Fermi surface:      214 out of      216


     ismear =     1 iq =      40 coord.:   0.16667  0.00000  0.50000 wt:   0.00463
     -------------------------------------------------------------------
     lambda(   1 )=       0.132331   gamma=       0.010194 meV   omega=      6.8772 meV
     lambda(   2 )=       0.004818   gamma=       0.000451 meV   omega=      7.5803 meV
     lambda(   3 )=       0.037481   gamma=       0.006408 meV   omega=     10.2450 meV
     lambda( tot )=       0.174630
     -------------------------------------------------------------------


     Number of (k,k+q) pairs on the Fermi surface:      214 out of      216


     ismear =     1 iq =      41 coord.:   0.16667  0.00000  0.66667 wt:   0.00463
     -------------------------------------------------------------------
     lambda(   1 )=       0.000000   gamma=       0.000000 meV   omega=      6.7600 meV
     lambda(   2 )=      -0.000000   gamma=      -0.000000 meV   omega=      7.2526 meV
     lambda(   3 )=       0.000004   gamma=       0.000001 meV   omega=      9.8847 meV
     lambda( tot )=       0.000004
     -------------------------------------------------------------------


     Number of (k,k+q) pairs on the Fermi surface:      214 out of      216


     ismear =     1 iq =      42 coord.:   0.16667  0.00000  0.83333 wt:   0.00463
     -------------------------------------------------------------------
     lambda(   1 )=       0.199967   gamma=       0.009339 meV   omega=      5.3549 meV
     lambda(   2 )=       0.118565   gamma=       0.005769 meV   omega=      5.4655 meV
     lambda(   3 )=       0.039470   gamma=       0.004058 meV   omega=      7.9447 meV
     lambda( tot )=       0.358001
     -------------------------------------------------------------------


     Number of (k,k+q) pairs on the Fermi surface:      214 out of      216


     ismear =     1 iq =      43 coord.:   0.16667  0.16667  0.00000 wt:   0.00463
     -------------------------------------------------------------------
     lambda(   1 )=       0.000000   gamma=       0.000000 meV   omega=      3.8973 meV
     lambda(   2 )=       0.000000   gamma=       0.000000 meV   omega=      3.8973 meV
     lambda(   3 )=       0.000000   gamma=       0.000000 meV   omega=      6.4212 meV
     lambda( tot )=       0.000000
     -------------------------------------------------------------------


     Number of (k,k+q) pairs on the Fermi surface:      214 out of      216


     ismear =     1 iq =      44 coord.:   0.16667  0.16667  0.16667 wt:   0.00463
     -------------------------------------------------------------------
     lambda(   1 )=       0.000000   gamma=       0.000000 meV   omega=      3.5890 meV
     lambda(   2 )=       0.000000   gamma=       0.000000 meV   omega=      3.5890 meV
     lambda(   3 )=       0.000000   gamma=       0.000000 meV   omega=      5.3852 meV
     lambda( tot )=       0.000000
     -------------------------------------------------------------------


     Number of (k,k+q) pairs on the Fermi surface:      214 out of      216


     ismear =     1 iq =      45 coord.:   0.16667  0.16667  0.33333 wt:   0.00463
     -------------------------------------------------------------------
     lambda(   1 )=       0.199967   gamma=       0.009339 meV   omega=      5.3549 meV
     lambda(   2 )=       0.118565   gamma=       0.005769 meV   omega=      5.4655 meV
     lambda(   3 )=       0.039470   gamma=       0.004058 meV   omega=      7.9447 meV
     lambda( tot )=       0.358001
     -------------------------------------------------------------------


     Number of (k,k+q) pairs on the Fermi surface:      214 out of      216


     ismear =     1 iq =      46 coord.:   0.16667  0.16667  0.50000 wt:   0.00463
     -------------------------------------------------------------------
     lambda(   1 )=       0.000000   gamma=       0.000000 meV   omega=      6.7600 meV
     lambda(   2 )=      -0.000000   gamma=      -0.000000 meV   omega=      7.2526 meV
     lambda(   3 )=       0.000004   gamma=       0.000001 meV   omega=      9.8847 meV
     lambda( tot )=       0.000004
     -------------------------------------------------------------------


     Number of (k,k+q) pairs on the Fermi surface:      214 out of      216


     ismear =     1 iq =      47 coord.:   0.16667  0.16667  0.66667 wt:   0.00463
     -------------------------------------------------------------------
     lambda(   1 )=       0.132331   gamma=       0.010194 meV   omega=      6.8772 meV
     lambda(   2 )=       0.004818   gamma=       0.000451 meV   omega=      7.5803 meV
     lambda(   3 )=       0.037481   gamma=       0.006408 meV   omega=     10.2450 meV
     lambda( tot )=       0.174630
     -------------------------------------------------------------------


     Number of (k,k+q) pairs on the Fermi surface:      214 out of      216


     ismear =     1 iq =      48 coord.:   0.16667  0.16667  0.83333 wt:   0.00463
     -------------------------------------------------------------------
     lambda(   1 )=       0.000009   gamma=       0.000000 meV   omega=      5.8119 meV
     lambda(   2 )=       0.000000   gamma=       0.000000 meV   omega=      6.1615 meV
     lambda(   3 )=       0.000012   gamma=       0.000002 meV   omega=      8.9711 meV
     lambda( tot )=       0.000021
     -------------------------------------------------------------------


     Number of (k,k+q) pairs on the Fermi surface:      214 out of      216


     ismear =     1 iq =      49 coord.:   0.16667  0.33333  0.00000 wt:   0.00463
     -------------------------------------------------------------------
     lambda(   1 )=       0.000009   gamma=       0.000000 meV   omega=      5.8119 meV
     lambda(   2 )=       0.000000   gamma=       0.000000 meV   omega=      6.1615 meV
     lambda(   3 )=       0.000012   gamma=       0.000002 meV   omega=      8.9711 meV
     lambda( tot )=       0.000021
     -------------------------------------------------------------------


     Number of (k,k+q) pairs on the Fermi surface:      214 out of      216


     ismear =     1 iq =      50 coord.:   0.16667  0.33333  0.16667 wt:   0.00463
     -------------------------------------------------------------------
     lambda(   1 )=       0.199966   gamma=       0.009339 meV   omega=      5.3549 meV
     lambda(   2 )=       0.118565   gamma=       0.005769 meV   omega=      5.4655 meV
     lambda(   3 )=       0.039470   gamma=       0.004058 meV   omega=      7.9447 meV
     lambda( tot )=       0.358001
     -------------------------------------------------------------------


     Number of (k,k+q) pairs on the Fermi surface:      214 out of      216


     ismear =     1 iq =      51 coord.:   0.16667  0.33333  0.33333 wt:   0.00463
     -------------------------------------------------------------------
     lambda(   1 )=       0.000009   gamma=       0.000000 meV   omega=      5.8119 meV
     lambda(   2 )=       0.000000   gamma=       0.000000 meV   omega=      6.1615 meV
     lambda(   3 )=       0.000012   gamma=       0.000002 meV   omega=      8.9711 meV
     lambda( tot )=       0.000021
     -------------------------------------------------------------------


     Number of (k,k+q) pairs on the Fermi surface:      214 out of      216


     ismear =     1 iq =      52 coord.:   0.16667  0.33333  0.50000 wt:   0.00463
     -------------------------------------------------------------------
     lambda(   1 )=       0.045788   gamma=       0.003811 meV   omega=      7.1481 meV
     lambda(   2 )=       0.115001   gamma=       0.010703 meV   omega=      7.5592 meV
     lambda(   3 )=       0.059672   gamma=       0.009605 meV   omega=      9.9412 meV
     lambda( tot )=       0.220461
     -------------------------------------------------------------------


     Number of (k,k+q) pairs on the Fermi surface:      214 out of      216


     ismear =     1 iq =      53 coord.:   0.16667  0.33333  0.66667 wt:   0.00463
     -------------------------------------------------------------------
     lambda(   1 )=       0.000000   gamma=       0.000000 meV   omega=      7.6037 meV
     lambda(   2 )=       0.000000   gamma=       0.000000 meV   omega=      8.7521 meV
     lambda(   3 )=       0.000000   gamma=       0.000000 meV   omega=      9.8455 meV
     lambda( tot )=       0.000000
     -------------------------------------------------------------------


     Number of (k,k+q) pairs on the Fermi surface:      214 out of      216


     ismear =     1 iq =      54 coord.:   0.16667  0.33333  0.83333 wt:   0.00463
     -------------------------------------------------------------------
     lambda(   1 )=       0.045789   gamma=       0.003811 meV   omega=      7.1481 meV
     lambda(   2 )=       0.115001   gamma=       0.010703 meV   omega=      7.5592 meV
     lambda(   3 )=       0.059672   gamma=       0.009605 meV   omega=      9.9412 meV
     lambda( tot )=       0.220462
     -------------------------------------------------------------------


     Number of (k,k+q) pairs on the Fermi surface:      214 out of      216


     ismear =     1 iq =      55 coord.:   0.16667  0.50000  0.00000 wt:   0.00463
     -------------------------------------------------------------------
     lambda(   1 )=       0.132331   gamma=       0.010194 meV   omega=      6.8772 meV
     lambda(   2 )=       0.004818   gamma=       0.000451 meV   omega=      7.5803 meV
     lambda(   3 )=       0.037481   gamma=       0.006408 meV   omega=     10.2450 meV
     lambda( tot )=       0.174630
     -------------------------------------------------------------------


     Number of (k,k+q) pairs on the Fermi surface:      214 out of      216


     ismear =     1 iq =      56 coord.:   0.16667  0.50000  0.16667 wt:   0.00463
     -------------------------------------------------------------------
     lambda(   1 )=       0.000000   gamma=       0.000000 meV   omega=      6.7600 meV
     lambda(   2 )=      -0.000000   gamma=      -0.000000 meV   omega=      7.2526 meV
     lambda(   3 )=       0.000004   gamma=       0.000001 meV   omega=      9.8847 meV
     lambda( tot )=       0.000004
     -------------------------------------------------------------------


     Number of (k,k+q) pairs on the Fermi surface:      214 out of      216


     ismear =     1 iq =      57 coord.:   0.16667  0.50000  0.33333 wt:   0.00463
     -------------------------------------------------------------------
     lambda(   1 )=       0.045788   gamma=       0.003811 meV   omega=      7.1481 meV
     lambda(   2 )=       0.115001   gamma=       0.010703 meV   omega=      7.5592 meV
     lambda(   3 )=       0.059672   gamma=       0.009605 meV   omega=      9.9412 meV
     lambda( tot )=       0.220462
     -------------------------------------------------------------------


     Number of (k,k+q) pairs on the Fermi surface:      214 out of      216


     ismear =     1 iq =      58 coord.:   0.16667  0.50000  0.50000 wt:   0.00463
     -------------------------------------------------------------------
     lambda(   1 )=       0.000020   gamma=       0.000002 meV   omega=      7.4018 meV
     lambda(   2 )=       0.000000   gamma=       0.000000 meV   omega=      8.0883 meV
     lambda(   3 )=       0.000000   gamma=       0.000000 meV   omega=     10.5654 meV
     lambda( tot )=       0.000020
     -------------------------------------------------------------------


     Number of (k,k+q) pairs on the Fermi surface:      214 out of      216


     ismear =     1 iq =      59 coord.:   0.16667  0.50000  0.66667 wt:   0.00463
     -------------------------------------------------------------------
     lambda(   1 )=       0.056178   gamma=       0.005973 meV   omega=      8.0792 meV
     lambda(   2 )=       0.001036   gamma=       0.000122 meV   omega=      8.4924 meV
     lambda(   3 )=       0.007071   gamma=       0.001209 meV   omega=     10.2476 meV
     lambda( tot )=       0.064285
     -------------------------------------------------------------------


     Number of (k,k+q) pairs on the Fermi surface:      214 out of      216


     ismear =     1 iq =      60 coord.:   0.16667  0.50000  0.83333 wt:   0.00463
     -------------------------------------------------------------------
     lambda(   1 )=       0.000000   gamma=       0.000000 meV   omega=      7.6037 meV
     lambda(   2 )=       0.000000   gamma=       0.000000 meV   omega=      8.7521 meV
     lambda(   3 )=       0.000000   gamma=       0.000000 meV   omega=      9.8455 meV
     lambda( tot )=       0.000000
     -------------------------------------------------------------------


     Number of (k,k+q) pairs on the Fermi surface:      214 out of      216


     ismear =     1 iq =      61 coord.:   0.16667  0.66667  0.00000 wt:   0.00463
     -------------------------------------------------------------------
     lambda(   1 )=       0.000000   gamma=       0.000000 meV   omega=      6.7600 meV
     lambda(   2 )=      -0.000000   gamma=      -0.000000 meV   omega=      7.2526 meV
     lambda(   3 )=       0.000004   gamma=       0.000001 meV   omega=      9.8847 meV
     lambda( tot )=       0.000004
     -------------------------------------------------------------------


     Number of (k,k+q) pairs on the Fermi surface:      214 out of      216


     ismear =     1 iq =      62 coord.:   0.16667  0.66667  0.16667 wt:   0.00463
     -------------------------------------------------------------------
     lambda(   1 )=       0.132331   gamma=       0.010194 meV   omega=      6.8772 meV
     lambda(   2 )=       0.004818   gamma=       0.000451 meV   omega=      7.5803 meV
     lambda(   3 )=       0.037481   gamma=       0.006408 meV   omega=     10.2450 meV
     lambda( tot )=       0.174630
     -------------------------------------------------------------------


     Number of (k,k+q) pairs on the Fermi surface:      214 out of      216


     ismear =     1 iq =      63 coord.:   0.16667  0.66667  0.33333 wt:   0.00463
     -------------------------------------------------------------------
     lambda(   1 )=       0.000000   gamma=       0.000000 meV   omega=      7.6037 meV
     lambda(   2 )=       0.000000   gamma=       0.000000 meV   omega=      8.7521 meV
     lambda(   3 )=       0.000000   gamma=       0.000000 meV   omega=      9.8455 meV
     lambda( tot )=       0.000000
     -------------------------------------------------------------------


     Number of (k,k+q) pairs on the Fermi surface:      214 out of      216


     ismear =     1 iq =      64 coord.:   0.16667  0.66667  0.50000 wt:   0.00463
     -------------------------------------------------------------------
     lambda(   1 )=       0.056178   gamma=       0.005973 meV   omega=      8.0792 meV
     lambda(   2 )=       0.001036   gamma=       0.000122 meV   omega=      8.4924 meV
     lambda(   3 )=       0.007071   gamma=       0.001209 meV   omega=     10.2476 meV
     lambda( tot )=       0.064285
     -------------------------------------------------------------------


     Number of (k,k+q) pairs on the Fermi surface:      214 out of      216


     ismear =     1 iq =      65 coord.:   0.16667  0.66667  0.66667 wt:   0.00463
     -------------------------------------------------------------------
     lambda(   1 )=       0.000020   gamma=       0.000002 meV   omega=      7.4018 meV
     lambda(   2 )=       0.000000   gamma=       0.000000 meV   omega=      8.0883 meV
     lambda(   3 )=       0.000000   gamma=       0.000000 meV   omega=     10.5654 meV
     lambda( tot )=       0.000020
     -------------------------------------------------------------------


     Number of (k,k+q) pairs on the Fermi surface:      214 out of      216


     ismear =     1 iq =      66 coord.:   0.16667  0.66667  0.83333 wt:   0.00463
     -------------------------------------------------------------------
     lambda(   1 )=       0.045788   gamma=       0.003811 meV   omega=      7.1481 meV
     lambda(   2 )=       0.115001   gamma=       0.010703 meV   omega=      7.5592 meV
     lambda(   3 )=       0.059672   gamma=       0.009605 meV   omega=      9.9412 meV
     lambda( tot )=       0.220461
     -------------------------------------------------------------------


     Number of (k,k+q) pairs on the Fermi surface:      214 out of      216


     ismear =     1 iq =      67 coord.:   0.16667  0.83333  0.00000 wt:   0.00463
     -------------------------------------------------------------------
     lambda(   1 )=       0.199967   gamma=       0.009339 meV   omega=      5.3549 meV
     lambda(   2 )=       0.118564   gamma=       0.005769 meV   omega=      5.4655 meV
     lambda(   3 )=       0.039470   gamma=       0.004058 meV   omega=      7.9447 meV
     lambda( tot )=       0.358001
     -------------------------------------------------------------------


     Number of (k,k+q) pairs on the Fermi surface:      214 out of      216


     ismear =     1 iq =      68 coord.:   0.16667  0.83333  0.16667 wt:   0.00463
     -------------------------------------------------------------------
     lambda(   1 )=       0.000009   gamma=       0.000000 meV   omega=      5.8119 meV
     lambda(   2 )=       0.000000   gamma=       0.000000 meV   omega=      6.1615 meV
     lambda(   3 )=       0.000012   gamma=       0.000002 meV   omega=      8.9711 meV
     lambda( tot )=       0.000021
     -------------------------------------------------------------------


     Number of (k,k+q) pairs on the Fermi surface:      214 out of      216


     ismear =     1 iq =      69 coord.:   0.16667  0.83333  0.33333 wt:   0.00463
     -------------------------------------------------------------------
     lambda(   1 )=       0.045789   gamma=       0.003811 meV   omega=      7.1481 meV
     lambda(   2 )=       0.115001   gamma=       0.010703 meV   omega=      7.5592 meV
     lambda(   3 )=       0.059672   gamma=       0.009605 meV   omega=      9.9412 meV
     lambda( tot )=       0.220462
     -------------------------------------------------------------------


     Number of (k,k+q) pairs on the Fermi surface:      214 out of      216


     ismear =     1 iq =      70 coord.:   0.16667  0.83333  0.50000 wt:   0.00463
     -------------------------------------------------------------------
     lambda(   1 )=       0.000000   gamma=       0.000000 meV   omega=      7.6037 meV
     lambda(   2 )=       0.000000   gamma=       0.000000 meV   omega=      8.7521 meV
     lambda(   3 )=       0.000000   gamma=       0.000000 meV   omega=      9.8455 meV
     lambda( tot )=       0.000000
     -------------------------------------------------------------------


     Number of (k,k+q) pairs on the Fermi surface:      214 out of      216


     ismear =     1 iq =      71 coord.:   0.16667  0.83333  0.66667 wt:   0.00463
     -------------------------------------------------------------------
     lambda(   1 )=       0.045788   gamma=       0.003811 meV   omega=      7.1481 meV
     lambda(   2 )=       0.115001   gamma=       0.010703 meV   omega=      7.5592 meV
     lambda(   3 )=       0.059672   gamma=       0.009605 meV   omega=      9.9412 meV
     lambda( tot )=       0.220461
     -------------------------------------------------------------------


     Number of (k,k+q) pairs on the Fermi surface:      214 out of      216


     ismear =     1 iq =      72 coord.:   0.16667  0.83333  0.83333 wt:   0.00463
     -------------------------------------------------------------------
     lambda(   1 )=       0.000009   gamma=       0.000000 meV   omega=      5.8119 meV
     lambda(   2 )=       0.000000   gamma=       0.000000 meV   omega=      6.1615 meV
     lambda(   3 )=       0.000012   gamma=       0.000002 meV   omega=      8.9711 meV
     lambda( tot )=       0.000021
     -------------------------------------------------------------------


     Number of (k,k+q) pairs on the Fermi surface:      214 out of      216


     ismear =     1 iq =      73 coord.:   0.33333  0.00000  0.00000 wt:   0.00463
     -------------------------------------------------------------------
     lambda(   1 )=       0.081311   gamma=       0.004658 meV   omega=      5.9304 meV
     lambda(   2 )=       0.081311   gamma=       0.004658 meV   omega=      5.9304 meV
     lambda(   3 )=       0.195410   gamma=       0.026906 meV   omega=      9.1943 meV
     lambda( tot )=       0.358033
     -------------------------------------------------------------------


     Number of (k,k+q) pairs on the Fermi surface:      214 out of      216


     ismear =     1 iq =      74 coord.:   0.33333  0.00000  0.16667 wt:   0.00463
     -------------------------------------------------------------------
     lambda(   1 )=       0.000009   gamma=       0.000000 meV   omega=      5.8119 meV
     lambda(   2 )=       0.000000   gamma=       0.000000 meV   omega=      6.1615 meV
     lambda(   3 )=       0.000012   gamma=       0.000002 meV   omega=      8.9711 meV
     lambda( tot )=       0.000021
     -------------------------------------------------------------------


     Number of (k,k+q) pairs on the Fermi surface:      214 out of      216


     ismear =     1 iq =      75 coord.:   0.33333  0.00000  0.33333 wt:   0.00463
     -------------------------------------------------------------------
     lambda(   1 )=       0.283929   gamma=       0.020796 meV   omega=      6.7059 meV
     lambda(   2 )=       0.283929   gamma=       0.020796 meV   omega=      6.7059 meV
     lambda(   3 )=       0.001293   gamma=       0.000219 meV   omega=     10.1933 meV
     lambda( tot )=       0.569150
     -------------------------------------------------------------------


     Number of (k,k+q) pairs on the Fermi surface:      214 out of      216


     ismear =     1 iq =      76 coord.:   0.33333  0.00000  0.50000 wt:   0.00463
     -------------------------------------------------------------------
     lambda(   1 )=       0.000020   gamma=       0.000002 meV   omega=      7.4018 meV
     lambda(   2 )=       0.000000   gamma=       0.000000 meV   omega=      8.0883 meV
     lambda(   3 )=       0.000000   gamma=       0.000000 meV   omega=     10.5654 meV
     lambda( tot )=       0.000020
     -------------------------------------------------------------------


     Number of (k,k+q) pairs on the Fermi surface:      214 out of      216


     ismear =     1 iq =      77 coord.:   0.33333  0.00000  0.66667 wt:   0.00463
     -------------------------------------------------------------------
     lambda(   1 )=       0.012465   gamma=       0.001099 meV   omega=      7.3569 meV
     lambda(   2 )=       0.088881   gamma=       0.012619 meV   omega=      9.3361 meV
     lambda(   3 )=       0.003442   gamma=       0.000505 meV   omega=      9.4900 meV
     lambda( tot )=       0.104789
     -------------------------------------------------------------------


     Number of (k,k+q) pairs on the Fermi surface:      214 out of      216


     ismear =     1 iq =      78 coord.:   0.33333  0.00000  0.83333 wt:   0.00463
     -------------------------------------------------------------------
     lambda(   1 )=       0.000000   gamma=       0.000000 meV   omega=      6.7600 meV
     lambda(   2 )=      -0.000000   gamma=      -0.000000 meV   omega=      7.2526 meV
     lambda(   3 )=       0.000004   gamma=       0.000001 meV   omega=      9.8847 meV
     lambda( tot )=       0.000004
     -------------------------------------------------------------------


     Number of (k,k+q) pairs on the Fermi surface:      214 out of      216


     ismear =     1 iq =      79 coord.:   0.33333  0.16667  0.00000 wt:   0.00463
     -------------------------------------------------------------------
     lambda(   1 )=       0.000009   gamma=       0.000000 meV   omega=      5.8119 meV
     lambda(   2 )=       0.000000   gamma=       0.000000 meV   omega=      6.1615 meV
     lambda(   3 )=       0.000012   gamma=       0.000002 meV   omega=      8.9711 meV
     lambda( tot )=       0.000021
     -------------------------------------------------------------------


     Number of (k,k+q) pairs on the Fermi surface:      214 out of      216


     ismear =     1 iq =      80 coord.:   0.33333  0.16667  0.16667 wt:   0.00463
     -------------------------------------------------------------------
     lambda(   1 )=       0.199967   gamma=       0.009339 meV   omega=      5.3549 meV
     lambda(   2 )=       0.118565   gamma=       0.005769 meV   omega=      5.4655 meV
     lambda(   3 )=       0.039470   gamma=       0.004058 meV   omega=      7.9447 meV
     lambda( tot )=       0.358001
     -------------------------------------------------------------------


     Number of (k,k+q) pairs on the Fermi surface:      214 out of      216


     ismear =     1 iq =      81 coord.:   0.33333  0.16667  0.33333 wt:   0.00463
     -------------------------------------------------------------------
     lambda(   1 )=       0.000009   gamma=       0.000000 meV   omega=      5.8119 meV
     lambda(   2 )=       0.000000   gamma=       0.000000 meV   omega=      6.1615 meV
     lambda(   3 )=       0.000012   gamma=       0.000002 meV   omega=      8.9711 meV
     lambda( tot )=       0.000021
     -------------------------------------------------------------------


     Number of (k,k+q) pairs on the Fermi surface:      214 out of      216


     ismear =     1 iq =      82 coord.:   0.33333  0.16667  0.50000 wt:   0.00463
     -------------------------------------------------------------------
     lambda(   1 )=       0.045788   gamma=       0.003811 meV   omega=      7.1481 meV
     lambda(   2 )=       0.115001   gamma=       0.010703 meV   omega=      7.5592 meV
     lambda(   3 )=       0.059672   gamma=       0.009605 meV   omega=      9.9412 meV
     lambda( tot )=       0.220461
     -------------------------------------------------------------------


     Number of (k,k+q) pairs on the Fermi surface:      214 out of      216


     ismear =     1 iq =      83 coord.:   0.33333  0.16667  0.66667 wt:   0.00463
     -------------------------------------------------------------------
     lambda(   1 )=       0.000000   gamma=       0.000000 meV   omega=      7.6037 meV
     lambda(   2 )=       0.000000   gamma=       0.000000 meV   omega=      8.7521 meV
     lambda(   3 )=       0.000000   gamma=       0.000000 meV   omega=      9.8455 meV
     lambda( tot )=       0.000000
     -------------------------------------------------------------------


     Number of (k,k+q) pairs on the Fermi surface:      214 out of      216


     ismear =     1 iq =      84 coord.:   0.33333  0.16667  0.83333 wt:   0.00463
     -------------------------------------------------------------------
     lambda(   1 )=       0.045789   gamma=       0.003811 meV   omega=      7.1481 meV
     lambda(   2 )=       0.115001   gamma=       0.010703 meV   omega=      7.5592 meV
     lambda(   3 )=       0.059672   gamma=       0.009605 meV   omega=      9.9412 meV
     lambda( tot )=       0.220462
     -------------------------------------------------------------------


     Number of (k,k+q) pairs on the Fermi surface:      214 out of      216


     ismear =     1 iq =      85 coord.:   0.33333  0.33333  0.00000 wt:   0.00463
     -------------------------------------------------------------------
     lambda(   1 )=       0.283929   gamma=       0.020796 meV   omega=      6.7059 meV
     lambda(   2 )=       0.283929   gamma=       0.020796 meV   omega=      6.7059 meV
     lambda(   3 )=       0.001293   gamma=       0.000219 meV   omega=     10.1933 meV
     lambda( tot )=       0.569150
     -------------------------------------------------------------------


     Number of (k,k+q) pairs on the Fermi surface:      214 out of      216


     ismear =     1 iq =      86 coord.:   0.33333  0.33333  0.16667 wt:   0.00463
     -------------------------------------------------------------------
     lambda(   1 )=       0.000009   gamma=       0.000000 meV   omega=      5.8119 meV
     lambda(   2 )=       0.000000   gamma=       0.000000 meV   omega=      6.1615 meV
     lambda(   3 )=       0.000012   gamma=       0.000002 meV   omega=      8.9711 meV
     lambda( tot )=       0.000021
     -------------------------------------------------------------------


     Number of (k,k+q) pairs on the Fermi surface:      214 out of      216


     ismear =     1 iq =      87 coord.:   0.33333  0.33333  0.33333 wt:   0.00463
     -------------------------------------------------------------------
     lambda(   1 )=       0.081311   gamma=       0.004658 meV   omega=      5.9304 meV
     lambda(   2 )=       0.081311   gamma=       0.004658 meV   omega=      5.9304 meV
     lambda(   3 )=       0.195410   gamma=       0.026906 meV   omega=      9.1943 meV
     lambda( tot )=       0.358033
     -------------------------------------------------------------------


     Number of (k,k+q) pairs on the Fermi surface:      214 out of      216


     ismear =     1 iq =      88 coord.:   0.33333  0.33333  0.50000 wt:   0.00463
     -------------------------------------------------------------------
     lambda(   1 )=       0.000000   gamma=       0.000000 meV   omega=      6.7600 meV
     lambda(   2 )=      -0.000000   gamma=      -0.000000 meV   omega=      7.2526 meV
     lambda(   3 )=       0.000004   gamma=       0.000001 meV   omega=      9.8847 meV
     lambda( tot )=       0.000004
     -------------------------------------------------------------------


     Number of (k,k+q) pairs on the Fermi surface:      214 out of      216


     ismear =     1 iq =      89 coord.:   0.33333  0.33333  0.66667 wt:   0.00463
     -------------------------------------------------------------------
     lambda(   1 )=       0.012465   gamma=       0.001099 meV   omega=      7.3569 meV
     lambda(   2 )=       0.088881   gamma=       0.012619 meV   omega=      9.3361 meV
     lambda(   3 )=       0.003442   gamma=       0.000505 meV   omega=      9.4900 meV
     lambda( tot )=       0.104789
     -------------------------------------------------------------------


     Number of (k,k+q) pairs on the Fermi surface:      214 out of      216


     ismear =     1 iq =      90 coord.:   0.33333  0.33333  0.83333 wt:   0.00463
     -------------------------------------------------------------------
     lambda(   1 )=       0.000020   gamma=       0.000002 meV   omega=      7.4018 meV
     lambda(   2 )=       0.000000   gamma=       0.000000 meV   omega=      8.0883 meV
     lambda(   3 )=       0.000000   gamma=       0.000000 meV   omega=     10.5654 meV
     lambda( tot )=       0.000020
     -------------------------------------------------------------------


     Number of (k,k+q) pairs on the Fermi surface:      214 out of      216


     ismear =     1 iq =      91 coord.:   0.33333  0.50000  0.00000 wt:   0.00463
     -------------------------------------------------------------------
     lambda(   1 )=       0.000020   gamma=       0.000002 meV   omega=      7.4018 meV
     lambda(   2 )=       0.000000   gamma=       0.000000 meV   omega=      8.0883 meV
     lambda(   3 )=       0.000000   gamma=       0.000000 meV   omega=     10.5654 meV
     lambda( tot )=       0.000020
     -------------------------------------------------------------------


     Number of (k,k+q) pairs on the Fermi surface:      214 out of      216


     ismear =     1 iq =      92 coord.:   0.33333  0.50000  0.16667 wt:   0.00463
     -------------------------------------------------------------------
     lambda(   1 )=       0.045788   gamma=       0.003811 meV   omega=      7.1481 meV
     lambda(   2 )=       0.115001   gamma=       0.010703 meV   omega=      7.5592 meV
     lambda(   3 )=       0.059672   gamma=       0.009605 meV   omega=      9.9412 meV
     lambda( tot )=       0.220461
     -------------------------------------------------------------------


     Number of (k,k+q) pairs on the Fermi surface:      214 out of      216


     ismear =     1 iq =      93 coord.:   0.33333  0.50000  0.33333 wt:   0.00463
     -------------------------------------------------------------------
     lambda(   1 )=       0.000000   gamma=       0.000000 meV   omega=      6.7600 meV
     lambda(   2 )=      -0.000000   gamma=      -0.000000 meV   omega=      7.2526 meV
     lambda(   3 )=       0.000004   gamma=       0.000001 meV   omega=      9.8847 meV
     lambda( tot )=       0.000004
     -------------------------------------------------------------------


     Number of (k,k+q) pairs on the Fermi surface:      214 out of      216


     ismear =     1 iq =      94 coord.:   0.33333  0.50000  0.50000 wt:   0.00463
     -------------------------------------------------------------------
     lambda(   1 )=       0.132331   gamma=       0.010194 meV   omega=      6.8772 meV
     lambda(   2 )=       0.004818   gamma=       0.000451 meV   omega=      7.5803 meV
     lambda(   3 )=       0.037481   gamma=       0.006408 meV   omega=     10.2450 meV
     lambda( tot )=       0.174630
     -------------------------------------------------------------------


     Number of (k,k+q) pairs on the Fermi surface:      214 out of      216


     ismear =     1 iq =      95 coord.:   0.33333  0.50000  0.66667 wt:   0.00463
     -------------------------------------------------------------------
     lambda(   1 )=       0.000000   gamma=       0.000000 meV   omega=      7.6037 meV
     lambda(   2 )=       0.000000   gamma=       0.000000 meV   omega=      8.7521 meV
     lambda(   3 )=       0.000000   gamma=       0.000000 meV   omega=      9.8455 meV
     lambda( tot )=       0.000000
     -------------------------------------------------------------------


     Number of (k,k+q) pairs on the Fermi surface:      214 out of      216


     ismear =     1 iq =      96 coord.:   0.33333  0.50000  0.83333 wt:   0.00463
     -------------------------------------------------------------------
     lambda(   1 )=       0.056178   gamma=       0.005973 meV   omega=      8.0792 meV
     lambda(   2 )=       0.001036   gamma=       0.000122 meV   omega=      8.4924 meV
     lambda(   3 )=       0.007071   gamma=       0.001209 meV   omega=     10.2476 meV
     lambda( tot )=       0.064285
     -------------------------------------------------------------------


     Number of (k,k+q) pairs on the Fermi surface:      214 out of      216


     ismear =     1 iq =      97 coord.:   0.33333  0.66667  0.00000 wt:   0.00463
     -------------------------------------------------------------------
     lambda(   1 )=       0.012465   gamma=       0.001099 meV   omega=      7.3569 meV
     lambda(   2 )=       0.088881   gamma=       0.012619 meV   omega=      9.3361 meV
     lambda(   3 )=       0.003442   gamma=       0.000505 meV   omega=      9.4900 meV
     lambda( tot )=       0.104789
     -------------------------------------------------------------------


     Number of (k,k+q) pairs on the Fermi surface:      214 out of      216


     ismear =     1 iq =      98 coord.:   0.33333  0.66667  0.16667 wt:   0.00463
     -------------------------------------------------------------------
     lambda(   1 )=       0.000000   gamma=       0.000000 meV   omega=      7.6037 meV
     lambda(   2 )=       0.000000   gamma=       0.000000 meV   omega=      8.7521 meV
     lambda(   3 )=       0.000000   gamma=       0.000000 meV   omega=      9.8455 meV
     lambda( tot )=       0.000000
     -------------------------------------------------------------------


     Number of (k,k+q) pairs on the Fermi surface:      214 out of      216


     ismear =     1 iq =      99 coord.:   0.33333  0.66667  0.33333 wt:   0.00463
     -------------------------------------------------------------------
     lambda(   1 )=       0.012465   gamma=       0.001099 meV   omega=      7.3569 meV
     lambda(   2 )=       0.088881   gamma=       0.012619 meV   omega=      9.3361 meV
     lambda(   3 )=       0.003442   gamma=       0.000505 meV   omega=      9.4900 meV
     lambda( tot )=       0.104789
     -------------------------------------------------------------------


     Number of (k,k+q) pairs on the Fermi surface:      214 out of      216

     Progression iq (fine) =        100/       216

     ismear =     1 iq =     100 coord.:   0.33333  0.66667  0.50000 wt:   0.00463
     -------------------------------------------------------------------
     lambda(   1 )=       0.000000   gamma=       0.000000 meV   omega=      7.6037 meV
     lambda(   2 )=       0.000000   gamma=       0.000000 meV   omega=      8.7521 meV
     lambda(   3 )=       0.000000   gamma=       0.000000 meV   omega=      9.8455 meV
     lambda( tot )=       0.000000
     -------------------------------------------------------------------


     Number of (k,k+q) pairs on the Fermi surface:      214 out of      216


     ismear =     1 iq =     101 coord.:   0.33333  0.66667  0.66667 wt:   0.00463
     -------------------------------------------------------------------
     lambda(   1 )=       0.012465   gamma=       0.001099 meV   omega=      7.3569 meV
     lambda(   2 )=       0.088881   gamma=       0.012619 meV   omega=      9.3361 meV
     lambda(   3 )=       0.003442   gamma=       0.000505 meV   omega=      9.4900 meV
     lambda( tot )=       0.104789
     -------------------------------------------------------------------


     Number of (k,k+q) pairs on the Fermi surface:      214 out of      216


     ismear =     1 iq =     102 coord.:   0.33333  0.66667  0.83333 wt:   0.00463
     -------------------------------------------------------------------
     lambda(   1 )=       0.000000   gamma=       0.000000 meV   omega=      7.6037 meV
     lambda(   2 )=       0.000000   gamma=       0.000000 meV   omega=      8.7521 meV
     lambda(   3 )=       0.000000   gamma=       0.000000 meV   omega=      9.8455 meV
     lambda( tot )=       0.000000
     -------------------------------------------------------------------


     Number of (k,k+q) pairs on the Fermi surface:      214 out of      216


     ismear =     1 iq =     103 coord.:   0.33333  0.83333  0.00000 wt:   0.00463
[...]
      199        3      3.1221      7.9942    182.4847      3.8713     -0.7417
      200        3     -0.1741    -57.1488    189.4281      6.3310     -0.8420
      201        3     -0.6178    -64.4374     73.9205      1.3584     -0.2638
      202        3      0.4975    -28.8762    202.4966     15.4020     -0.9351
      203        3      0.9406    -14.9516    289.7269     -6.5732     -1.1521
      204        3      2.5091    -45.9714    307.4640    -14.4310     -1.0693
      205        3      4.2149     76.1585    126.9383      1.6825     -0.4056
      206        3      0.9406    -14.9516    289.7270     -6.5732     -1.1521
      207        3     -0.1741    -57.1488    189.4281      6.3310     -0.8420
      208        3      0.9406    -14.9516    289.7269     -6.5732     -1.1521
      209        3      4.2149     76.1585    126.9384      1.6825     -0.4056
      210        3      3.9744     33.9191    257.8279      8.6695     -0.8847
      211        3      5.4498     54.9203    114.8428      2.3859     -0.5809
      212        3      4.2149     76.1585    126.9384      1.6825     -0.4056
      213        3      3.1221      7.9942    182.4846      3.8713     -0.7417
      214        3      2.5091    -45.9714    307.4640    -14.4310     -1.0693
      215        3      3.9744     33.9191    257.8279      8.6695     -0.8847
      216        3      6.4242     39.2255     57.8688      1.4113     -0.2914
  
        1        4      6.8767      0.0000      0.0000      1.0000      0.0000
        2        4      6.4242     39.2254     57.8688      1.4113     -0.2914
        3        4      5.4522     59.8898    109.8404      2.2468     -0.5549
        4        4      4.9328     44.3880     52.0920      1.1924     -0.1613
        5        4      5.4522     59.8899    109.8404      2.2468     -0.5549
        6        4      6.4242     39.2254     57.8688      1.4113     -0.2914
        7        4      6.4242     39.2254     57.8688      1.4113     -0.2914
        8        4      5.4498     54.9202    114.8427      2.3859     -0.5809
        9        4      4.6064     49.3000     78.3923      1.4049     -0.2882
       10        4      3.9377      9.4006    170.0310      2.6512     -0.6228
       11        4      4.9622     57.4904     74.6453      1.4613     -0.3157
       12        4      6.2138     23.8245      2.0133      0.9794      0.0211
       13        4      5.4522     59.8898    109.8404      2.2468     -0.5549
       14        4      4.6064     49.3000     78.3922      1.4049     -0.2882
       15        4      2.4543    -66.1398    159.7662      1.5902     -0.3711
       16        4      1.9142     -5.8322    100.6859      1.8000     -0.4444
       17        4      3.1848     55.1241    166.6247      1.9753     -0.4938
       18        4      4.9622     57.4904     74.6453      1.4613     -0.3157
       19        4      4.9328     44.3880     52.0920      1.1924     -0.1613
       20        4      3.9377      9.4005    170.0310      2.6512     -0.6228
       21        4      1.9142     -5.8322    100.6859      1.8000     -0.4444
       22        4      0.8858    -55.7144    149.9250      1.3308     -0.2486
       23        4      1.9142     -5.8322    100.6859      1.8000     -0.4444
       24        4      3.9377      9.4005    170.0310      2.6512     -0.6228
       25        4      5.4522     59.8899    109.8405      2.2468     -0.5549
       26        4      4.9622     57.4904     74.6454      1.4613     -0.3157
       27        4      3.1848     55.1241    166.6247      1.9753     -0.4938
       28        4      1.9142     -5.8322    100.6860      1.8000     -0.4444
       29        4      2.4543    -66.1399    159.7663      1.5902     -0.3711
       30        4      4.6064     49.3000     78.3923      1.4049     -0.2882
       31        4      6.4242     39.2254     57.8688      1.4113     -0.2914
       32        4      6.2138     23.8245      2.0133      0.9794      0.0211
       33        4      4.9622     57.4904     74.6453      1.4613     -0.3157
       34        4      3.9377      9.4005    170.0311      2.6512     -0.6228
       35        4      4.6064     49.3000     78.3924      1.4049     -0.2882
       36        4      5.4498     54.9203    114.8428      2.3859     -0.5809
       37        4      6.4242     39.2254     57.8688      1.4113     -0.2914
       38        4      5.4498     54.9202    114.8427      2.3859     -0.5809
       39        4      4.6064     49.3000     78.3923      1.4049     -0.2882
       40        4      3.9377      9.4006    170.0310      2.6512     -0.6228
       41        4      4.9622     57.4904     74.6454      1.4613     -0.3157
       42        4      6.2138     23.8245      2.0133      0.9794      0.0211
       43        4      5.4498     54.9202    114.8427      2.3859     -0.5809
       44        4      6.4242     39.2254     57.8688      1.4113     -0.2914
       45        4      6.2138     23.8245      2.0133      0.9794      0.0211
       46        4      4.9622     57.4904     74.6453      1.4613     -0.3157
       47        4      3.9377      9.4006    170.0310      2.6512     -0.6228
       48        4      4.6064     49.3000     78.3923      1.4049     -0.2882
       49        4      4.6064     49.3000     78.3922      1.4049     -0.2882
       50        4      6.2138     23.8245      2.0133      0.9794      0.0211
       51        4      4.6064     49.3000     78.3922      1.4049     -0.2882
       52        4      3.6115      9.4089    138.9630      2.2811     -0.5616
       53        4      2.6174     65.5214    295.8401    -32.9679     -1.0303
       54        4      3.6115      9.4089    138.9630      2.2811     -0.5616
       55        4      3.9377      9.4005    170.0310      2.6512     -0.6228
       56        4      4.9622     57.4904     74.6453      1.4613     -0.3157
       57        4      3.6115      9.4089    138.9630      2.2811     -0.5616
       58        4      1.9142     -5.8322    100.6859      1.8000     -0.4444
       59        4      1.0481     92.4081    218.3968      1.9669     -0.4916
       60        4      2.6174     65.5214    295.8400    -32.9681     -1.0303
       61        4      4.9622     57.4904     74.6453      1.4613     -0.3157
       62        4      3.9377      9.4005    170.0310      2.6512     -0.6228
       63        4      2.6174     65.5214    295.8400    -32.9680     -1.0303
       64        4      1.0481     92.4081    218.3969      1.9669     -0.4916
       65        4      1.9142     -5.8322    100.6860      1.8000     -0.4444
       66        4      3.6115      9.4089    138.9631      2.2811     -0.5616
       67        4      6.2138     23.8245      2.0133      0.9794      0.0211
       68        4      4.6064     49.3000     78.3923      1.4049     -0.2882
       69        4      3.6115      9.4089    138.9631      2.2811     -0.5616
       70        4      2.6174     65.5214    295.8401    -32.9677     -1.0303
       71        4      3.6115      9.4089    138.9631      2.2811     -0.5616
       72        4      4.6064     49.3000     78.3923      1.4049     -0.2882
       73        4      5.4522     59.8898    109.8404      2.2468     -0.5549
       74        4      4.6064     49.3000     78.3923      1.4049     -0.2882
       75        4      2.4543    -66.1398    159.7662      1.5902     -0.3711
       76        4      1.9142     -5.8322    100.6859      1.8000     -0.4444
       77        4      3.1848     55.1241    166.6247      1.9753     -0.4938
       78        4      4.9622     57.4904     74.6453      1.4613     -0.3157
       79        4      4.6064     49.3000     78.3922      1.4049     -0.2882
       80        4      6.2138     23.8245      2.0133      0.9794      0.0211
       81        4      4.6064     49.3000     78.3922      1.4049     -0.2882
       82        4      3.6115      9.4089    138.9630      2.2811     -0.5616
       83        4      2.6174     65.5214    295.8401    -32.9677     -1.0303
       84        4      3.6115      9.4089    138.9631      2.2811     -0.5616
       85        4      2.4543    -66.1398    159.7662      1.5902     -0.3711
       86        4      4.6064     49.3000     78.3922      1.4049     -0.2882
       87        4      5.4522     59.8898    109.8404      2.2468     -0.5549
       88        4      4.9622     57.4904     74.6453      1.4613     -0.3157
       89        4      3.1848     55.1241    166.6247      1.9753     -0.4938
       90        4      1.9142     -5.8322    100.6859      1.8000     -0.4444
       91        4      1.9142     -5.8322    100.6859      1.8000     -0.4444
       92        4      3.6115      9.4089    138.9630      2.2811     -0.5616
       93        4      4.9622     57.4904     74.6453      1.4613     -0.3157
       94        4      3.9377      9.4005    170.0310      2.6512     -0.6228
       95        4      2.6174     65.5214    295.8400    -32.9680     -1.0303
       96        4      1.0481     92.4081    218.3968      1.9669     -0.4916
       97        4      3.1848     55.1241    166.6247      1.9753     -0.4938
       98        4      2.6174     65.5214    295.8400    -32.9680     -1.0303
       99        4      3.1848     55.1241    166.6247      1.9753     -0.4938
      100        4      2.6174     65.5214    295.8401    -32.9678     -1.0303
      101        4      3.1848     55.1241    166.6247      1.9753     -0.4938
      102        4      2.6174     65.5214    295.8402    -32.9675     -1.0303
      103        4      4.9622     57.4904     74.6453      1.4613     -0.3157
      104        4      3.6115      9.4089    138.9631      2.2811     -0.5616
      105        4      1.9142     -5.8322    100.6859      1.8000     -0.4444
      106        4      1.0481     92.4081    218.3969      1.9669     -0.4916
      107        4      2.6174     65.5214    295.8402    -32.9674     -1.0303
      108        4      3.9377      9.4005    170.0311      2.6512     -0.6228
      109        4      4.9328     44.3880     52.0920      1.1924     -0.1613
      110        4      3.9377      9.4005    170.0310      2.6512     -0.6228
      111        4      1.9142     -5.8322    100.6859      1.8000     -0.4444
      112        4      0.8858    -55.7144    149.9250      1.3308     -0.2486
      113        4      1.9142     -5.8322    100.6860      1.8000     -0.4444
      114        4      3.9377      9.4005    170.0311      2.6512     -0.6228
      115        4      3.9377      9.4005    170.0310      2.6512     -0.6228
      116        4      4.9622     57.4904     74.6453      1.4613     -0.3157
      117        4      3.6115      9.4089    138.9630      2.2811     -0.5616
      118        4      1.9142     -5.8322    100.6859      1.8000     -0.4444
      119        4      1.0481     92.4081    218.3968      1.9669     -0.4916
      120        4      2.6174     65.5214    295.8401    -32.9679     -1.0303
      121        4      1.9142     -5.8322    100.6859      1.8000     -0.4444
      122        4      3.6115      9.4089    138.9630      2.2811     -0.5616
      123        4      4.9622     57.4904     74.6453      1.4613     -0.3157
      124        4      3.9377      9.4005    170.0310      2.6512     -0.6228
      125        4      2.6174     65.5214    295.8400    -32.9680     -1.0303
      126        4      1.0481     92.4081    218.3968      1.9669     -0.4916
      127        4      0.8858    -55.7144    149.9250      1.3308     -0.2486
      128        4      1.9142     -5.8322    100.6859      1.8000     -0.4444
      129        4      3.9377      9.4005    170.0310      2.6512     -0.6228
      130        4      4.9328     44.3880     52.0919      1.1924     -0.1613
      131        4      3.9377      9.4005    170.0310      2.6512     -0.6228
      132        4      1.9142     -5.8322    100.6860      1.8000     -0.4444
      133        4      1.9142     -5.8322    100.6860      1.8000     -0.4444
      134        4      1.0481     92.4081    218.3969      1.9669     -0.4916
      135        4      2.6174     65.5214    295.8401    -32.9678     -1.0303
      136        4      3.9377      9.4005    170.0310      2.6512     -0.6228
      137        4      4.9622     57.4904     74.6453      1.4613     -0.3157
      138        4      3.6115      9.4089    138.9631      2.2811     -0.5616
      139        4      3.9377      9.4005    170.0311      2.6512     -0.6228
      140        4      2.6174     65.5214    295.8402    -32.9676     -1.0303
      141        4      1.0481     92.4081    218.3969      1.9669     -0.4916
      142        4      1.9142     -5.8322    100.6860      1.8000     -0.4444
      143        4      3.6115      9.4089    138.9631      2.2811     -0.5616
      144        4      4.9622     57.4904     74.6454      1.4613     -0.3157
      145        4      5.4522     59.8899    109.8405      2.2468     -0.5549
      146        4      4.9622     57.4904     74.6454      1.4613     -0.3157
      147        4      3.1848     55.1241    166.6247      1.9753     -0.4938
      148        4      1.9142     -5.8322    100.6860      1.8000     -0.4444
      149        4      2.4543    -66.1399    159.7664      1.5902     -0.3711
      150        4      4.6064     49.3000     78.3923      1.4049     -0.2882
      151        4      4.9622     57.4904     74.6453      1.4613     -0.3157
      152        4      3.9377      9.4006    170.0310      2.6512     -0.6228
      153        4      2.6174     65.5214    295.8401    -32.9677     -1.0303
      154        4      1.0481     92.4081    218.3968      1.9669     -0.4916
      155        4      1.9142     -5.8322    100.6860      1.8000     -0.4444
      156        4      3.6115      9.4089    138.9631      2.2811     -0.5616
      157        4      3.1848     55.1241    166.6247      1.9753     -0.4938
      158        4      2.6174     65.5214    295.8401    -32.9678     -1.0303
      159        4      3.1848     55.1241    166.6247      1.9753     -0.4938
      160        4      2.6174     65.5214    295.8400    -32.9680     -1.0303
      161        4      3.1848     55.1241    166.6247      1.9753     -0.4938
      162        4      2.6174     65.5214    295.8402    -32.9676     -1.0303
      163        4      1.9142     -5.8322    100.6860      1.8000     -0.4444
      164        4      1.0481     92.4081    218.3969      1.9669     -0.4916
      165        4      2.6174     65.5214    295.8401    -32.9679     -1.0303
      166        4      3.9377      9.4005    170.0310      2.6512     -0.6228
      167        4      4.9622     57.4904     74.6453      1.4613     -0.3157
      168        4      3.6115      9.4089    138.9631      2.2811     -0.5616
      169        4      2.4543    -66.1399    159.7664      1.5902     -0.3711
      170        4      1.9142     -5.8322    100.6860      1.8000     -0.4444
      171        4      3.1848     55.1241    166.6247      1.9753     -0.4938
      172        4      4.9622     57.4904     74.6454      1.4613     -0.3157
      173        4      5.4522     59.8899    109.8405      2.2468     -0.5549
      174        4      4.6064     49.3000     78.3923      1.4049     -0.2882
      175        4      4.6064     49.3000     78.3924      1.4049     -0.2882
      176        4      3.6115      9.4089    138.9631      2.2811     -0.5616
      177        4      2.6174     65.5214    295.8402    -32.9674     -1.0303
      178        4      3.6115      9.4089    138.9631      2.2811     -0.5616
      179        4      4.6064     49.3000     78.3924      1.4049     -0.2882
      180        4      6.2138     23.8245      2.0133      0.9794      0.0211
      181        4      6.4242     39.2254     57.8688      1.4113     -0.2914
      182        4      6.2138     23.8245      2.0133      0.9794      0.0211
      183        4      4.9622     57.4904     74.6454      1.4613     -0.3157
      184        4      3.9377      9.4005    170.0311      2.6512     -0.6228
      185        4      4.6064     49.3000     78.3923      1.4049     -0.2882
      186        4      5.4498     54.9203    114.8428      2.3859     -0.5809
      187        4      6.2138     23.8245      2.0133      0.9794      0.0211
      188        4      4.6064     49.3000     78.3923      1.4049     -0.2882
      189        4      3.6115      9.4089    138.9631      2.2811     -0.5616
      190        4      2.6174     65.5214    295.8401    -32.9677     -1.0303
      191        4      3.6115      9.4089    138.9631      2.2811     -0.5616
      192        4      4.6064     49.3000     78.3923      1.4049     -0.2882
      193        4      4.9622     57.4904     74.6453      1.4613     -0.3157
      194        4      3.6115      9.4089    138.9631      2.2811     -0.5616
      195        4      1.9142     -5.8322    100.6859      1.8000     -0.4444
      196        4      1.0481     92.4081    218.3968      1.9669     -0.4916
      197        4      2.6174     65.5214    295.8402    -32.9675     -1.0303
      198        4      3.9377      9.4005    170.0311      2.6512     -0.6228
      199        4      3.9377      9.4005    170.0311      2.6512     -0.6228
      200        4      2.6174     65.5214    295.8401    -32.9677     -1.0303
      201        4      1.0481     92.4081    218.3969      1.9669     -0.4916
      202        4      1.9142     -5.8322    100.6860      1.8000     -0.4444
      203        4      3.6115      9.4089    138.9631      2.2811     -0.5616
      204        4      4.9622     57.4904     74.6454      1.4613     -0.3157
      205        4      4.6064     49.3000     78.3924      1.4049     -0.2882
      206        4      3.6115      9.4089    138.9631      2.2811     -0.5616
      207        4      2.6174     65.5214    295.8402    -32.9674     -1.0303
      208        4      3.6115      9.4089    138.9632      2.2811     -0.5616
      209        4      4.6064     49.3000     78.3924      1.4049     -0.2882
      210        4      6.2138     23.8245      2.0133      0.9794      0.0211
      211        4      5.4498     54.9203    114.8428      2.3859     -0.5809
      212        4      4.6064     49.3000     78.3923      1.4049     -0.2882
      213        4      3.9377      9.4005    170.0311      2.6512     -0.6228
      214        4      4.9622     57.4904     74.6454      1.4613     -0.3157
      215        4      6.2138     23.8245      2.0133      0.9794      0.0211
      216        4      6.4242     39.2255     57.8688      1.4113     -0.2914
  

     ===================================================================
     Eliashberg Spectral Function in the Migdal Approximation
     ===================================================================

     lambda :    0.1052089
     lambda_tr :    0.1031826
 
     Estimated Allen-Dynes Tc
 
     logavg =    0.0005349 l_a2F =    0.1052116
     a2F          :      0.22s CPU      0.12s WALL (       1 calls)

     Unfolding on the coarse grid
     elphon_wrap  :    276.23s CPU    142.07s WALL (       1 calls)

     INITIALIZATION: 

     init_vloc    :      0.25s CPU      0.13s WALL (      29 calls)
     init_us_1    :      3.64s CPU      1.83s WALL (      29 calls)


     Electron-Phonon interpolation
     ephwann      :     10.55s CPU      5.65s WALL (       1 calls)
     ep-interp    :     10.01s CPU      5.36s WALL (     216 calls)
     PH SELF-ENER :      0.29s CPU      0.16s WALL (     216 calls)

     Ham: step 1  :      0.00s CPU      0.00s WALL (       1 calls)
     Ham: step 2  :      0.00s CPU      0.00s WALL (       1 calls)
     ep: step 1   :      0.01s CPU      0.00s WALL (      81 calls)
     ep: step 2   :      0.05s CPU      0.03s WALL (      81 calls)
     DynW2B       :      0.01s CPU      0.01s WALL (     216 calls)
     HamW2B       :      4.67s CPU      2.47s WALL (   93744 calls)
     ephW2Bp      :      0.13s CPU      0.07s WALL (     216 calls)


     Total program execution
     EPW          :  5m 9.87s CPU     2m39.29s WALL

