                                                                                      
                                       ``:oss/                                        
                           `.+s+.     .+ys--yh+     `./ss+.                           
                          -sh//yy+`   +yy   +yy    -+h+-oyy                           
                          -yh- .oyy/.-sh.   .syo-.:sy-  /yh                           
                 `.-.`    `yh+   -oyyyo.     `/syys:    oys      `.`                  
               `/+ssys+-` `sh+      `                   oys`   .:osyo`                
               -yh- ./syyooyo`                          .sys+/oyo--yh/                
               `yy+    .-:-.                             `-/+/:`  -sh-                
                /yh.                                              oys                 
          ``..---hho---------`   .---------..`      `.-----.`    -hd+---.             
       `./osmNMMMMMMMMMMMMMMMs. +NNMMMMMMMMNNmh+.   yNMMMMMNm-  oNMMMMMNmo++:`        
       +sy--/sdMMMhyyyyyyyNMMh- .oyNMMmyyyyyhNMMm+` -yMMMdyyo:` .oyyNMMNhs+syy`       
       -yy/   /MMM+.`-+/``mMMy-   `mMMh:`````.dMMN:` `MMMy-`-dhhy```mMMy:``+hs        
        -yy+` /MMMo:-mMM+`-oo/.    mMMh:     `dMMN/`  dMMm:`dMMMMy..MMMo-.+yo`        
         .sys`/MMMMNNMMMs-         mMMmyooooymMMNo:   oMMM/sMMMMMM++MMN//oh:          
          `sh+/MMMhyyMMMs- `-`     mMMMMMMMMMNmy+-`   -MMMhMMMsmMMmdMMd/yy+           
    `-/+++oyy-/MMM+.`/hh/.`mNm:`   mMMd+/////:-.`      NMMMMMd/:NMMMMMy:/yyo/:.`      
   +os+//:-..-oMMMo:--:::-/MMMo. .-mMMd+---`           hMMMMN+. oMMMMMo. `-+osyso:`   
   syo     `mNMMMMMNNNNNNNNMMMo.oNNMMMMMNNNN:`         +MMMMs:`  dMMMN/`     ``:syo   
   /yh`     :syyyyyyyyyyyyyyyy+.`+syyyyyyyyo:`         .oyys:`   .oyys:`        +yh   
   -yh-        ````````````````    `````````              ``        ``          oys   
   -+h/------------------------::::::::://////++++++++++++++++++++++///////::::/yd:   
   shdddddddddddddddddddddddddddddhhhhhhhhyyyyyssssssssssssssssyyyyyyyhhhhhhhddddh`   
                                                                                      
  S. Ponce, E. R. Margine, C. Verdi, and F. Giustino,                                 
                                                Comput. Phys. Commun. 209, 116 (2016) 
                                                                                      

     Program EPW v.5.6 starts on  6Feb2023 at 14:50:56 

     This program is part of the open-source Quantum ESPRESSO suite
     for quantum simulation of materials; please cite
         "P. Giannozzi et al., J. Phys.:Condens. Matter 21 395502 (2009);
         "P. Giannozzi et al., J. Phys.:Condens. Matter 29 465901 (2017);
         "P. Giannozzi et al., J. Chem. Phys. 152 154105 (2020);
          URL http://www.quantum-espresso.org", 
     in publications or presentations arising from this work. More details at
     http://www.quantum-espresso.org/quote

     Parallel version (MPI), running on     1 processors

     MPI processes distributed on     1 nodes
     46148 MiB available memory on the printing compute node when the environment starts

     Reading input from epw3.in

     WARNING: The specified dis_win_min is ignored.
              You should instead use bands_skipped = 'exclude_bands = ...'
              to control the lower bound of band manifold.

     Reading supplied temperature list.
                      
     ------------------------------------------------------------------------ 
                   RESTART - RESTART - RESTART - RESTART                         
     Restart is done without reading PWSCF save file.                  
     Be aware that some consistency checks are therefore not done.                  
     ------------------------------------------------------------------------ 
                      

     --                                                                         

     bravais-lattice index     =            0
     lattice parameter (a_0)   =       0.0000  a.u.
     unit-cell volume          =       0.0000 (a.u.)^3
     number of atoms/cell      =            0
     number of atomic types    =            0
     kinetic-energy cut-off    =       0.0000  Ry
     charge density cut-off    =       0.0000  Ry
     Exchange-correlation= not set
                           (  -1  -1  -1  -1  -1  -1  -1)


     celldm(1)=    0.00000  celldm(2)=    0.00000  celldm(3)=    0.00000
     celldm(4)=    0.00000  celldm(5)=    0.00000  celldm(6)=    0.00000

     crystal axes: (cart. coord. in units of a_0)
               a(1) = (  0.0000  0.0000  0.0000 )  
               a(2) = (  0.0000  0.0000  0.0000 )  
               a(3) = (  0.0000  0.0000  0.0000 )  

     reciprocal axes: (cart. coord. in units 2 pi/a_0)
               b(1) = (  0.0000  0.0000  0.0000 )  
               b(2) = (  0.0000  0.0000  0.0000 )  
               b(3) = (  0.0000  0.0000  0.0000 )  


     Atoms inside the unit cell: 

   Cartesian axes

     site n.  atom      mass           positions (a_0 units)


     No symmetry!

     G cutoff =    0.0000  (      0 G-vectors)     FFT grid: (  0,  0,  0)
     number of k points=    0
                       cart. coord. in units 2pi/a_0
     EPW          :      0.00s CPU      0.00s WALL

     EPW          :      0.00s CPU      0.00s WALL


     -------------------------------------------------------------------
     Using pb.ukk from disk
     -------------------------------------------------------------------

     Symmetries of Bravais lattice:  48
     Symmetries of crystal:          48

     Do not need to read .epb files; read .fmt files


     Band disentanglement is used: nbndsub =    4
     Use zone-centred Wigner-Seitz cells 
     Number of WS vectors for electrons       43
     Number of WS vectors for phonons       43
     Number of WS vectors for electron-phonon       43
     Maximum number of cores for efficient parallelization      129
     Results may improve by using use_ws == .TRUE. 

     Reading Hamiltonian, Dynamical matrix and EP vertex in Wann rep from file


     Reading interatomic force constants

     IFC last    0.0000313
     Norm of the difference between old and new effective charges:    0.0000000
     Norm of the difference between old and new force-constants:    0.0010986
     Imposed crystal ASR

     Finished reading ifcs


     Finished reading Wann rep data from file

     ===================================================================
     Memory usage:  VmHWM =        14Mb
                   VmPeak =       250Mb
     ===================================================================
     
     Using uniform q-mesh:    6   6   6
     Size of q point mesh for interpolation:        216
     Using uniform MP k-mesh:    6   6   6
     Size of k point mesh for interpolation:         32
     Max number of k points per pool:               32

     Fermi energy coarse grid =   9.797923 eV

     Skipping the first    5 bands:

     The Fermi level will be determined with   4.00000 electrons

     Fermi energy is calculated from the fine k-mesh: Ef =  11.808155 eV

     Warning: check if difference with Fermi level fine grid makes sense

     ===================================================================

              ibndmin =     2  ebndmin =    11.138 eV
              ibndmax =     4  ebndmax =    12.804 eV


     Number of ep-matrix elements per pool :          432 ~=    3.38 Kb (@ 8 bytes/ DP)
      
     A selecq.fmt file was found but re-created because selecqread == .FALSE. 
     Number selected, total             50             54
     Number selected, total            100            104
     Number selected, total            150            156
     Number selected, total            200            207
     We only need to compute      208 q-points
      

     ===================================================================
     Scattering rate for IBTE
     ===================================================================

     Restart and restart_step inputs deactivated (restart point at every q-points).
     No intermediate mobility will be shown.

     Fermi Surface thickness =   1.000000 eV
     This is computed with respect to the fine Fermi level  11.808155 eV
     Only states between  10.808155 eV and  12.808155 eV will be included

     Save matrix elements larger than threshold:   0.238149672306E-21
      
     Progression iq (fine) =         50/       208
       Adaptative smearing el-phonon = Min:    67.220968 meV
                                       Max:   677.381159 meV
       Adaptative smearing el-impurity = Min:    77.397350 meV
                                         Max:   638.402468 meV
     Progression iq (fine) =        100/       208
       Adaptative smearing el-phonon = Min:    66.607827 meV
                                       Max:   676.943835 meV
       Adaptative smearing el-impurity = Min:    77.397346 meV
                                         Max:   638.402359 meV
     Progression iq (fine) =        150/       208
       Adaptative smearing el-phonon = Min:    66.591816 meV
                                       Max:   677.207586 meV
       Adaptative smearing el-impurity = Min:    77.397367 meV
                                         Max:   650.075769 meV
     Progression iq (fine) =        200/       208
       Adaptative smearing el-phonon = Min:   335.960374 meV
                                       Max:   933.577719 meV
       Adaptative smearing el-impurity = Min:   379.605753 meV
                                         Max:   950.560656 meV
      
     epmatkqread automatically changed to .TRUE. as all scattering have been computed.
      
     ===================================================================
     Memory usage:  VmHWM =        17Mb
                   VmPeak =       250Mb
     ===================================================================

     Number of elements per core       1665
     Symmetry mapping finished
      
     =============================================================================================
     BTE in the self-energy relaxation time approximation (SERTA)
     =============================================================================================

     =============================================================================================
       Temp     Fermi        DOS        Population SR                 Conductivity 
        [K]      [eV]    [states/Ry] [carriers per cell]               [Ohm.cm]^-1 
     =============================================================================================

      100.000  11.7933   0.78884E-04  -0.26470E-22    0.324038E+07   -0.262588E-10   -0.262588E-10
                                       0.00000E+00   -0.262588E-10    0.324038E+07    0.262588E-10
                                       0.26470E-22   -0.262588E-10    0.262588E-10    0.324038E+07
      300.000  11.7600   0.00000E+00  -0.11102E-15    0.379683E+06    0.164117E-11   -0.131294E-10
                                       0.28422E-13    0.164117E-11    0.379683E+06    0.000000E+00
                                       0.14322E-13   -0.131294E-10    0.000000E+00    0.379683E+06
      
     =============================================================================================
     Start solving iterative Boltzmann Transport Equation
     =============================================================================================

     Iteration number:         1

     =============================================================================================
       Temp     Fermi        DOS        Population SR                 Conductivity 
        [K]      [eV]    [states/Ry] [carriers per cell]               [Ohm.cm]^-1 
     =============================================================================================

      100.000  11.7933   0.78884E-04  -0.21316E-12    0.337894E+07    0.262588E-10    0.105035E-09
                                      -0.22737E-12   -0.525176E-10    0.337894E+07   -0.525176E-10
                                       0.99476E-13   -0.262588E-10   -0.262588E-10    0.337894E+07
      300.000  11.7600   0.00000E+00   0.26645E-13    0.408189E+06    0.328235E-11    0.328235E-11
                                       0.00000E+00    0.328235E-11    0.408189E+06   -0.328235E-11
                                      -0.17764E-14    0.328235E-11   -0.328235E-11    0.408189E+06

                                                      0.337894E+07    Max error
     Iteration number:         2

     =============================================================================================
       Temp     Fermi        DOS        Population SR                 Conductivity 
        [K]      [eV]    [states/Ry] [carriers per cell]               [Ohm.cm]^-1 
     =============================================================================================

      100.000  11.7933   0.78884E-04  -0.21316E-12    0.339322E+07    0.262588E-10    0.105035E-09
                                       0.00000E+00   -0.525176E-10    0.339322E+07   -0.525176E-10
                                       0.44054E-12    0.787763E-10   -0.262588E-10    0.339322E+07
      300.000  11.7600   0.00000E+00   0.28422E-13    0.412016E+06    0.164117E-11    0.135397E-10
                                       0.00000E+00    0.164117E-11    0.412016E+06    0.000000E+00
                                      -0.14211E-13   -0.410293E-12    0.000000E+00    0.412016E+06

                                                      0.142763E+05    Max error
     Iteration number:         3

     =============================================================================================
       Temp     Fermi        DOS        Population SR                 Conductivity 
        [K]      [eV]    [states/Ry] [carriers per cell]               [Ohm.cm]^-1 
     =============================================================================================

      100.000  11.7933   0.78884E-04   0.00000E+00    0.339416E+07    0.262588E-10    0.000000E+00
                                       0.22737E-12    0.000000E+00    0.339416E+07    0.000000E+00
                                       0.11369E-12   -0.262588E-10   -0.262588E-10    0.339416E+07
      300.000  11.7600   0.00000E+00   0.26645E-13    0.412468E+06    0.164117E-11    0.656469E-11
                                       0.00000E+00    0.164117E-11    0.412468E+06    0.000000E+00
                                      -0.30198E-13   -0.697499E-11    0.000000E+00    0.412468E+06

                                                      0.934248E+03    Max error
     Iteration number:         4

     =============================================================================================
       Temp     Fermi        DOS        Population SR                 Conductivity 
        [K]      [eV]    [states/Ry] [carriers per cell]               [Ohm.cm]^-1 
     =============================================================================================

      100.000  11.7933   0.78884E-04   0.24158E-12    0.339423E+07    0.000000E+00   -0.787763E-10
                                       0.00000E+00   -0.262588E-10    0.339423E+07    0.262588E-10
                                      -0.58265E-12   -0.105035E-09    0.000000E+00    0.339423E+07
      300.000  11.7600   0.00000E+00   0.30198E-13    0.412528E+06    0.164117E-11    0.000000E+00
                                       0.00000E+00   -0.820587E-11    0.412528E+06    0.328235E-11
                                       0.12434E-13   -0.328235E-11    0.656469E-11    0.412528E+06

                                                      0.771284E+02    Max error
     Iteration number:         5

     =============================================================================================
       Temp     Fermi        DOS        Population SR                 Conductivity 
        [K]      [eV]    [states/Ry] [carriers per cell]               [Ohm.cm]^-1 
     =============================================================================================

      100.000  11.7933   0.78884E-04  -0.22737E-12    0.339424E+07    0.000000E+00    0.262588E-10
                                       0.22737E-12   -0.262588E-10    0.339424E+07    0.262588E-10
                                       0.34106E-12    0.000000E+00    0.000000E+00    0.339424E+07
      300.000  11.7600   0.00000E+00   0.17764E-14    0.412535E+06   -0.164117E-11    0.000000E+00
                                       0.28422E-13   -0.164117E-11    0.412535E+06    0.000000E+00
                                       0.12434E-13    0.410293E-12    0.000000E+00    0.412535E+06

                                                      0.753262E+01    Max error
     Iteration number:         6

     =============================================================================================
       Temp     Fermi        DOS        Population SR                 Conductivity 
        [K]      [eV]    [states/Ry] [carriers per cell]               [Ohm.cm]^-1 
     =============================================================================================

      100.000  11.7933   0.78884E-04   0.22737E-12    0.339424E+07    0.525176E-10    0.262588E-10
                                       0.00000E+00    0.787763E-10    0.339424E+07    0.262588E-10
                                      -0.11369E-12    0.525176E-10    0.525176E-10    0.339424E+07
      300.000  11.7600   0.00000E+00   0.30198E-13    0.412536E+06    0.164117E-11    0.328235E-11
                                       0.00000E+00   -0.164117E-11    0.412536E+06   -0.656469E-11
                                      -0.44409E-13   -0.196941E-10   -0.328235E-11    0.412536E+06

                                                      0.981286E+00    Max error
     Iteration number:         7

     =============================================================================================
       Temp     Fermi        DOS        Population SR                 Conductivity 
        [K]      [eV]    [states/Ry] [carriers per cell]               [Ohm.cm]^-1 
     =============================================================================================

      100.000  11.7933   0.78884E-04   0.00000E+00    0.339424E+07   -0.262588E-10    0.787763E-10
                                       0.00000E+00   -0.262588E-10    0.339424E+07    0.262588E-10
                                      -0.22737E-12    0.787763E-10    0.262588E-10    0.339424E+07
      300.000  11.7600   0.00000E+00  -0.26645E-13    0.412537E+06    0.820587E-11   -0.984704E-11
                                       0.00000E+00   -0.164117E-11    0.412537E+06   -0.656469E-11
                                       0.40856E-13    0.000000E+00   -0.328235E-11    0.412537E+06

                                                      0.126660E+00    Max error
     Iteration number:         8

     =============================================================================================
       Temp     Fermi        DOS        Population SR                 Conductivity 
        [K]      [eV]    [states/Ry] [carriers per cell]               [Ohm.cm]^-1 
     =============================================================================================

      100.000  11.7933   0.78884E-04   0.00000E+00    0.339424E+07   -0.525176E-10   -0.262588E-10
                                       0.00000E+00   -0.787763E-10    0.339424E+07   -0.262588E-10
                                       0.00000E+00    0.105035E-09   -0.525176E-10    0.339424E+07
      300.000  11.7600   0.00000E+00  -0.30198E-13    0.412537E+06    0.000000E+00   -0.328235E-11
                                       0.00000E+00    0.328235E-11    0.412537E+06   -0.328235E-11
                                      -0.12434E-13    0.656469E-11    0.000000E+00    0.412537E+06

                                                      0.162466E-01    Max error
     Iteration number:         9

     =============================================================================================
       Temp     Fermi        DOS        Population SR                 Conductivity 
        [K]      [eV]    [states/Ry] [carriers per cell]               [Ohm.cm]^-1 
     =============================================================================================

      100.000  11.7933   0.78884E-04  -0.21316E-12    0.339424E+07    0.000000E+00   -0.525176E-10
                                       0.00000E+00    0.000000E+00    0.339424E+07    0.000000E+00
                                       0.21316E-12   -0.525176E-10    0.000000E+00    0.339424E+07
      300.000  11.7600   0.00000E+00   0.30198E-13    0.412537E+06    0.000000E+00    0.131294E-10
                                      -0.28422E-13    0.000000E+00    0.412537E+06    0.000000E+00
                                       0.72831E-13    0.135397E-10    0.000000E+00    0.412537E+06

                                                      0.212968E-02    Max error
     Iteration number:        10

     =============================================================================================
       Temp     Fermi        DOS        Population SR                 Conductivity 
        [K]      [eV]    [states/Ry] [carriers per cell]               [Ohm.cm]^-1 
     =============================================================================================

      100.000  11.7933   0.78884E-04  -0.21316E-12    0.339424E+07    0.000000E+00    0.157553E-09
                                       0.00000E+00    0.000000E+00    0.339424E+07    0.000000E+00
                                       0.55422E-12    0.525176E-10    0.000000E+00    0.339424E+07
      300.000  11.7600   0.00000E+00   0.26645E-13    0.412537E+06    0.492352E-11    0.164117E-10
                                       0.00000E+00    0.492352E-11    0.412537E+06    0.328235E-11
                                      -0.40856E-13    0.164117E-10    0.328235E-11    0.412537E+06

                                                      0.269625E-03    Max error
     Iteration number:        11

     =============================================================================================
       Temp     Fermi        DOS        Population SR                 Conductivity 
        [K]      [eV]    [states/Ry] [carriers per cell]               [Ohm.cm]^-1 
     =============================================================================================

      100.000  11.7933   0.78884E-04   0.22737E-12    0.339424E+07    0.000000E+00    0.262588E-10
                                       0.00000E+00   -0.262588E-10    0.339424E+07    0.262588E-10
                                       0.00000E+00    0.000000E+00    0.000000E+00    0.339424E+07
      300.000  11.7600   0.00000E+00   0.17764E-14    0.412537E+06    0.164117E-11    0.656469E-11
                                       0.00000E+00   -0.820587E-11    0.412537E+06    0.328235E-11
                                      -0.17764E-14    0.229764E-10    0.656469E-11    0.412537E+06

                                                      0.357798E-04    Max error
     Iteration number:        12

     =============================================================================================
       Temp     Fermi        DOS        Population SR                 Conductivity 
        [K]      [eV]    [states/Ry] [carriers per cell]               [Ohm.cm]^-1 
     =============================================================================================

      100.000  11.7933   0.78884E-04  -0.66791E-12    0.339424E+07   -0.262588E-10    0.210070E-09
                                       0.00000E+00    0.000000E+00    0.339424E+07    0.000000E+00
                                       0.66791E-12    0.131294E-09    0.262588E-10    0.339424E+07
      300.000  11.7600   0.00000E+00   0.83489E-13    0.412537E+06    0.656469E-11    0.328235E-11
                                       0.00000E+00    0.984704E-11    0.412537E+06    0.328235E-11
                                      -0.69278E-13    0.697499E-11    0.656469E-11    0.412537E+06

                                                      0.447821E-05    Max error
     Iteration number:        13

     =============================================================================================
       Temp     Fermi        DOS        Population SR                 Conductivity 
        [K]      [eV]    [states/Ry] [carriers per cell]               [Ohm.cm]^-1 
     =============================================================================================

      100.000  11.7933   0.78884E-04  -0.22737E-12    0.339424E+07    0.000000E+00   -0.525176E-10
                                       0.00000E+00    0.000000E+00    0.339424E+07    0.000000E+00
                                       0.56843E-12   -0.525176E-10    0.000000E+00    0.339424E+07
      300.000  11.7600   0.00000E+00  -0.30198E-13    0.412537E+06    0.984704E-11    0.000000E+00
                                       0.00000E+00    0.656469E-11    0.412537E+06    0.656469E-11
                                       0.40856E-13   -0.984704E-11    0.328235E-11    0.412537E+06

                                                      0.600936E-06    Max error

     Unfolding on the coarse grid
     elphon_wrap  :      0.00s CPU      0.00s WALL (       1 calls)

     INITIALIZATION: 




     Electron-Phonon interpolation
     ephwann      :      0.26s CPU      0.30s WALL (       1 calls)
     ep-interp    :      0.10s CPU      0.15s WALL (     208 calls)

     DynW2B       :      0.00s CPU      0.00s WALL (     208 calls)
     HamW2B       :      0.02s CPU      0.03s WALL (    6704 calls)
     ephW2Bp      :      0.05s CPU      0.07s WALL (     208 calls)
     ephW2B       :      0.00s CPU      0.00s WALL (     819 calls)
     print_ibte   :      0.01s CPU      0.01s WALL (     208 calls)
     vmewan2bloch :      0.00s CPU      0.00s WALL (     208 calls)
     vmewan2bloch :      0.00s CPU      0.00s WALL (     208 calls)


     Total program execution
     EPW          :      0.26s CPU      0.30s WALL

     ===============================================================================
     The functionality-dependent EPW.bib file was created with suggested citations. 
     Please consider citing the papers listed in EPW.bib.                           
     ===============================================================================
                                                                                    
