
     Program PWSCF v.5.1rc1 (svn rev. 10922M) starts on  7May2014 at 10:51:22 

     This program is part of the open-source Quantum ESPRESSO suite
     for quantum simulation of materials; please cite
         "P. Giannozzi et al., J. Phys.:Condens. Matter 21 395502 (2009);
          URL http://www.quantum-espresso.org", 
     in publications or presentations arising from this work. More details at
     http://www.quantum-espresso.org/quote

     Parallel version (MPI), running on     2 processors
     R & G space division:  proc/nbgrp/npool/nimage =       2
     Waiting for input...
     Reading xml input from standard input

     Current dimensions of program PWSCF are:
     Max number of different atomic species (ntypx) = 10
     Max number of k-points (npk) =  40000
     Max angular momentum in pseudopotentials (lmaxx) =  3

     Fixed quantization axis for GGA:     1.000000    0.000000    0.000000

     Subspace diagonalization in iterative solution of the eigenvalue problem:
     a serial algorithm will be used

 
     Parallelization info
     --------------------
     sticks:   dense  smooth     PW     G-vecs:    dense   smooth      PW
     Min         328     199     64                 5380     2508     478
     Max         329     200     65                 5381     2509     481
     Sum         657     399    129                10761     5017     959
 
     Generating pointlists ...
     new r_m :   0.3572 (alat units)  1.9362 (a.u.) for type    1


     bravais-lattice index     =            3
     lattice parameter (alat)  =       5.4200  a.u.
     unit-cell volume          =      79.6100 (a.u.)^3
     number of atoms/cell      =            1
     number of atomic types    =            1
     number of electrons       =        16.00
     number of Kohn-Sham states=           24
     kinetic-energy cutoff     =      60.0000  Ry
     charge density cutoff     =     400.0000  Ry
     convergence threshold     =      1.0E-10
     mixing beta               =       0.7000
     number of iterations used =            8  plain     mixing
     Exchange-correlation      = PBE ( 1  4  3  4 0)
     Noncollinear calculation with spin-orbit


     celldm(1)=   5.420000  celldm(2)=   0.000000  celldm(3)=   0.000000
     celldm(4)=   0.000000  celldm(5)=   0.000000  celldm(6)=   0.000000

     crystal axes: (cart. coord. in units of alat)
               a(1) = (   0.500000   0.500000   0.500000 )  
               a(2) = (  -0.500000   0.500000   0.500000 )  
               a(3) = (  -0.500000  -0.500000   0.500000 )  

     reciprocal axes: (cart. coord. in units 2 pi/alat)
               b(1) = (  1.000000  0.000000  1.000000 )  
               b(2) = ( -1.000000  1.000000  0.000000 )  
               b(3) = (  0.000000 -1.000000  1.000000 )  


     PseudoPot. # 1 for Fe read from file:
     /home/giannozz/trunk/espresso/pseudo/Fe.rel-pbe-spn-rrkjus_psl.0.2.1.UPF
     MD5 check sum: 4bc26ffed05d8be640ae93069a5dfa17
     Pseudo is Ultrasoft + core correction, Zval = 16.0
     Generated using "atomic" code by A. Dal Corso  v.5.0.2 svn rev. 9415
     Using radial grid of 1191 points, 10 beta functions with: 
                l(1) =   0
                l(2) =   0
                l(3) =   1
                l(4) =   1
                l(5) =   1
                l(6) =   1
                l(7) =   2
                l(8) =   2
                l(9) =   2
               l(10) =   2
     Q(r) pseudized with 0 coefficients 


     atomic species   valence    mass     pseudopotential
        Fe            16.00    55.84500     Fe( 1.00)

     16 Sym. Ops., with inversion, found



   Cartesian axes

     site n.     atom                  positions (alat units)
         1           Fe  tau(   1) = (   0.0000000   0.0000000   0.0000000  )

     number of k points=    56  Methfessel-Paxton smearing, width (Ry)=  0.0400
                       cart. coord. in units 2pi/alat
        k(    1) = (   0.0000000   0.0000000   0.1250000), wk =   0.0078125
        k(    2) = (   0.0000000  -0.1250000   0.2500000), wk =   0.0156250
        k(    3) = (   0.0000000  -0.2500000   0.3750000), wk =   0.0156250
        k(    4) = (   0.0000000  -0.3750000   0.5000000), wk =   0.0156250
        k(    5) = (  -0.1250000   0.1250000   0.1250000), wk =   0.0156250
        k(    6) = (  -0.1250000  -0.1250000   0.3750000), wk =   0.0312500
        k(    7) = (  -0.1250000  -0.2500000   0.5000000), wk =   0.0312500
        k(    8) = (  -0.1250000   0.6250000  -0.3750000), wk =   0.0156250
        k(    9) = (  -0.2500000   0.2500000   0.1250000), wk =   0.0312500
        k(   10) = (  -0.2500000   0.7500000  -0.3750000), wk =   0.0312500
        k(   11) = (  -0.3750000   0.3750000   0.1250000), wk =   0.0312500
        k(   12) = (  -0.3750000   0.2500000   0.2500000), wk =   0.0156250
        k(   13) = (   0.5000000  -0.5000000   0.1250000), wk =   0.0156250
        k(   14) = (   0.5000000  -0.6250000   0.2500000), wk =   0.0312500
        k(   15) = (   0.3750000  -0.6250000   0.3750000), wk =   0.0156250
        k(   16) = (   0.0000000   0.0000000   0.3750000), wk =   0.0078125
        k(   17) = (   0.0000000  -0.1250000   0.5000000), wk =   0.0156250
        k(   18) = (   0.0000000  -0.2500000   0.6250000), wk =   0.0156250
        k(   19) = (  -0.1250000  -0.1250000   0.6250000), wk =   0.0312500
        k(   20) = (  -0.1250000   0.7500000  -0.2500000), wk =   0.0156250
        k(   21) = (   0.6250000  -0.6250000   0.3750000), wk =   0.0156250
        k(   22) = (   0.5000000  -0.5000000   0.3750000), wk =   0.0156250
        k(   23) = (   0.0000000   0.0000000   0.6250000), wk =   0.0078125
        k(   24) = (   0.0000000  -0.1250000   0.7500000), wk =   0.0156250
        k(   25) = (  -0.1250000   0.8750000  -0.1250000), wk =   0.0156250
        k(   26) = (   0.0000000   0.0000000   0.8750000), wk =   0.0078125
        k(   27) = (   0.1250000   0.0000000   0.0000000), wk =   0.0039062
        k(   28) = (  -0.1250000   0.2500000   0.0000000), wk =   0.0156250
        k(   29) = (   0.2500000   0.0000000  -0.1250000), wk =   0.0156250
        k(   30) = (  -0.2500000   0.3750000   0.0000000), wk =   0.0156250
        k(   31) = (   0.3750000   0.0000000  -0.2500000), wk =   0.0156250
        k(   32) = (  -0.3750000   0.5000000   0.0000000), wk =   0.0156250
        k(   33) = (   0.5000000   0.0000000  -0.3750000), wk =   0.0156250
        k(   34) = (   0.3750000  -0.1250000  -0.1250000), wk =   0.0156250
        k(   35) = (  -0.2500000   0.5000000  -0.1250000), wk =   0.0312500
        k(   36) = (   0.5000000  -0.1250000  -0.2500000), wk =   0.0312500
        k(   37) = (   0.6250000  -0.3750000  -0.1250000), wk =   0.0312500
        k(   38) = (   0.1250000  -0.2500000   0.2500000), wk =   0.0156250
        k(   39) = (  -0.3750000  -0.2500000   0.7500000), wk =   0.0156250
        k(   40) = (   0.1250000  -0.3750000   0.3750000), wk =   0.0156250
        k(   41) = (   0.2500000   0.2500000  -0.3750000), wk =   0.0312500
        k(   42) = (   0.1250000   0.5000000  -0.5000000), wk =   0.0078125
        k(   43) = (  -0.6250000   0.2500000   0.5000000), wk =   0.0312500
        k(   44) = (   0.2500000   0.5000000  -0.6250000), wk =   0.0312500
        k(   45) = (   0.3750000   0.0000000   0.0000000), wk =   0.0039062
        k(   46) = (  -0.1250000   0.5000000   0.0000000), wk =   0.0156250
        k(   47) = (   0.5000000   0.0000000  -0.1250000), wk =   0.0156250
        k(   48) = (  -0.2500000   0.6250000   0.0000000), wk =   0.0156250
        k(   49) = (   0.6250000   0.0000000  -0.2500000), wk =   0.0156250
        k(   50) = (   0.6250000  -0.1250000  -0.1250000), wk =   0.0156250
        k(   51) = (   0.7500000  -0.2500000  -0.1250000), wk =   0.0312500
        k(   52) = (   0.3750000   0.5000000  -0.5000000), wk =   0.0078125
        k(   53) = (   0.6250000   0.0000000   0.0000000), wk =   0.0039062
        k(   54) = (  -0.1250000   0.7500000   0.0000000), wk =   0.0156250
        k(   55) = (   0.7500000   0.0000000  -0.1250000), wk =   0.0156250
        k(   56) = (   0.8750000   0.0000000   0.0000000), wk =   0.0039062

     Dense  grid:    10761 G-vectors     FFT dimensions: (  30,  30,  30)

     Smooth grid:     5017 G-vectors     FFT dimensions: (  24,  24,  24)

     Largest allocated arrays     est. size (Mb)     dimensions
        Kohn-Sham Wavefunctions         0.24 Mb     (     656,   24)
        NL pseudopotentials             0.17 Mb     (     328,   34)
        Each V/rho on FFT grid          0.21 Mb     (   13500)
        Each G-vector array             0.04 Mb     (    5380)
        G-vector shells                 0.00 Mb     (     138)
     Largest temporary arrays     est. size (Mb)     dimensions
        Auxiliary wavefunctions         0.96 Mb     (     656,   96)
        Each subspace H/S matrix        0.14 Mb     (      96,   96)
        Each <psi_i|beta_j> matrix      0.02 Mb     (      34,   2,   24)
        Arrays for rho mixing           1.65 Mb     (   13500,    8)

     Check: negative/imaginary core charge=   -0.000051    0.000000

     Initial potential from superposition of free atoms

     starting charge   15.99956, renormalised to   16.00000

 ==============================================================================
     atom number    1 relative position :    0.0000   0.0000   0.0000
     charge :    14.480014
     magnetization :          7.240007    0.000000    0.000000
     magnetization/charge:    0.500000    0.000000    0.000000
     polar coord.: r, theta, phi [deg] :     7.240007   90.000000    0.000000

 ==============================================================================
     Starting wfc are   26 randomized atomic wfcs

     total cpu time spent up to now is        3.1 secs

     per-process dynamical memory:    29.3 Mb

     Self-consistent Calculation

     iteration #  1     ecut=    60.00 Ry     beta=0.70
     Davidson diagonalization with overlap
     ethr =  1.00E-02,  avg # of iterations =  3.9

 ==============================================================================
     atom number    1 relative position :    0.0000   0.0000   0.0000
     charge :    14.340147
     magnetization :          4.634889    0.000000    0.000000
     magnetization/charge:    0.323211    0.000000    0.000000
     polar coord.: r, theta, phi [deg] :     4.634889   90.000000    0.000000

 ==============================================================================

     total cpu time spent up to now is        9.1 secs

     total energy              =    -254.22128592 Ry
     Harris-Foulkes estimate   =    -253.91349532 Ry
     estimated scf accuracy    <       0.53985388 Ry

     total magnetization       =     3.59     0.00     0.00 Bohr mag/cell
     absolute magnetization    =     3.60 Bohr mag/cell

     iteration #  2     ecut=    60.00 Ry     beta=0.70
     Davidson diagonalization with overlap
     ethr =  3.37E-03,  avg # of iterations =  1.7

 ==============================================================================
     atom number    1 relative position :    0.0000   0.0000   0.0000
     charge :    14.484258
     magnetization :          3.395608    0.000000    0.000000
     magnetization/charge:    0.234434    0.000000    0.000000
     polar coord.: r, theta, phi [deg] :     3.395608   90.000000    0.000000

 ==============================================================================

     total cpu time spent up to now is       15.1 secs

     total energy              =    -254.30024786 Ry
     Harris-Foulkes estimate   =    -254.28774553 Ry
     estimated scf accuracy    <       0.14765441 Ry

     total magnetization       =     3.00     0.00     0.00 Bohr mag/cell
     absolute magnetization    =     3.09 Bohr mag/cell

     iteration #  3     ecut=    60.00 Ry     beta=0.70
     Davidson diagonalization with overlap
     ethr =  9.23E-04,  avg # of iterations =  2.1

 ==============================================================================
     atom number    1 relative position :    0.0000   0.0000   0.0000
     charge :    14.408971
     magnetization :          2.548674    0.000000    0.000000
     magnetization/charge:    0.176881    0.000000    0.000000
     polar coord.: r, theta, phi [deg] :     2.548674   90.000000    0.000000

 ==============================================================================

     total cpu time spent up to now is       20.5 secs

     total energy              =    -254.31970725 Ry
     Harris-Foulkes estimate   =    -254.38266603 Ry
     estimated scf accuracy    <       0.20718294 Ry

     total magnetization       =     2.59     0.00     0.00 Bohr mag/cell
     absolute magnetization    =     2.73 Bohr mag/cell

     iteration #  4     ecut=    60.00 Ry     beta=0.70
     Davidson diagonalization with overlap
     ethr =  9.23E-04,  avg # of iterations =  2.1

 ==============================================================================
     atom number    1 relative position :    0.0000   0.0000   0.0000
     charge :    14.436937
     magnetization :          2.268283    0.000000    0.000000
     magnetization/charge:    0.157117    0.000000    0.000000
     polar coord.: r, theta, phi [deg] :     2.268283   90.000000    0.000000

 ==============================================================================

     total cpu time spent up to now is       25.5 secs

     total energy              =    -254.35506400 Ry
     Harris-Foulkes estimate   =    -254.35495543 Ry
     estimated scf accuracy    <       0.00152147 Ry

     total magnetization       =     2.34     0.00     0.00 Bohr mag/cell
     absolute magnetization    =     2.52 Bohr mag/cell

     iteration #  5     ecut=    60.00 Ry     beta=0.70
     Davidson diagonalization with overlap
     ethr =  9.51E-06,  avg # of iterations =  4.1

 ==============================================================================
     atom number    1 relative position :    0.0000   0.0000   0.0000
     charge :    14.420121
     magnetization :          2.317864    0.000000    0.000000
     magnetization/charge:    0.160738    0.000000    0.000000
     polar coord.: r, theta, phi [deg] :     2.317864   90.000000    0.000000

 ==============================================================================

     total cpu time spent up to now is       32.8 secs

     total energy              =    -254.35712974 Ry
     Harris-Foulkes estimate   =    -254.35707163 Ry
     estimated scf accuracy    <       0.00020327 Ry

     total magnetization       =     2.21     0.00     0.00 Bohr mag/cell
     absolute magnetization    =     2.36 Bohr mag/cell

     iteration #  6     ecut=    60.00 Ry     beta=0.70
     Davidson diagonalization with overlap
     ethr =  1.27E-06,  avg # of iterations =  1.5

 ==============================================================================
     atom number    1 relative position :    0.0000   0.0000   0.0000
     charge :    14.423655
     magnetization :          2.255865    0.000000    0.000000
     magnetization/charge:    0.156400    0.000000    0.000000
     polar coord.: r, theta, phi [deg] :     2.255865   90.000000    0.000000

 ==============================================================================

     total cpu time spent up to now is       37.3 secs

     total energy              =    -254.35714752 Ry
     Harris-Foulkes estimate   =    -254.35715855 Ry
     estimated scf accuracy    <       0.00007861 Ry

     total magnetization       =     2.22     0.00     0.00 Bohr mag/cell
     absolute magnetization    =     2.37 Bohr mag/cell

     iteration #  7     ecut=    60.00 Ry     beta=0.70
     Davidson diagonalization with overlap
     ethr =  4.91E-07,  avg # of iterations =  2.0

 ==============================================================================
     atom number    1 relative position :    0.0000   0.0000   0.0000
     charge :    14.424017
     magnetization :          2.266070    0.000000    0.000000
     magnetization/charge:    0.157104    0.000000    0.000000
     polar coord.: r, theta, phi [deg] :     2.266070   90.000000    0.000000

 ==============================================================================

     total cpu time spent up to now is       41.8 secs

     total energy              =    -254.35722648 Ry
     Harris-Foulkes estimate   =    -254.35721886 Ry
     estimated scf accuracy    <       0.00000848 Ry

     total magnetization       =     2.20     0.00     0.00 Bohr mag/cell
     absolute magnetization    =     2.34 Bohr mag/cell

     iteration #  8     ecut=    60.00 Ry     beta=0.70
     Davidson diagonalization with overlap
     ethr =  5.30E-08,  avg # of iterations =  2.2

 ==============================================================================
     atom number    1 relative position :    0.0000   0.0000   0.0000
     charge :    14.425242
     magnetization :          2.265155    0.000000    0.000000
     magnetization/charge:    0.157027    0.000000    0.000000
     polar coord.: r, theta, phi [deg] :     2.265155   90.000000    0.000000

 ==============================================================================

     total cpu time spent up to now is       46.5 secs

     total energy              =    -254.35722859 Ry
     Harris-Foulkes estimate   =    -254.35722891 Ry
     estimated scf accuracy    <       0.00000183 Ry

     total magnetization       =     2.20     0.00     0.00 Bohr mag/cell
     absolute magnetization    =     2.34 Bohr mag/cell

     iteration #  9     ecut=    60.00 Ry     beta=0.70
     Davidson diagonalization with overlap
     ethr =  1.14E-08,  avg # of iterations =  2.1

 ==============================================================================
     atom number    1 relative position :    0.0000   0.0000   0.0000
     charge :    14.425233
     magnetization :          2.263103    0.000000    0.000000
     magnetization/charge:    0.156885    0.000000    0.000000
     polar coord.: r, theta, phi [deg] :     2.263103   90.000000    0.000000

 ==============================================================================

     total cpu time spent up to now is       51.2 secs

     total energy              =    -254.35722897 Ry
     Harris-Foulkes estimate   =    -254.35722891 Ry
     estimated scf accuracy    <       0.00000016 Ry

     total magnetization       =     2.20     0.00     0.00 Bohr mag/cell
     absolute magnetization    =     2.34 Bohr mag/cell

     iteration # 10     ecut=    60.00 Ry     beta=0.70
     Davidson diagonalization with overlap
     ethr =  1.03E-09,  avg # of iterations =  2.3

 ==============================================================================
     atom number    1 relative position :    0.0000   0.0000   0.0000
     charge :    14.425191
     magnetization :          2.262348    0.000000    0.000000
     magnetization/charge:    0.156833    0.000000    0.000000
     polar coord.: r, theta, phi [deg] :     2.262348   90.000000    0.000000

 ==============================================================================

     total cpu time spent up to now is       56.1 secs

     total energy              =    -254.35722907 Ry
     Harris-Foulkes estimate   =    -254.35722905 Ry
     estimated scf accuracy    <       0.00000001 Ry

     total magnetization       =     2.20     0.00     0.00 Bohr mag/cell
     absolute magnetization    =     2.34 Bohr mag/cell

     iteration # 11     ecut=    60.00 Ry     beta=0.70
     Davidson diagonalization with overlap
     ethr =  7.92E-11,  avg # of iterations =  2.7

 ==============================================================================
     atom number    1 relative position :    0.0000   0.0000   0.0000
     charge :    14.425194
     magnetization :          2.262342    0.000000    0.000000
     magnetization/charge:    0.156833    0.000000    0.000000
     polar coord.: r, theta, phi [deg] :     2.262342   90.000000    0.000000

 ==============================================================================

     total cpu time spent up to now is       61.6 secs

     total energy              =    -254.35722906 Ry
     Harris-Foulkes estimate   =    -254.35722911 Ry
     estimated scf accuracy    <          6.1E-10 Ry

     total magnetization       =     2.20     0.00     0.00 Bohr mag/cell
     absolute magnetization    =     2.34 Bohr mag/cell

     iteration # 12     ecut=    60.00 Ry     beta=0.70
     Davidson diagonalization with overlap
     ethr =  3.82E-12,  avg # of iterations =  3.6

 ==============================================================================
     atom number    1 relative position :    0.0000   0.0000   0.0000
     charge :    14.425193
     magnetization :          2.262290    0.000000    0.000000
     magnetization/charge:    0.156829    0.000000    0.000000
     polar coord.: r, theta, phi [deg] :     2.262290   90.000000    0.000000

 ==============================================================================

     total cpu time spent up to now is       67.8 secs

     total energy              =    -254.35722907 Ry
     Harris-Foulkes estimate   =    -254.35722908 Ry
     estimated scf accuracy    <          2.0E-10 Ry

     total magnetization       =     2.20     0.00     0.00 Bohr mag/cell
     absolute magnetization    =     2.34 Bohr mag/cell

     iteration # 13     ecut=    60.00 Ry     beta=0.70
     Davidson diagonalization with overlap
     ethr =  1.24E-12,  avg # of iterations =  4.1

 ==============================================================================
     atom number    1 relative position :    0.0000   0.0000   0.0000
     charge :    14.425200
     magnetization :          2.262344    0.000000    0.000000
     magnetization/charge:    0.156833    0.000000    0.000000
     polar coord.: r, theta, phi [deg] :     2.262344   90.000000    0.000000

 ==============================================================================

     total cpu time spent up to now is       74.5 secs

     total energy              =    -254.35722906 Ry
     Harris-Foulkes estimate   =    -254.35722909 Ry
     estimated scf accuracy    <          4.6E-10 Ry

     total magnetization       =     2.20     0.00     0.00 Bohr mag/cell
     absolute magnetization    =     2.34 Bohr mag/cell

     iteration # 14     ecut=    60.00 Ry     beta=0.70
     Davidson diagonalization with overlap
     ethr =  1.24E-12,  avg # of iterations =  3.7

 ==============================================================================
     atom number    1 relative position :    0.0000   0.0000   0.0000
     charge :    14.425200
     magnetization :          2.262347    0.000000    0.000000
     magnetization/charge:    0.156833    0.000000    0.000000
     polar coord.: r, theta, phi [deg] :     2.262347   90.000000    0.000000

 ==============================================================================

     total cpu time spent up to now is       80.8 secs

     End of self-consistent calculation

          k = 0.0000 0.0000 0.1250 (   631 PWs)   bands (ev):

   -70.6431 -67.8454 -37.1710 -36.7094 -35.9788 -34.0296 -33.5729 -33.2189
     9.4629   9.5906  15.2123  15.2188  15.3156  16.2044  16.3960  17.1305
    17.1319  17.2485  18.9998  19.2492  40.1604  40.2642  41.5775  41.5781

          k = 0.0000-0.1250 0.2500 (   627 PWs)   bands (ev):

   -70.6250 -67.8256 -37.2186 -36.7435 -36.0268 -34.0856 -33.6113 -33.2715
    10.6320  10.7861  14.9639  15.1360  15.9001  15.9867  16.4896  16.8258
    17.0154  17.8937  18.6429  19.3533  35.8013  36.2142  39.1590  39.2640

          k = 0.0000-0.2500 0.3750 (   621 PWs)   bands (ev):

   -70.5995 -67.7974 -37.2919 -36.7917 -36.0877 -34.1753 -33.6649 -33.3332
    12.2712  12.7190  14.5821  15.1452  16.1938  16.3764  16.6711  16.7359
    16.8939  18.6839  18.9843  19.4677  30.0872  30.8700  36.8023  36.9056

          k = 0.0000-0.3750 0.5000 (   624 PWs)   bands (ev):

   -70.5815 -67.7775 -37.3476 -36.8259 -36.1260 -34.2453 -33.7027 -33.3689
    12.7683  13.9589  14.3227  15.8691  16.0486  16.3726  17.3010  17.6633
    18.0039  18.8889  19.8116  19.8828  25.3910  26.5985  35.4612  35.5247

          k =-0.1250 0.1250 0.1250 (   630 PWs)   bands (ev):

   -70.6339 -67.8353 -37.1927 -36.7338 -35.9991 -34.0554 -33.6023 -33.2401
    10.0669  10.2023  15.0145  15.0302  15.7959  16.2680  16.2912  16.8958
    16.9138  17.7693  19.0748  19.0894  38.3179  38.3441  38.4998  38.5241

          k =-0.1250-0.1250 0.3750 (   614 PWs)   bands (ev):

   -70.6035 -67.8019 -37.2716 -36.7914 -36.0761 -34.1478 -33.6689 -33.3223
    12.0672  12.3535  14.7257  14.9486  15.8904  16.5511  16.6291  16.7206
    16.8959  18.3538  18.7272  19.5731  33.0455  33.6476  33.9787  34.5145

          k =-0.1250-0.2500 0.5000 (   625 PWs)   bands (ev):

   -70.5825 -67.7786 -37.3309 -36.8333 -36.1258 -34.2204 -33.7152 -33.3731
    13.1519  14.0798  14.4364  14.9733  16.1498  16.2201  16.5621  16.9427
    18.5726  18.5944  19.4223  20.4794  27.9371  28.8375  31.7926  32.3802

          k =-0.1250 0.6250-0.3750 (   624 PWs)   bands (ev):

   -70.5736 -67.7688 -37.3558 -36.8509 -36.1449 -34.2516 -33.7347 -33.3919
    13.2060  14.4481  14.5943  15.1136  16.1462  16.3041  16.6529  17.3053
    18.7438  19.6339  20.5432  21.8272  24.5982  25.8722  31.1102  31.6864

          k =-0.2500 0.2500 0.1250 (   623 PWs)   bands (ev):

   -70.6116 -67.8108 -37.2481 -36.7909 -36.0462 -34.1208 -33.6729 -33.2862
    11.6392  11.8593  14.6287  14.8145  16.2276  16.3794  16.4331  16.5961
    16.7876  18.7893  18.9279  19.2361  32.9600  33.5406  36.0278  36.3120

          k =-0.2500 0.7500-0.3750 (   623 PWs)   bands (ev):

   -70.5703 -67.7652 -37.3494 -36.8755 -36.1476 -34.2385 -33.7722 -33.3940
    13.8872  14.1200  14.6527  15.2783  15.8053  16.2710  16.4965  16.9287
    18.8657  19.3374  21.7413  23.0622  26.0700  27.0546  27.3174  28.1158

          k =-0.3750 0.3750 0.1250 (   626 PWs)   bands (ev):

   -70.5895 -67.7863 -37.3078 -36.8463 -36.0907 -34.1910 -33.7435 -33.3259
    12.8180  13.6712  14.2925  15.5295  16.0031  16.3880  16.4848  16.6876
    18.1424  19.0071  19.3731  20.0470  27.5627  28.5003  34.3643  34.6238

          k =-0.3750 0.2500 0.2500 (   628 PWs)   bands (ev):

   -70.5929 -67.7899 -37.2948 -36.8408 -36.0871 -34.1757 -33.7335 -33.3278
    13.1225  13.6346  14.3399  14.5395  16.0338  16.1301  16.3230  16.5299
    18.3378  18.9983  19.3610  20.2357  30.5105  31.1743  31.2755  31.8706

          k = 0.5000-0.5000 0.1250 (   624 PWs)   bands (ev):

   -70.5802 -67.7761 -37.3335 -36.8687 -36.1083 -34.2210 -33.7724 -33.3407
    12.8944  14.1632  14.1780  15.8456  16.4407  16.5083  16.5442  17.4133
    19.0754  19.4270  19.4883  20.8835  24.4948  25.8318  33.7557  33.9886

          k = 0.5000-0.6250 0.2500 (   621 PWs)   bands (ev):

   -70.5793 -67.7750 -37.3270 -36.8719 -36.1205 -34.2118 -33.7725 -33.3626
    13.5089  14.1897  14.7734  15.1327  15.8003  16.3563  16.4583  16.6271
    19.1325  19.4267  20.7186  22.1183  25.9151  26.9270  29.7235  30.3534

          k = 0.3750-0.6250 0.3750 (   619 PWs)   bands (ev):

   -70.5750 -67.7703 -37.3359 -36.8744 -36.1404 -34.2219 -33.7711 -33.3897
    13.8443  14.4973  14.5310  15.3330  15.9167  15.9308  16.5683  16.6072
    19.2908  19.3257  24.1568  24.1792  25.1839  25.1882  26.5034  27.3847

          k = 0.0000 0.0000 0.3750 (   615 PWs)   bands (ev):

   -70.6081 -67.8070 -37.2559 -36.7779 -36.0704 -34.1274 -33.6506 -33.3216
    11.6587  11.8807  15.2253  15.3660  15.3724  15.9153  16.8300  17.2260
    17.2327  17.7178  17.9199  19.6525  35.9458  36.3193  36.8568  36.8572

          k = 0.0000-0.1250 0.5000 (   624 PWs)   bands (ev):

   -70.5846 -67.7811 -37.3147 -36.8270 -36.1261 -34.1972 -33.7063 -33.3809
    12.9682  13.5851  14.5037  15.2335  15.8527  16.5521  16.7793  17.0624
    17.6636  17.9274  18.8571  20.0422  30.9292  31.6702  34.3001  34.8956

          k = 0.0000-0.2500 0.6250 (   619 PWs)   bands (ev):

   -70.5678 -67.7626 -37.3596 -36.8616 -36.1606 -34.2529 -33.7451 -33.4146
    13.2902  14.4290  14.6998  15.0432  16.0450  16.1519  16.8413  17.5846
    18.2705  19.7904  20.1049  21.5310  25.9068  26.9693  32.7143  33.2652

          k =-0.1250-0.1250 0.6250 (   626 PWs)   bands (ev):

   -70.5656 -67.7601 -37.3536 -36.8763 -36.1644 -34.2415 -33.7669 -33.4202
    13.5818  13.9033  14.8222  15.3018  15.8624  16.2461  17.1254  17.1780
    18.3042  19.3634  19.9794  21.5436  28.8331  29.3981  29.6885  30.0731

          k =-0.1250 0.7500-0.2500 (   625 PWs)   bands (ev):

   -70.5576 -67.7514 -37.3716 -36.8942 -36.1807 -34.2633 -33.7872 -33.4372
    13.5508  13.9057  15.1148  15.2900  15.6463  16.5358  16.8805  17.3924
    18.6616  19.5935  22.9430  24.0035  25.0716  26.1257  28.4450  29.1467

          k = 0.6250-0.6250 0.3750 (   625 PWs)   bands (ev):

   -70.5817 -67.7777 -37.3231 -36.8581 -36.1261 -34.2085 -33.7488 -33.3764
    14.1715  14.1738  14.2978  15.1446  15.7244  15.7266  16.4976  16.5273
    19.3459  19.3723  20.7023  22.1924  28.8766  28.9244  29.5759  29.6223

          k = 0.5000-0.5000 0.3750 (   634 PWs)   bands (ev):

   -70.5774 -67.7727 -37.3282 -36.8735 -36.1408 -34.2122 -33.7671 -33.3960
    14.0502  14.1399  14.7640  15.4153  15.6370  16.0219  16.5459  16.5517
    19.3912  19.4649  23.4808  24.4878  25.2300  26.2349  28.3502  29.0427

          k = 0.0000 0.0000 0.6250 (   627 PWs)   bands (ev):

   -70.5637 -67.7580 -37.3523 -36.8769 -36.1741 -34.2379 -33.7641 -33.4370
    13.3667  13.8544  14.5605  15.9525  16.1133  16.1169  16.8046  18.0080
    18.0111  18.9129  19.3442  21.0099  31.4073  31.4073  31.9985  31.9987

          k = 0.0000-0.1250 0.7500 (   633 PWs)   bands (ev):

   -70.5488 -67.7417 -37.3829 -36.9122 -36.2035 -34.2739 -33.8047 -33.4684
    13.2882  13.4150  15.0049  15.3067  16.2482  16.5140  17.4770  18.1858
    18.4864  19.6702  22.4144  23.4306  27.0902  27.8335  29.6409  30.1202

          k =-0.1250 0.8750-0.1250 (   637 PWs)   bands (ev):

   -70.5419 -67.7341 -37.3910 -36.9374 -36.2125 -34.2826 -33.8359 -33.4777
    13.1536  13.1565  15.0038  15.0055  16.3492  17.3114  17.3349  18.2659
    19.4596  19.4808  25.7345  25.8013  26.4457  26.5124  26.8577  27.4316

          k = 0.0000 0.0000 0.8750 (   642 PWs)   bands (ev):

   -70.5354 -67.7269 -37.4036 -36.9480 -36.2289 -34.2963 -33.8464 -33.4975
    12.9033  12.9041  14.7298  14.7922  17.2781  17.2843  17.4491  19.4071
    19.4135  19.6430  25.1638  25.7106  27.6452  27.6460  28.0096  28.0099

          k = 0.1250 0.0000 0.0000 (   631 PWs)   bands (ev):

   -70.6431 -67.8454 -37.1672 -36.7173 -35.9741 -34.0258 -33.5828 -33.2135
     9.4629   9.5906  15.1921  15.2509  15.3029  16.2106  16.3894  17.1110
    17.1629  17.2379  19.0010  19.2481  40.1605  40.2644  41.5695  41.5870

          k =-0.1250 0.2500 0.0000 (   627 PWs)   bands (ev):

   -70.6250 -67.8256 -37.2153 -36.7507 -36.0226 -34.0811 -33.6223 -33.2655
    10.6320  10.7861  14.9632  15.1369  15.8979  15.9893  16.4895  16.8213
    17.0199  17.8926  18.6436  19.3531  35.8014  36.2141  39.1585  39.2643

          k = 0.2500 0.0000-0.1250 (   627 PWs)   bands (ev):

   -70.6250 -67.8256 -37.2064 -36.7690 -36.0117 -34.0718 -33.6455 -33.2531
    10.6320  10.7861  14.9630  15.1368  15.8870  16.0057  16.4808  16.8247
    17.0204  17.8913  18.6456  19.3521  35.8014  36.2142  39.1589  39.2639

          k =-0.2500 0.3750 0.0000 (   621 PWs)   bands (ev):

   -70.5995 -67.7974 -37.2813 -36.8141 -36.0746 -34.1588 -33.7030 -33.3128
    12.2713  12.7189  14.5816  15.1455  16.2048  16.3689  16.6398  16.7652
    16.8926  18.6856  18.9821  19.4682  30.0873  30.8699  36.8017  36.9061

          k = 0.3750 0.0000-0.2500 (   621 PWs)   bands (ev):

   -70.5995 -67.7974 -37.2727 -36.8318 -36.0641 -34.1498 -33.7243 -33.3020
    12.2713  12.7189  14.5814  15.1457  16.2068  16.3642  16.6492  16.7646
    16.8862  18.6834  18.9868  19.4661  30.0873  30.8699  36.8020  36.9058

          k =-0.3750 0.5000 0.0000 (   624 PWs)   bands (ev):

   -70.5815 -67.7775 -37.3308 -36.8619 -36.1051 -34.2178 -33.7641 -33.3368
    12.7684  13.9587  14.3223  15.8714  16.0521  16.3663  17.3009  17.6630
    18.0053  18.8905  19.7986  19.8943  25.3911  26.5983  35.4603  35.5255

          k = 0.5000 0.0000-0.3750 (   624 PWs)   bands (ev):

   -70.5815 -67.7775 -37.3275 -36.8688 -36.1009 -34.2143 -33.7722 -33.3327
    12.7684  13.9586  14.3222  15.8752  16.0461  16.3684  17.3028  17.6627
    18.0032  18.8903  19.8077  19.8859  25.3911  26.5983  35.4605  35.5254

          k = 0.3750-0.1250-0.1250 (   614 PWs)   bands (ev):

   -70.6035 -67.8019 -37.2544 -36.8268 -36.0552 -34.1283 -33.7155 -33.2979
    12.0672  12.3534  14.7254  14.9482  15.8934  16.5599  16.6129  16.7251
    16.8962  18.3524  18.7304  19.5719  33.0454  33.6481  33.9783  34.5144

          k =-0.2500 0.5000-0.1250 (   625 PWs)   bands (ev):

   -70.5825 -67.7786 -37.3237 -36.8487 -36.1169 -34.2083 -33.7425 -33.3586
    13.1520  14.0797  14.4361  14.9734  16.1647  16.2059  16.5608  16.9431
    18.5660  18.6027  19.4208  20.4797  27.9372  28.8373  31.7926  32.3804

          k = 0.5000-0.1250-0.2500 (   625 PWs)   bands (ev):

   -70.5825 -67.7786 -37.3118 -36.8730 -36.1025 -34.1949 -33.7734 -33.3429
    13.1521  14.0795  14.4357  14.9739  16.1551  16.2182  16.5587  16.9428
    18.5679  18.5991  19.4228  20.4789  27.9372  28.8374  31.7926  32.3803

          k = 0.6250-0.3750-0.1250 (   624 PWs)   bands (ev):

   -70.5736 -67.7688 -37.3412 -36.8818 -36.1270 -34.2287 -33.7855 -33.3655
    13.2062  14.4478  14.5934  15.1151  16.1539  16.2940  16.6545  17.3057
    18.7440  19.6339  20.5430  21.8272  24.5983  25.8720  31.1101  31.6865

          k = 0.1250-0.2500 0.2500 (   623 PWs)   bands (ev):

   -70.6116 -67.8108 -37.2562 -36.7740 -36.0562 -34.1316 -33.6474 -33.2998
    11.6392  11.8593  14.6292  14.8142  16.2156  16.3926  16.4448  16.5810
    16.7899  18.7935  18.9216  19.2382  32.9599  33.5407  36.0279  36.3119

          k =-0.3750-0.2500 0.7500 (   623 PWs)   bands (ev):

   -70.5703 -67.7652 -37.3414 -36.8920 -36.1381 -34.2276 -33.7963 -33.3819
    13.8878  14.1190  14.6529  15.2782  15.8053  16.2732  16.4944  16.9287
    18.8659  19.3372  21.7414  23.0621  26.0700  27.0555  27.3165  28.1159

          k = 0.1250-0.3750 0.3750 (   626 PWs)   bands (ev):

   -70.5895 -67.7863 -37.3225 -36.8152 -36.1088 -34.2138 -33.6921 -33.3527
    12.8179  13.6714  14.2929  15.5296  15.9987  16.3819  16.4996  16.6833
    18.1422  19.0044  19.3762  20.0463  27.5626  28.5005  34.3647  34.6235

          k = 0.2500 0.2500-0.3750 (   628 PWs)   bands (ev):

   -70.5929 -67.7899 -37.3029 -36.8241 -36.0969 -34.1866 -33.7089 -33.3404
    13.1224  13.6347  14.3401  14.5396  16.0359  16.1221  16.3284  16.5302
    18.3377  18.9978  19.3613  20.2357  30.5101  31.1794  31.2704  31.8711

          k = 0.1250 0.5000-0.5000 (   624 PWs)   bands (ev):

   -70.5802 -67.7761 -37.3504 -36.8326 -36.1292 -34.2489 -33.7109 -33.3725
    12.8943  14.1630  14.1788  15.8431  16.4337  16.5230  16.5387  17.4138
    19.0714  19.4244  19.4948  20.8829  24.4946  25.8320  33.7562  33.9881

          k =-0.6250 0.2500 0.5000 (   621 PWs)   bands (ev):

   -70.5793 -67.7750 -37.3303 -36.8651 -36.1244 -34.2163 -33.7625 -33.3676
    13.5089  14.1898  14.7735  15.1328  15.8010  16.3493  16.4631  16.6285
    19.1315  19.4277  20.7184  22.1183  25.9151  26.9270  29.7235  30.3535

          k = 0.2500 0.5000-0.6250 (   621 PWs)   bands (ev):

   -70.5793 -67.7750 -37.3377 -36.8495 -36.1332 -34.2289 -33.7351 -33.3817
    13.5087  14.1900  14.7740  15.1329  15.7988  16.3514  16.4602  16.6312
    19.1296  19.4293  20.7186  22.1182  25.9150  26.9272  29.7236  30.3533

          k = 0.3750 0.0000 0.0000 (   615 PWs)   bands (ev):

   -70.6081 -67.8070 -37.2341 -36.8224 -36.0443 -34.1045 -33.7071 -33.2915
    11.6587  11.8807  15.2269  15.3373  15.3984  15.9206  16.8204  17.2108
    17.2582  17.7011  17.9326  19.6516  35.9460  36.3194  36.7985  36.9309

          k =-0.1250 0.5000 0.0000 (   624 PWs)   bands (ev):

   -70.5846 -67.7811 -37.3116 -36.8336 -36.1223 -34.1920 -33.7185 -33.3742
    12.9682  13.5851  14.5037  15.2325  15.8546  16.5538  16.7736  17.0657
    17.6585  17.9335  18.8555  20.0424  30.9292  31.6700  34.3000  34.8962

          k = 0.5000 0.0000-0.1250 (   624 PWs)   bands (ev):

   -70.5846 -67.7811 -37.2902 -36.8773 -36.0966 -34.1694 -33.7729 -33.3458
    12.9682  13.5849  14.5032  15.2331  15.8548  16.5628  16.7661  17.0630
    17.6584  17.9334  18.8579  20.0414  30.9291  31.6703  34.2999  34.8960

          k =-0.2500 0.6250 0.0000 (   619 PWs)   bands (ev):

   -70.5678 -67.7626 -37.3492 -36.8837 -36.1477 -34.2365 -33.7828 -33.3945
    13.2903  14.4282  14.7010  15.0422  16.0413  16.1582  16.8378  17.5856
    18.2706  19.7926  20.1028  21.5310  25.9068  26.9691  32.7143  33.2655

          k = 0.6250 0.0000-0.2500 (   619 PWs)   bands (ev):

   -70.5678 -67.7626 -37.3407 -36.9012 -36.1374 -34.2276 -33.8038 -33.3837
    13.2903  14.4278  14.7006  15.0434  16.0401  16.1590  16.8382  17.5853
    18.2705  19.7908  20.1050  21.5305  25.9068  26.9692  32.7143  33.2654

          k = 0.6250-0.1250-0.1250 (   626 PWs)   bands (ev):

   -70.5656 -67.7601 -37.3367 -36.9112 -36.1439 -34.2222 -33.8127 -33.3962
    13.5821  13.9028  14.8217  15.3025  15.8623  16.2480  17.1163  17.1852
    18.3042  19.3632  19.9802  21.5431  28.8314  29.4077  29.6777  30.0761

          k = 0.7500-0.2500-0.1250 (   625 PWs)   bands (ev):

   -70.5576 -67.7514 -37.3636 -36.9109 -36.1709 -34.2525 -33.8121 -33.4241
    13.5510  13.9055  15.1154  15.2896  15.6453  16.5406  16.8751  17.3936
    18.6617  19.5937  22.9430  24.0032  25.0717  26.1257  28.4449  29.1469

          k = 0.3750 0.5000-0.5000 (   634 PWs)   bands (ev):

   -70.5774 -67.7727 -37.3315 -36.8669 -36.1445 -34.2179 -33.7549 -33.4023
    14.0500  14.1401  14.7643  15.4170  15.6354  16.0207  16.5296  16.5692
    19.3869  19.4691  23.4809  24.4876  25.2298  26.2352  28.3507  29.0397

          k = 0.6250 0.0000 0.0000 (   627 PWs)   bands (ev):

   -70.5637 -67.7580 -37.3307 -36.9211 -36.1481 -34.2151 -33.8201 -33.4072
    13.3668  13.8543  14.5600  15.9535  16.0800  16.1543  16.8002  17.9737
    18.0447  18.9132  19.3450  21.0093  31.3375  31.4993  31.9086  32.0665

          k =-0.1250 0.7500 0.0000 (   633 PWs)   bands (ev):

   -70.5488 -67.7417 -37.3796 -36.9192 -36.1993 -34.2694 -33.8155 -33.4624
    13.2883  13.4149  15.0053  15.3060  16.2460  16.5177  17.4752  18.1849
    18.4880  19.6702  22.4144  23.4305  27.0902  27.8333  29.6410  30.1204

          k = 0.7500 0.0000-0.1250 (   633 PWs)   bands (ev):

   -70.5488 -67.7417 -37.3707 -36.9374 -36.1886 -34.2602 -33.8384 -33.4502
    13.2883  13.4148  15.0044  15.3073  16.2451  16.5188  17.4747  18.1838
    18.4889  19.6704  22.4146  23.4301  27.0900  27.8339  29.6403  30.1208

          k = 0.8750 0.0000 0.0000 (   642 PWs)   bands (ev):

   -70.5354 -67.7269 -37.3999 -36.9556 -36.2243 -34.2925 -33.8561 -33.4923
    12.9033  12.9041  14.7291  14.7930  17.2503  17.3198  17.4413  19.3761
    19.4483  19.6391  25.1641  25.7099  27.5828  27.7486  27.9076  28.0719

     the Fermi energy is    17.4452 ev

!    total energy              =    -254.35722907 Ry
     Harris-Foulkes estimate   =    -254.35722908 Ry
     estimated scf accuracy    <          2.9E-11 Ry

     The total energy is the sum of the following terms:

     one-electron contribution =    -114.29663726 Ry
     hartree contribution      =      66.63519192 Ry
     xc contribution           =     -34.80840154 Ry
     ewald contribution        =    -171.88999319 Ry
     smearing contrib. (-TS)   =       0.00261100 Ry

     total magnetization       =     2.20     0.00     0.00 Bohr mag/cell
     absolute magnetization    =     2.34 Bohr mag/cell

     convergence has been achieved in  14 iterations

     Writing output data file Fe.save
 
     init_run     :      2.33s CPU      2.37s WALL (       1 calls)
     electrons    :     74.58s CPU     77.73s WALL (       1 calls)

     Called by init_run:
     wfcinit      :      1.38s CPU      1.40s WALL (       1 calls)
     potinit      :      0.05s CPU      0.05s WALL (       1 calls)

     Called by electrons:
     c_bands      :     59.56s CPU     62.06s WALL (      14 calls)
     sum_band     :     12.03s CPU     12.51s WALL (      14 calls)
     v_of_rho     :      0.58s CPU      0.62s WALL (      15 calls)
     newd         :      2.26s CPU      2.35s WALL (      15 calls)
     mix_rho      :      0.19s CPU      0.19s WALL (      14 calls)

     Called by c_bands:
     init_us_2    :      0.43s CPU      0.44s WALL (    1624 calls)
     cegterg      :     56.31s CPU     58.61s WALL (     784 calls)

     Called by *egterg:
     h_psi        :     39.97s CPU     41.68s WALL (    2968 calls)
     s_psi        :      1.77s CPU      1.77s WALL (    2968 calls)
     g_psi        :      0.70s CPU      0.77s WALL (    2128 calls)
     cdiaghg      :      5.44s CPU      5.61s WALL (    2912 calls)

     Called by h_psi:
     add_vuspsi   :      1.58s CPU      1.58s WALL (    2968 calls)

     General routines
     calbec       :      2.14s CPU      2.16s WALL (    3752 calls)
     fft          :      0.64s CPU      0.74s WALL (     713 calls)
     ffts         :      0.06s CPU      0.06s WALL (     116 calls)
     fftw         :     37.27s CPU     39.31s WALL (  234108 calls)
     interpolate  :      0.14s CPU      0.15s WALL (     116 calls)
     davcio       :      0.01s CPU      0.02s WALL (      56 calls)
 
     Parallel routines
     fft_scatter  :      9.90s CPU     10.94s WALL (  234937 calls)
 
     PWSCF        :  1m17.72s CPU     1m20.99s WALL

 
   This run was terminated on:  10:52:43   7May2014            

=------------------------------------------------------------------------------=
   JOB DONE.
=------------------------------------------------------------------------------=
