
     Program POST-PROC v.3.1.1  starts ...
     Today is 29Jun2006 at  3:36:44 

     nbndx  =    34  nbnd   =    34  natomwfc =    91  npwx   =    3109
     nelec  =  56.00  nkb   =    56  ngl    =    2793

     Calling punch_plot, plot_num =   5

     workfunction     =   -12.9733 +-    13.9593 eV
     without exchcorr =    -4.4472 +-    12.7436 eV

     Work function written on file workf
     Planar mean charge written on file charge
     Use the true wfcs
     Sample bias          = -1.0000 eV

     STM:      1.08s cpu time
     Writing data to file  AlAsresm-1.0
     Reading header from file  AlAsresm-1.0
     Reading data from file  AlAsresm-1.0

     Writing data to be plotted to file AlAs110-1.0
     Min, Max, imaginary charge:     0.000099    0.025796    0.000000
     Plot Type: 2D contour             Output format: plotrho.x    
