
     Program MATDYN v.6.1 (svn rev. 13369) starts on 22Feb2020 at 16:30: 4 

     This program is part of the open-source Quantum ESPRESSO suite
     for quantum simulation of materials; please cite
         "P. Giannozzi et al., J. Phys.:Condens. Matter 21 395502 (2009);
          URL http://www.quantum-espresso.org", 
     in publications or presentations arising from this work. More details at
     http://www.quantum-espresso.org/quote

     Parallel version (MPI), running on     1 processors
 Points in sets AB, A, B :          36           8          28
 Sign matrix
 -----------
 1 1 1 1 1 1
-1-1-1-1-1 1
 1 1 1 1-1 1
-1-1-1-1 1 1
 1 1 1-1 1 1
-1-1-1 1-1 1
 1 1 1-1-1 1
-1-1-1 1 1 1
 1 1-1 1 1 1
-1-1 1-1-1 1
 1 1-1 1-1 1
-1-1 1-1 1 1
 1 1-1-1 1 1
-1-1 1 1-1 1
 1 1-1-1-1 1
-1-1 1 1 1 1
 1-1 1 1 1 1
-1 1-1-1-1 1
 1-1 1 1-1 1
-1 1-1-1 1 1
 1-1 1-1 1 1
-1 1-1 1-1 1
 1-1 1-1-1 1
-1 1-1 1 1 1
 1-1-1 1 1 1
-1 1 1-1-1 1
 1-1-1 1-1 1
-1 1 1-1 1 1
 1-1-1-1 1 1
-1 1 1 1-1 1
 1-1-1-1-1 1
-1 1 1 1 1 1
-1 1 1 1 1 1
 1-1-1-1-1 1
-1 1 1 1-1 1
 1-1-1-1 1 1
-1 1 1-1 1 1
 1-1-1 1-1 1
-1 1 1-1-1 1
 1-1-1 1 1 1
-1 1-1 1 1 1
 1-1 1-1-1 1
-1 1-1 1-1 1
 1-1 1-1 1 1
-1 1-1-1 1 1
 1-1 1 1-1 1
-1 1-1-1-1 1
 1-1 1 1 1 1
-1-1 1 1 1 1
 1 1-1-1-1 1
-1-1 1 1-1 1
 1 1-1-1 1 1
-1-1 1-1 1 1
 1 1-1 1-1 1
-1-1 1-1-1 1
 1 1-1 1 1 1
-1-1-1 1 1 1
 1 1 1-1-1 1
-1-1-1 1-1 1
 1 1 1-1 1 1
-1-1-1-1 1 1
 1 1 1 1-1 1
-1-1-1-1-1 1
 1 1 1 1 1 1
 Total error:  0.13121878317645411     
 Total error:  0.14317223636257645     
 Total error:  0.10766470294524949     
 Total error:  0.12244656723736118     
 Total error:  0.12052038049034107     
 Total error:  0.11181917753376559     
 Total error:   8.7889261503915059E-002
 Total error:   8.0972095824686466E-002
 Total error:  0.13648162950558371     
 Total error:   3.6131074570136486E-002
 Total error:  0.11515860104252766     
 Total error:  0.12058156831804655     
 Total error:  0.16310062101662351     
 Total error:  0.15852448280398193     
 Total error:   9.2253591133593271E-002
 Total error:  0.12385656339010019     
 Total error:  0.11261103721800360     
 Total error:  0.14205335761894983     
 Total error:  0.12410455589346599     
 Total error:   6.6041288399612361E-002
 Total error:  0.12164660497094620     
 Total error:  0.15975228576648509     
 Total error:   7.6740266520476191E-002
 Total error:   6.5445284235751133E-002
 Total error:   9.4536564651839072E-002
 Total error:  0.16856684671862002     
 Total error:   6.9739784353001905E-002
 Total error:  0.11885878513290127     
 Total error:   9.2179627801615635E-002
 Total error:  0.16754270537903840     
 Total error:   4.9729406399399073E-002
 Total error:  0.11026094019549788     
 Total error:  0.20816341153950904     
 Total error:   5.7893273114756193E-002
 Total error:  0.10684229373818251     
 Total error:   7.8440883201685893E-002
 Total error:  0.16375065496316576     
 Total error:  0.15877328595852608     
 Total error:  0.15350427642631118     
 Total error:  0.12963591626318521     
 Total error:  0.14992654676644399     
 Total error:  0.13168848316178941     
 Total error:  0.11066688390135689     
 Total error:  0.10789605894891964     
 Total error:   6.7983730241000184E-002
 Total error:   8.3614410138276071E-002
 Total error:  0.12845194612866459     
 Total error:  0.11110512648929836     
 Total error:  0.11009398398822723     
 Total error:   8.7271306700192605E-002
 Total error:  0.20135359645249676     
 Total error:  0.11669871666984032     
 Total error:   3.9481603297225658E-002
 Total error:   7.3345401038410418E-002
 Total error:  0.15131042873207190     
 Total error:  0.23444754787999736     
 Total error:  0.10970548873167614     
 Total error:  0.20368679139745940     
 Total error:  0.10290822312038832     
 Total error:   9.2115170862876697E-002
 Total error:  0.11056437390238794     
 Total error:   9.5885404197864010E-002
 Total error:   5.9303589524042181E-002
 Total error:   6.7037893902427897E-002
 Total error:  0.13288259813766293     
 Total error:   8.3249082024684215E-002
 Total error:  0.14657476893353616     
 Total error:   8.9055232021399325E-002
 Total error:   8.1890726229036329E-002
 Total error:   8.9158212713987828E-002
 Total error:   7.8256743206893520E-002
 Total error:  0.10551494699843056     
 Total error:   9.0650386170918251E-002
 Total error:  0.15768994172379175     
 Total error:   5.9400346163769012E-002
 Total error:  0.13739832423840051     
 Total error:   7.6670896901618504E-002
 Total error:  0.12981649145924953     
 Total error:   8.4665779241606065E-002
 Total error:  0.11627189099473136     
 Total error:  0.13458431477012614     
 Total error:   8.3833181908987905E-002
 Total error:   6.0811727544572917E-002
 Total error:  0.10603914153353812     
 Total error:  0.10013374677233793     
 Total error:  0.10036131262963945     
 Total error:   5.9794346236572336E-002
 Total error:   6.7476881670685218E-002
 Total error:  0.10498684015687432     
 Total error:  0.18163337179180150     
 Total error:  0.13283876697641020     
 Total error:   7.9283869040587110E-002
 Total error:   7.0660310249768404E-002
 Total error:  0.14101781808881714     
 Total error:  0.16621802945581229     
 Total error:  0.23030300883676291     
 Total error:  0.16637438250381353     
 Total error:  0.12704078385775022     
 Total error:  0.10768719576157863     
 Total error:   6.4382120114240562E-002
 Total error:  0.15734241274816552     
 Total error:  0.10052959253888845     
 Total error:  0.15114887739421529     
 Total error:  0.13563648309442572     
 Total error:  0.20721910249111122     
 Total error:  0.14763567665879537     
 Total error:  0.12547738195952443     
 Total error:  0.16514326803905557     
 Total error:   7.8415531383784709E-002
 Total error:  0.11258889941706224     
 Total error:  0.15491696208524636     
 Total error:  0.13337213933718836     
 Total error:   7.2071402449099667E-002
 Total error:   9.2275092527832961E-002
 Total error:  0.17540186282517145     
 Total error:  0.13774290701893729     
 Total error:  0.12606297875737979     
 Total error:  0.14357279976261569     
 Total error:  0.12857196349578232     
 Total error:  0.10702809285641589     
 Total error:  0.10686010790127383     
 Total error:  0.20119051315917638     
 Total error:   8.5723527285586520E-002
 Total error:   4.0897849037586947E-002
 Total error:  0.16417594752146680     
 Total error:  0.12166248827781019     
 Total error:   8.7875782700914187E-002
 Total error:   8.7378354033613104E-002
 Total error:   9.0495175285655871E-002
 Total error:  0.11852938925215302     
 Total error:  0.13903250458019417     
 Total error:   8.3955796342638236E-002
 Total error:   3.6175164556456051E-002
 Total error:  0.14169906597093537     
 Total error:   6.7176450183037209E-002
 Total error:  0.10324853555689979     
 Total error:   7.8781782423644420E-002
 Total error:   4.7064137477483080E-002
 Total error:   7.4711299887726970E-002
 Total error:  0.11354219078059903     
 Total error:  0.18367671486310810     
 Total error:  0.10242174017001078     
 Total error:   8.7452782375322183E-002
 Total error:   9.3666341006546638E-002
 Total error:  0.10864231223020016     
 Total error:  0.13383489620338396     
 Total error:  0.14995261961198472     
 Total error:  0.15249887215926694     
 Total error:  0.12534096358066990     
 Total error:   5.4026680108796930E-002
 Total error:  0.12344976551895394     
 Total error:  0.17755395245712127     
 Total error:   7.4219591020581135E-002
 Total error:  0.12425434656925698     
 Total error:  0.12061944532880081     
 Total error:  0.13917952704634148     
 Total error:  0.12953233712354487     
 Total error:  0.13066611648256046     
 Total error:   3.4896295410483669E-002
 Total error:  0.14356264499070670     
 Total error:  0.16950584295182972     
 Total error:  0.12734342117334732     
 Total error:  0.17105698574062522     
 Total error:  0.12818872675908585     
 Total error:   7.5597268233827106E-002
 Total error:  0.11039126445433824     
 Total error:  0.15013572013757165     
 Total error:  0.15712364866658965     
 Total error:   9.5307375696658037E-002
 Total error:   9.6668764593177137E-002
 Total error:  0.12018411009621342     
 Total error:  0.11059380646567464     
 Total error:  0.14195791190178511     
 Total error:  0.16979442809584575     
 Total error:  0.10022175867622014     
 Total error:  0.17412500190658001     
 Total error:  0.11165143165603486     
 Total error:   7.2049324617207200E-002
 Total error:  0.11960901424447012     
 Total error:   4.1869793861243558E-002
 Total error:   9.9712688001516628E-002
 Total error:   8.3867865622838031E-002
 Total error:   6.7420813157508905E-002
 Total error:  0.13833489981475214     
 Total error:  0.11452701164421487     
 Total error:   6.9258634511430064E-002
 Total error:  0.11048288108732641     
 Total error:   8.7295611848531310E-002
 Total error:  0.13012524399490630     
 Total error:   9.7243075561007350E-002
 Total error:   8.5711149153909691E-002
 Total error:  0.12581671058150928     
 Total error:   8.8544283350992792E-002
 Total error:   6.3770963545739856E-002
 Total error:  0.17384954823563339     
 Total error:  0.10081983764720200     
 Total error:  0.10089006537591343     
 Total error:  0.13991288462202975     
 Total error:  0.10282242062898661     
 Total error:  0.13243453540860037     
 Total error:   9.6869982500769544E-002
 Total error:  0.14390231683930538     
 Total error:   7.8738593576949636E-002
 Total error:   8.4753381383691540E-002
 Total error:  0.10091001373181974     
 Total error:   8.7004947828506027E-002
 Total error:   9.5621734696581584E-002
 Total error:   9.4176198355986410E-002
 Total error:  0.17391974900053095     
 Total error:  0.16079026132845345     
 Total error:  0.12308403330263075     
 Total error:  0.10873866638358730     
 Total error:  0.12600887328838775     
 Total error:   6.9930515856499190E-002
 Total error:   9.7103639481737281E-002
 Total error:  0.12227956942115593     
 Total error:  0.10300549586497222     
 Total error:  0.12202960175959236     
 Total error:   9.9811789070410592E-002
 Total error:  0.15611211133457153     
 Total error:  0.16123908816332760     
 Total error:  0.15687567304723246     
 Total error:  0.11928485204347095     
 Total error:  0.11717480601773367     
 Total error:   5.2312402133412990E-002
 Total error:  0.10165835077916975     
 Total error:   8.1519480293616373E-002
 Total error:  0.14826353361334263     
 Total error:  0.16220199056888776     
 Total error:   2.8648416117408166E-002
 Total error:  0.11803882561567995     
 Total error:   8.6136076681840631E-002
 Total error:  0.11208245453230838     
 Total error:  0.10602477861379644     
 Total error:   6.6557938574883055E-002
 Total error:  0.10387090345064331     
 Total error:   6.5716974860444352E-002
 Total error:   6.7258567620893592E-002
 Total error:  0.10502252620086595     
 Total error:  0.13807244102410746     
 Total error:   9.9451530475608965E-002
 Total error:   9.0576768661612864E-002
 Total error:   9.7186022623724999E-002
 Total error:  0.16867374365613272     
 Total error:   8.0251012493679330E-002
 Total error:  0.11630100944523274     
 Total error:   7.6873443724146548E-002
 Total error:  0.10873925537542944     
 Total error:  0.12276181583446949     
 Total error:   6.7865409637539870E-002
 Total error:  0.19494657343354435     
 Total error:  0.14901690844578311     
 Total error:   9.2330294595367568E-002
 Total error:  0.12115196629898743     
 Total error:   8.5891942663761336E-002
 Total error:  0.12701744005118867     
 Total error:  0.16382644532817722     
 Total error:   7.5332805660562704E-002
 Total error:  0.11584844719480436     
 Total error:  0.10220484661346962     
 Total error:  0.15746057458385909     
 Total error:   8.0635910940781638E-002
 Total error:  0.17516322998802800     
 Total error:  0.14155439177406173     
 Total error:  0.12155634308839597     
 Total error:  0.12905284490740279     
 Total error:  0.16595703551306387     
 Total error:   9.3164599777024640E-002
 Total error:   8.8265652557948548E-002
 Total error:   5.4863761428409631E-002
 Total error:   8.3968706502045978E-002
 Total error:   8.8250746504298608E-002
 Total error:  0.12936352657630298     
 Total error:  0.14452214587606843     
 Total error:   7.7541245841024259E-002
 Total error:  0.14821797104838641     
 Total error:   3.2468867076655146E-002
 Total error:  0.11339905390317941     
 Total error:  0.14615417027075325     
 Total error:  0.10933028892733131     
 Total error:  0.15282124964603075     
 Total error:  0.11006968906643577     
 Total error:  0.15832030300629416     
 Total error:   5.1025005819331538E-002
 Total error:  0.15685940270089513     
 Total error:  0.14513236930528664     
 Total error:  0.16201605708290026     
 Total error:  0.12874841753551314     
 Total error:  0.12282876967083355     
 Total error:  0.19109992640548831     
 Total error:  0.16526466572097856     
 Total error:  0.10936312317862834     
 Total error:   6.8321213917589052E-002
 Total error:  0.10671812757712033     
 Total error:  0.11307342800009405     
 Total error:   5.7375220655581240E-002
 Total error:   9.2029774901593711E-002
 Total error:  0.14863852740892275     
 Total error:  0.10269809598924125     
 Total error:   8.2345831429406449E-002
 Total error:  0.10200710300484155     
 Total error:  0.14619411643866106     
 Total error:  0.15932831245080278     
 Total error:  0.13948433666213500     
 Total error:   6.5507998727839120E-002
 Total error:  0.19664476858045099     
 Total error:   5.9208478329488147E-002
 Total error:  0.18169106283825406     
 Total error:   7.7709125321450426E-002
 Total error:  0.10589940695358525     
 Total error:   8.4021612979340313E-002
 Total error:  0.20927251520956924     
 Total error:  0.13379955924053907     
 Total error:   5.2306377834703315E-002
 Total error:  0.10631479274391693     
 Total error:  0.14821043511249096     
 Total error:  0.14300464973427449     
 Total error:  0.12144934292142617     
 Total error:  0.10790375238431138     
 Total error:   9.6936837145544089E-002
 Total error:  0.12468060830159987     
 Total error:  0.15014348876895953     
 Total error:  0.11982792295243090     
 Total error:   7.8398739552111296E-002
 Total error:  0.17426892984565356     
 Total error:   6.7665565855048557E-002
 Total error:  0.14223776067402613     
 Total error:  0.14123527881184739     
 Total error:  0.11221143065380640     
 Total error:  0.21980041673936593     
 Total error:   9.8133629924994484E-002
 Total error:   7.7615122074365203E-002
 Total error:  0.18266490802153770     
 Total error:  0.13475077755930742     
 Total error:   9.5657100409102289E-002
 Total error:  0.11526792210049271     
 Total error:   9.6425881176422437E-002
 Total error:   5.2732723251158194E-002
 Total error:  0.14350710837178804     
 Total error:  0.10186916836024973     
 Total error:  0.10736304881640180     
 Total error:   6.9368734353156311E-002
 Total error:  0.10166266049014454     
 Total error:  0.14620314352882044     
 Total error:  0.12632292136839329     
 Total error:   6.9458093726687861E-002
 Total error:  0.10075976005748701     
 Total error:  0.15372631339641257     
 Total error:  0.21752157878856160     
 Total error:   8.6136586448579799E-002
 Total error:   9.6673486200653844E-002
 Total error:  0.18455043182108302     
 Total error:  0.16142878850079201     
 Total error:  0.20233923982376531     
 Total error:  0.15449765099877055     
 Total error:  0.12145358324704460     
 Total error:  0.12629923610319740     
 Total error:  0.12251910845135648     
 Total error:   9.4742832897139528E-002
 Total error:  0.12778228850593440     
 Total error:  0.12963194615713411     
 Total error:  0.12851510992464149     
 Total error:  0.11765730397535536     
 Total error:  0.15349136806847832     
 Total error:   6.8514896358805408E-002
 Total error:  0.14341366276587289     
 Total error:  0.11102553287342791     
 Total error:  0.13836365927647573     
 Total error:   8.6698106335118139E-002
 Total error:  0.11243251917982844     
 Total error:   9.8366337165749926E-002
 Total error:  0.13347968410080843     
 Total error:  0.10288628846374304     
 Total error:  0.14161071027009661     
 Total error:  0.14812996165339823     
 Total error:  0.12288446653253045     
 Total error:   8.1830669886477858E-002
 Total error:  0.11455609030251729     
 Total error:   9.3625462396573586E-002
 Total error:   7.7580851142023843E-002
 Total error:  0.10944023278582744     
 Total error:  0.13673372083479987     
 Total error:   7.4283735744813770E-002
 Total error:  0.18153107307531283     
 Total error:   3.4645051964612456E-002
 Total error:   8.7956591985395058E-002
 Total error:  0.15346765371857637     
 Total error:   6.5588106695992979E-002
 Total error:  0.17967285577460759     
 Total error:   9.0411251446659638E-002
 Total error:  0.14246531623301270     
 Total error:   8.5674800118657565E-002
 Total error:  0.10117861550455624     
 Total error:  0.11568686145181155     
 Total error:  0.12732355644511320     
 Total error:  0.10131102539308340     
 Total error:  0.11150348069544130     
 Total error:  0.20148514684455576     
 Total error:   7.3570687649741673E-002
 Total error:   3.8360871805543560E-002
 Total error:  0.10068410284767142     
 Total error:  0.18942123617559492     
 Total error:   6.7586711328541105E-002
 Total error:  0.17283588112579784     
 Total error:  0.12526839005318971     
 Total error:   9.8943266192802540E-002
 Total error:   2.9152260660018858E-002
 Total error:  0.10630529091291950     
 Total error:  0.13163512022678195     
 Total error:   7.5546978812939203E-002
 Total error:  0.12916762054445052     
 Total error:  0.10931571171719708     
 Total error:  0.11881304101287354     
 Total error:   8.9212641685859614E-002
 Total error:  0.10092809694289380     
 Total error:  0.15897696105593340     
 Total error:   5.7334324689108575E-002
 Total error:  0.14191756620673554     
 Total error:  0.10449689193534738     
 Total error:  0.12382581057738777     
 Total error:  0.12259300852961831     
 Total error:  0.12388840575938298     
 Total error:   9.5391457909169600E-002
 Total error:   7.5896393159277722E-002
 Total error:   9.8075087366019650E-002
 Total error:  0.11631145352893281     
 Total error:  0.11627002871146218     
 Total error:   8.6175268515572681E-002
 Total error:  0.16033218635286284     
 Total error:   8.3005461157273780E-002
 Total error:  0.11161305358417505     
 Total error:   8.1172241418977484E-002
 Total error:  0.11606959574072449     
 Total error:   9.6852426621997126E-002
 Total error:   6.6151939359425302E-002
 Total error:   8.5744279885267782E-002
 Total error:   7.1818140947677370E-002
 Total error:   9.5587769161434119E-002
 Total error:  0.10245790487159047     
 Total error:  0.13515160798580136     
 Total error:   9.0579024600206282E-002
 Total error:  0.10456980273516803     
 Total error:  0.10426478280672551     
 Total error:  0.19545233051855135     
 Total error:  0.10119563088716750     
 Total error:  0.12370648747527074     
 Total error:   9.5187575763203192E-002
 Total error:  0.10416961248755614     
 Total error:   5.6691543672539202E-002
 Total error:   8.3486656628962638E-002
 Total error:   9.2076703395770940E-002
 Total error:  0.20278253418717415     
 Total error:  0.14626150557980563     
 Total error:   7.7267592863018389E-002
 Total error:   7.2157545497259598E-002
 Total error:  0.13257582691078015     
 Total error:   6.7778631726796781E-002
 Total error:  0.11532669848201127     
 Total error:   8.2296033217601552E-002
 Total error:   7.2547366084369513E-002
 Total error:  0.15294709738317616     
 Total error:  0.24227518836717968     
 Total error:  0.13907360023082224     
 Total error:  0.11256447437165219     
 Total error:  0.16085404929042876     
 Total error:  0.14641788130845007     
 Total error:   8.0857293546212114E-002
 Total error:  0.10787524790767299     
 Total error:  0.10458244486979050     
 Total error:  0.15070804038385974     
 Total error:  0.11774380984789300     
 Total error:   8.9145327228421847E-002
 Total error:  0.13970501595578541     
 Total error:  0.11620497753273139     
 Total error:   6.9015564739155655E-002
 Total error:  0.15186431558781779     
 Total error:   8.8023959433140009E-002
 Total error:   9.3765140293034219E-002
 Total error:  0.12705950911432526     
 Total error:  0.12092365205402911     
 Total error:  0.12638334087416181     
 Total error:  0.18810532504065811     
 Total error:  0.14002126561336128     
 Total error:  0.13692263884106867     
 Total error:   8.6666913523403014E-002
 Total error:  0.10781864873782397     
 Total error:  0.17849316438841512     
 Total error:  0.18392834056770843     
 Total error:  0.14533443619971678     
 Total error:  0.11201878868722402     
 Total error:  0.16893502170884120     
 Total error:  0.14676544639410247     
 Total error:  0.20990379514152502     
 Total error:  0.14649604388482604     
 Total error:   6.3303083146437997E-002
 Total error:  0.17786115652372039     
 Total error:  0.17017410387683829     
 Total error:  0.19908423299086506     
 Total error:  0.10860378178930097     
 Total error:  0.14879468758471512     
 Total error:  0.13308466061186389     
 Total error:  0.16697428178279902     
 Total error:  0.10311458870641795     
 Total error:  0.13249645331592269     
 Total error:   8.6063009892888051E-002
 Total error:   8.6674437540328178E-002
 Total error:   9.7372382997799725E-002
 Total error:   9.7534197125369496E-002
 Total error:   6.0577922234855301E-002
 Total error:  0.16760159852564724     
 Total error:  0.12362886924864759     
 Total error:  0.10428451221279883     
 Total error:  0.14646073571575255     
 Total error:   6.4458662413815773E-002
 Total error:  0.17994877999507630     
 Total error:   8.7545069336205150E-002
 Total error:   9.4896355146656675E-002
 Total error:  0.19853936548561177     
 Total error:  0.14546659612618953     
 Total error:  0.20888514901496244     
 Total error:  0.10486419599550456     
 Total error:  0.13039468355285103     
 Total error:   6.9436912184300204E-002
 Total error:   6.8871186488506153E-002
 Total error:  0.13194223432406704     
 Total error:   9.1390196994874093E-002
 Total error:  0.10019992108141677     
 Total error:  0.21043959245178692     
 Total error:   5.3530402257562275E-002
 Total error:  0.19971570761232296     
 Total error:  0.11044512601325490     
 Total error:   9.3416907926754986E-002
 Total error:  0.10915726417084030     
 Total error:  0.11804895522025231     
 Total error:   2.6209386458978436E-002
 Total error:  0.11013489448392395     
 Total error:  0.16864080625970335     
 Total error:  0.17247428659413133     
 Total error:  0.13733566323417959     
 Total error:  0.12645538092814432     
 Total error:   8.9849528944069459E-002
 Total error:   9.1819218418451518E-002
 Total error:  0.19154041667877042     
 Total error:   7.5105819606875054E-002
 Total error:   7.6432629063434607E-002
 Total error:  0.15938309003079304     
 Total error:  0.14061400666339116     
 Total error:   2.9891382368578773E-002
 Total error:   7.0559875328976771E-002
 Total error:   7.1751357650584588E-002
 Total error:  0.19955100847407456     
 Total error:   5.5473061738356332E-002
 Total error:  0.11910640427397430     
 Total error:   8.5548558669708993E-002
 Total error:  0.20717935713292548     
 Total error:  0.20423229599137349     
 Total error:  0.12192306654046776     
 Total error:  0.10771487391874424     
 Total error:   7.0818627458777983E-002
 Total error:   6.5812164437705850E-002
 Total error:  0.12798450073887407     
 Total error:  0.10746880242125800     
 Total error:  0.11008699464173577     
 Total error:  0.18582512504640714     
 Total error:   7.1346652264765803E-002
 Total error:  0.17349866288822113     
 Total error:   8.4141448431724275E-002
 Total error:  0.12904857288773527     
 Total error:  0.12607358095664165     
 Total error:  0.17982334471620040     
 Total error:  0.13488195261600514     
 Total error:   6.2738488576356485E-002
 Total error:  0.13425686597632844     
 Total error:  0.10159568047915442     
 Total error:  0.11550829688239010     
 Total error:  0.14894715330172523     
 Total error:   6.5475157620337357E-002
 Total error:   9.8040855230731097E-002
 Total error:   5.7100045400241189E-002
 Total error:  0.13281882330500230     
 Total error:  0.14121691537137132     
 Total error:  0.10926540293175856     
 Total error:  0.10116459609678090     
 Total error:  0.13407786986101769     
 Total error:  0.10040381998313440     
 Total error:  0.15804500548024411     
 Total error:  0.11112108589069795     
 Total error:   6.9234338800583953E-002
 Total error:  0.10069891832010924     
 Total error:  0.11929922181400414     
 Total error:  0.12512029362902297     
 Total error:  0.16289511878409049     
 Total error:   9.7769896078980997E-002
 Total error:  0.12893190191871320     
 Total error:   5.9076738397453366E-002
 Total error:  0.19001421687412512     
 Total error:   7.0544731057703577E-002
 Total error:  0.10978720489851675     
 Total error:  0.12670254463838382     
 Total error:  0.17227577930251040     
 Total error:  0.14779801348295254     
 Total error:  0.16128381078162440     
 Total error:  0.19658445454013837     
 Total error:   9.1119439772718122E-002
 Total error:   5.9722767876693096E-002
 Total error:   9.6391859177131056E-002
 Total error:  0.16621688966825884     
 Total error:  0.11727348224151007     
 Total error:  0.12881082323557139     
 Total error:   8.4011707475596276E-002
 Total error:  0.18276737467900869     
 Total error:   9.4417535299620256E-002
 Total error:  0.14691850625346140     
 Total error:  0.16249864077228113     
 Total error:  0.12238642614668911     
 Total error:   6.0507293038437437E-002
 Total error:   9.6768919996453248E-002
 Total error:  0.10972294816015189     
 Total error:  0.18102205187559020     
 Total error:   9.5037732533714878E-002
 Total error:   8.5890953294833497E-002
 Total error:   8.5008861222570176E-002
 Total error:  0.13187231763942875     
 Total error:   9.2866625856585436E-002
 Total error:  0.12473292096859008     
 Total error:   9.9172683792800490E-002
 Total error:   7.6842579353761889E-002
 Total error:   9.9459445070179398E-002
 Total error:   9.3682563715740338E-002
 Total error:  0.13738985067318146     
 Total error:   8.9836673439500928E-002
 Total error:   9.2085980190834207E-002
 Total error:   6.3657654239944142E-002
 Total error:  0.12113740049167220     
 Total error:  0.10963371323431152     
 Total error:  0.16386034824732396     
 Total error:  0.11865348968083446     
 Total error:  0.11168913162524073     
 Total error:   8.7873115590327636E-002
 Total error:  0.12627216082795384     
 Total error:  0.18255100897800927     
 Total error:   7.3681246372866854E-002
 Total error:  0.10233700698065058     
 Total error:   4.9695586956835291E-002
 Total error:   5.8304741135225789E-002
 Total error:  0.14902550460284580     
 Total error:   7.2840660326095416E-002
 Total error:   8.3038238146706925E-002
 Total error:   8.6674716993667578E-002
 Total error:  0.12827266614811153     
 Total error:  0.10655467615357643     
 Total error:  0.17531342380829262     
 Total error:   7.1807625393996238E-002
 Total error:  0.17579002776264194     
 Total error:   9.2083362457740695E-002
 Total error:  0.10416812160486677     
 Total error:   6.8390542601456314E-002
 Total error:   7.9020348858367478E-002
 Total error:   7.6178271359014185E-002
 Total error:  0.17093958974250809     
 Total error:  0.13144996771744880     
 Total error:  0.14644264899178883     
 Total error:  0.10419497951064466     
 Total error:  0.16266904685541461     
 Total error:   5.3439058516188374E-002
 Total error:   7.2729981152937537E-002
 Total error:  0.10508765211273748     
 Total error:  0.16574746268023968     
 Total error:  0.20713213125446392     
 Total error:   7.5621702396156551E-002
 Total error:  0.14870583603142865     
 Total error:  0.13500581014253313     
 Total error:  0.13651992528265208     
 Total error:   5.8798640443329171E-002
 Total error:   8.0000147526187101E-002
 Total error:  0.12848458630608817     
 Total error:   8.8507885846650189E-002
 Total error:  0.13668787805890822     
 Total error:  0.18812339235015996     
 Total error:  0.13821618425706342     
 Total error:  0.18040955754796220     
 Total error:  0.13194468760521905     
 Total error:  0.16737493822922198     
 Total error:  0.14232566790646500     
 Total error:  0.11340119342166237     
 Total error:   6.6441105197671574E-002
 Total error:  0.13462459322458101     
 Total error:   9.9108420995494870E-002
 Total error:   7.2219648826927371E-002
 Total error:  0.14582157336601773     
 Total error:  0.16416229080588879     
 Total error:   9.4604648814481315E-002
 Total error:   5.0923320591718300E-002
 Total error:  0.10104371840027875     
 Total error:  0.12633173084955679     
 Total error:  0.14358939095477033     
 Total error:  0.15346060081899951     
 Total error:   3.0395769488629199E-002
 Total error:  0.13111470835208805     
 Total error:  0.11081184202967354     
 Total error:   6.3025822775424234E-002
 Total error:   6.8668374766201593E-002
 Total error:  0.15446917501046145     
 Total error:  0.10438599710849526     
 Total error:  0.10697953357621419     
 Total error:   8.4821852926039568E-002
 Total error:  0.17297241396594143     
 Total error:  0.12325135076496459     
 Total error:   9.2526159165498875E-002
 Total error:   7.9158491657066621E-002
 Total error:   6.6679172645941559E-002
 Total error:   7.8321009612091347E-002
 Total error:  0.11401115081694468     
 Total error:   9.2105641245707179E-002
 Total error:  0.11904397182679738     
 Total error:   7.4687901129730741E-002
 Total error:  0.11992432519422873     
 Total error:   7.8258064903308111E-002
 Total error:  0.11784576623444133     
 Total error:   9.6237512020872940E-002
 Total error:   7.8734878148387186E-002
 Total error:  0.13945308496032380     
 Total error:  0.14554732188049749     
 Total error:   7.9456248615526012E-002
 Total error:  0.18544928054840507     
 Total error:   8.2178784106836780E-002
 Total error:   7.9296264625049004E-002
 Total error:   8.2038014748373453E-002
 Total error:   7.8561075998537525E-002
 Total error:  0.14192458204626374     
 Total error:  0.10750730284911353     
 Total error:  0.16517286228916891     
 Total error:  0.11480225048313980     
 Total error:  0.14145407991986853     
 Total error:  0.12200015892511863     
 Total error:   8.7663034970928547E-002
 Total error:  0.11367638919269225     
 Total error:   6.0201329401546766E-002
 Total error:  0.12084278284294964     
 Total error:   7.7049465337144810E-002
 Total error:   7.5249497063933898E-002
 Total error:  0.11054965279296021     
 Total error:   8.7254719667382449E-002
 Total error:  0.12916602985880493     
 Total error:  0.11189184232875919     
 Total error:  0.15536640223724077     
 Total error:   8.4689974426964978E-002
 Total error:   6.9682039914343616E-002
 Total error:  0.11510090558186670     
 Total error:   7.6473499676284196E-002
 Total error:   8.3986228039115859E-002
 Total error:  0.13138680428153310     
 Total error:   8.2635367268907411E-002
 Total error:  0.11230918125926392     
 Total error:   7.1431742690071534E-002
 Total error:  0.14817128363073531     
 Total error:  0.15015673334602206     
 Total error:  0.12986421373203780     
 Total error:  0.13192149311246557     
 Total error:  0.10013022856725123     
 Total error:  0.12087447517828621     
 Total error:  0.14823987616876708     
 Total error:   9.7005646792874337E-002
 Total error:  0.16841462997546333     
 Total error:  0.10662681282229534     
 Total error:  0.10971096332012979     
 Total error:  0.14482230674157162     
 Total error:  0.10736253544500766     
 Total error:  0.10291809283236254     
 Total error:  0.11411927692007238     
 Total error:  0.12550526585981103     
 Total error:   9.9148194555245636E-002
 Total error:   8.8224022107060360E-002
 Total error:  0.11381656711680255     
 Total error:  0.16313123317161449     
 Total error:   7.3047960590952796E-002
 Total error:   8.4636920078296610E-002
 Total error:   8.7342553166610937E-002
 Total error:  0.13550328178186918     
 Total error:  0.11429889429947725     
 Total error:  0.12203516932551373     
 Total error:   9.1097317846626405E-002
 Total error:  0.16955165604913533     
 Total error:   9.6574848348651821E-002
 Total error:   9.0125193046572460E-002
 Total error:  0.18771929021808620     
 Total error:  0.15612718633527714     
 Total error:   7.8942734275577561E-002
 Total error:  0.16057917404126212     
 Total error:   5.5401605876771613E-002
 Total error:  0.13166444363737584     
 Total error:  0.14529356358659959     
 Total error:  0.14059848606260927     
 Total error:  0.13751262781513307     
 Total error:   6.2412734523521897E-002
 Total error:   9.3828366860184212E-002
 Total error:  0.17606009695994809     
 Total error:  0.14252880205543364     
 Total error:  0.19927492626055951     
 Total error:  0.14472213917091029     
 Total error:  0.11553267294338583     
 Total error:  0.12528710014005842     
 Total error:  0.21797302734827215     
 Total error:   9.8856854465210295E-002
 Total error:   4.9095008598998437E-002
 Total error:   5.4475262654552985E-002
 Total error:  0.11497752152470198     
 Total error:  0.10279570990037816     
 Total error:   8.5001443737049542E-002
 Total error:  0.12930718579488240     
 Total error:  0.10937406069740797     
 Total error:  0.15029487803521666     
 Total error:  0.11463730990049247     
 Total error:   8.5920390707763902E-002
 Total error:  0.13463529866554791     
 Total error:   5.4950980472884187E-002
 Total error:   7.5106993567847100E-002
 Total error:  0.11580682032001229     
 Total error:  0.20806924037072702     
 Total error:  0.17056730281856894     
 Total error:  0.13306272659560600     
 Total error:  0.20997328689534042     
 Total error:  0.13459660937947301     
 Total error:  0.17514905899630392     
 Total error:  0.17240922077445178     
 Total error:  0.16972289286718192     
 Total error:  0.11523195445016571     
 Total error:  0.16367488667576852     
 Total error:  0.13327385114103402     
 Total error:   4.5067967797608223E-002
 Total error:  0.11434647632029075     
 Total error:  0.16711425129284915     
 Total error:   9.3792148634873229E-002
 Total error:   8.8127436201216880E-002
 Total error:  0.14754971212135098     
 Total error:  0.15035458462039739     
 Total error:  0.11357936850281607     
 Total error:  0.14539685101592706     
 Total error:  0.15283024253148789     
 Total error:  0.13237360662139888     
 Total error:  0.18347281706695970     
 Total error:   2.7926960217802596E-002
 Total error:  0.11226960893350141     
 Total error:  0.10141908556883632     
 Total error:  0.13434733895181883     
 Total error:  0.13563935616085634     
 Total error:  0.20165267507717674     
 Total error:  0.18721702785620878     
 Total error:   8.4514999972267399E-002
 Total error:  0.13869080888156118     
 Total error:  0.11601203578745341     
 Total error:  0.12613721195805810     
 Total error:   5.1117107322824186E-002
 Total error:   7.2143439396936640E-002
 Total error:  0.10864558518215817     
 Total error:   8.5715171712514734E-002
 Total error:   7.8163760940797855E-002
 Total error:  0.10234651789050424     
 Total error:  0.10186802544966289     
 Total error:  0.15331715928212583     
 Total error:  0.14893975462798587     
 Total error:  0.17026781985817530     
 Total error:  0.11090020175011146     
 Total error:   9.5091536963618994E-002
 Total error:   9.7616499498842879E-002
 Total error:  0.10899342379509631     
 Total error:  0.19328095319189839     
 Total error:   7.0081446033669934E-002
 Total error:  0.15181593058087639     
 Total error:  0.17913136683460593     
 Total error:   7.0644988972126649E-002
 Total error:  0.11548447190869815     
 Total error:   7.5871954399872238E-002
 Total error:  0.14412066494570933     
 Total error:   8.6687780570547282E-002
 Total error:   2.0682201900715947E-002
 Total error:  0.14989599372902246     
 Total error:  0.10397965277259524     
 Total error:  0.12512940432070838     
 Total error:  0.14610414926413695     
 Total error:   9.1022839596747576E-002
 Total error:   4.1790111823490607E-002
 Total error:  0.15153696850347964     
 Total error:  0.10920720979642708     
 Total error:  0.10557370477225707     
 Total error:   9.1217772555169982E-002
 Total error:   5.8262966959957550E-002
 Total error:  0.10492809592230072     
 Total error:  0.11820660948211531     
 Total error:  0.12740477788848587     
 Total error:  0.10733825694339348     
 Total error:   8.3338780001363702E-002
 Total error:  0.14300435620764015     
 Total error:  0.11347618372651523     
 Total error:   8.7871967033064033E-002
 Total error:  0.14577200363701862     
 Total error:  0.14190538935995092     
 Total error:   5.8905993090215852E-002
 Total error:   4.9016987241728406E-002
 Total error:   9.0109213640123087E-002
 Total error:   7.0696867279342948E-002
 Total error:  0.18388075500327292     
 Total error:  0.19286422953170371     
 Total error:  0.19254260523888392     
 Total error:  0.11298100207232580     
 Total error:  0.15227250840253181     
 Total error:  0.16460808167905172     
 Total error:  0.10525575267791275     
 Total error:  0.12542054359507313     
 Total error:  0.14138080624636332     
 Total error:  0.14724528610293844     
 Total error:  0.11879796561542456     
 Total error:   8.2120746843573844E-002
 Total error:  0.19262869174156974     
 Total error:  0.11277529809410376     
 Total error:  0.13672547342117772     
 Total error:  0.13335842508754570     
 Total error:   8.2327969984130653E-002
 Total error:  0.13208632183840016     
 Total error:   8.5188062244014054E-002
 Total error:   8.2575746612387965E-002
 Total error:   8.3148147329157471E-002
 Total error:   9.8516492137036157E-002
 Total error:   7.7868298060504951E-002
 Total error:  0.11325765446954733     
 Total error:   9.1224202793950618E-002
 Total error:   7.3682262890107278E-002
 Total error:  0.12235868288804393     
 Total error:  0.10540248167167397     
 Total error:  0.11383937858775223     
 Total error:  0.10513229342718257     
 Total error:  0.10861658484574954     
 Total error:   7.3375775874742311E-002
 Total error:  0.12803066589534676     
 Total error:  0.11733179144146501     
 Total error:  0.11674012592948457     
 Total error:  0.16491817103836137     
 Total error:  0.13323164400947901     
 Total error:   9.6351019273502980E-002
 Total error:   6.3810964367694775E-002
 Total error:  0.11642121872842887     
 Total error:  0.10012049198628629     
 Total error:  0.11847856851308451     
 Total error:  0.10131416097517469     
 Total error:  0.11983778591638174     
 Total error:  0.13731656717353399     
 Total error:  0.14031468826820614     
 Total error:  0.18196126522542069     
 Total error:   9.6051995141527277E-002
 Total error:  0.21165168864728492     
 Total error:  0.14099215387885311     
 Total error:  0.10319709944728410     
 Total error:  0.10338803281778332     
 Total error:   9.1634807918415093E-002
 Total error:  0.12863355612859018     
 Total error:  0.12011629375228183     
 Total error:   9.3705798737047652E-002
 Total error:   8.7321987125235020E-002
 Total error:  0.15683319062430420     
 Total error:  0.12450736532171834     
 Total error:   5.5212580280162508E-002
 Total error:  0.11799786680262904     
 Total error:  0.12009305947821484     
 Total error:   9.1596503417301689E-002
 Total error:   7.7737626479646160E-002
 Total error:  0.10676792446069185     
 Total error:  0.12376626161076541     
 Total error:  0.11373611270425062     
 Total error:  0.10212122523687654     
 Total error:  0.12113977018717019     
 Total error:   6.8735031348008846E-002
 Total error:  0.13384846223253657     
 Total error:  0.14779485842201037     
 Total error:  0.10004805282612574     
 Total error:   7.3559017360445886E-002
 Total error:  0.10225977232392719     
 Total error:   8.7339439983867631E-002
 Total error:  0.14350907237887803     
 Total error:   7.8698074793381284E-002
 Total error:  0.11038436555005578     
 Total error:  0.15343503584217308     
 Total error:  0.16441791288201044     
 Total error:  0.10165775357284534     
 Total error:   7.7697754714978584E-002
 Total error:  0.12050954807883769     
 Total error:   9.8011021099849147E-002
 Total error:  0.15480064645770095     
 Total error:   8.8784909684815352E-002
 Total error:  0.18732566440861395     
 Total error:  0.13975028104479603     
 Total error:  0.11088207065799686     
 Total error:  0.10682186508736669     
 Total error:  0.14005331656531980     
 Total error:  0.14014405867307184     
 Total error:   7.7163665543747401E-002
 Total error:   6.2105079336587106E-002
 Total error:  0.11678438955839232     
 Total error:  0.15032122593499739     
 Total error:  0.13015117138376819     
 Total error:  0.14087497296986742     
 Total error:  0.14525698607459056     
 Total error:   8.7403292859515688E-002
 Total error:  0.17993701932505712     
 Total error:   8.6102517706176662E-002
 Total error:   6.3829782524556747E-002
 Total error:  0.19138157327286018     
 Total error:   8.1931669427854112E-002
 Total error:  0.11295480181036059     
 Total error:  0.11493084922027191     
 Total error:   8.6265368506056081E-002
 Total error:   7.2394577703576476E-002
 Total error:  0.12190334017854254     
 Total error:  0.11435804560671120     
 Total error:  0.10935869238795058     
 Total error:  0.13982013648154668     
 Total error:   9.3047395512847172E-002
 Total error:   8.1287616919713424E-002
 Total error:  0.17998248323918661     
 Total error:  0.16649177263266890     
 Total error:  0.15981472717992029     
 Total error:   8.1580157028951869E-002
 Total error:  0.14809882600494853     
 Total error:  0.11987971758260441     
 Total error:   8.2444260471014719E-002
 Total error:   6.5859625070435635E-002
 Total error:  0.11086594216746824     
 Total error:  0.10850940825884899     
 Total error:  0.11950185677973739     
 Total error:   8.9638319484757936E-002
 Total error:  0.11639140989548075     
 Total error:  0.18145251521810232     
 Total error:   4.3205188753849703E-002
 Total error:   8.0113485476600854E-002
 Total error:   7.8029062801429475E-002
 Total error:  0.13934645197863196     
 Total error:  0.13376331781043679     
 Total error:  0.15011210958966384     
 Total error:  0.11704362279492105     
 Total error:  0.11552366464348636     
 Total error:   7.1323138443051715E-002
 Total error:   5.7451852184733226E-002
 Total error:   6.2382326045363708E-002
 Total error:  0.10424857742482835     
 Total error:  0.10031275073220845     
 Total error:  0.10651010045663849     
 Total error:  0.13869145676790237     
 Total error:  0.16261107359413504     
 Total error:  0.17003828574106186     
 Total error:  0.14039861812885995     
 Total error:  0.17057630908272262     
 Total error:  0.13049570833391747     
 Total error:   9.9544897698623916E-002
 Total error:  0.11372286978751144     
 Total error:  0.14357629546929301     
 Total error:  0.13998060845458418     
 Total error:  0.14827602607750362     
 Total error:   9.3927409713589219E-002
 Total error:  0.16500423428142885     
 Total error:  0.18299743228963242     
 Total error:   4.1377100676208388E-002
 Total error:   9.4227529098672894E-002
 Total error:   6.1256311279628502E-002
 Total error:   5.9711888063880482E-002
 Total error:  0.11904703619843833     
 Total error:  0.18609436765973600     
 Total error:  0.15401404050771719     
 Total error:  0.13164767392078575     
 Total error:  0.15380950347891517     
 Total error:   9.4783836918904740E-002
 Total error:  0.14122582314153440     
 Total error:   6.5678062244382746E-002
 Total error:   8.7066122188722797E-002
 Total error:  0.12456531761230742     
 Total error:   6.1266970394001370E-002
 Total error:  0.17619852752703055     
 Total error:  0.14021054925534801     
 Total error:   7.0458343313138730E-002
 Total error:  0.10836478396959487     
 Total error:  0.11785381257226779     
 Total error:   9.2909235776541921E-002
 Total error:  0.11849479398581675     
 Total error:  0.17309330544712209     
 Total error:   5.3620875145507792E-002
 Total error:  0.11776598369033581     
 Total error:  0.14125159544210822     
 Total error:  0.12710598317214242     
 Total error:  0.11367101846830385     
 Total error:  0.10111020056683678     
 Total error:  0.13813555251200230     
 Total error:  0.16104323369510357     
 Total error:   5.3713827208089086E-002
 Total error:  0.15852618445308608     
 Total error:   6.0733219630810853E-002
 Total error:  0.13517808220311819     
 Total error:  0.12352820026802315     
 Total error:  0.12600308749914593     
 Total error:   7.2983638125441438E-002
 Total error:   9.0694903333278842E-002
 Total error:   9.2751658383999569E-002
 Total error:  0.14365061032511098     
 Total error:   7.3824747423083051E-002
 Total error:  0.17413434496332589     
 Total error:  0.12800651221011070     
 Total error:   6.7276551530940629E-002
 Total error:  0.10064342085274726     
 Total error:  0.11865373547497166     
 Total error:  0.14262169232965968     
 Total error:  0.14835942455920373     
 Total error:  0.17925489930857094     
 Total error:   6.6472175881336137E-002
 Total error:   8.1778269942787862E-002
 Total error:   8.2488912297892875E-002
 Total error:  0.11293700423473067     
 Total error:  0.13390590376632713     
 Total error:   8.5218709521998240E-002
 Total error:   9.2362145069461540E-002
 Total error:   8.9949038306333981E-002
 Total error:   7.7213011950497609E-002
 Total error:   6.5996171666827100E-002
 Total error:  0.14587455413897060     
 Total error:  0.11766060963343955     
 Total error:  0.17167981063428739     
 Total error:  0.12426255955025711     
 Total error:   8.4010200451044459E-002
 Total error:  0.16406737679635450     
 Total error:  0.10997627523611973     
 Total error:   7.3007871125473592E-002
 Total error:   7.8924954643042930E-002
 Total error:  0.10068657503706535     
 Total error:  0.14687723754164236     
 Total error:  0.13173321083872672     
 Total error:  0.14025192696387700     
 Total error:  0.18364567745766511     
 Total error:   9.1003017770745473E-002
 Total error:   7.6350141651053541E-002
 Total error:   4.4357247940897682E-002
 Total error:  0.13548870234165503     
 Total error:  0.11206998328783079     
 Total error:   9.3323576330114177E-002
 Total error:  0.16847613476844783     
 Total error:   7.4001713073597750E-002
 Total error:   5.9620242708634995E-002
 Total error:  0.10374236167124683     
 Total error:   4.3907853720648066E-002
 Total error:  0.17146269608937906     
 Total error:  0.12578406670211081     
 Total error:  0.11012532828802157     
 Total error:   9.7444542281324376E-002
 Total error:  0.19777593408638072     
 Total error:   8.2623037212094186E-002
 Total error:  0.11560212806595448     
 Total error:   9.7302563113545057E-002
 Total error:  0.11556928705461621     
 Total error:  0.10759669321173937     
 Total error:  0.19072195113067070     
 Total error:  0.10843219916529891     
 Total error:  0.14052014020727008     
 Total error:  0.13207783631507714     
 Total error:  0.15752738146312648     
 Total error:   9.8570295690936352E-002
 Total error:  0.18330540676183604     
 Total error:   5.1749825267355727E-002
 Total error:  0.14984254302029168     
 Total error:  0.13992975918692493     
 Total error:   6.0762116934989181E-002
 Total error:  0.13524614473507737     
 Total error:  0.11285750183938748     
 Total error:  0.12630095584009873     
 Total error:   8.9280866155967073E-002
 Total error:  0.16472686098070990     
 Total error:   9.5683438540370869E-002
 Total error:  0.14637875980031120     
 Total error:   8.0873326137512955E-002
 Total error:  0.15643615136223279     
 Total error:  0.13908132439055193     
 Total error:   9.2159123286186515E-002
 Total error:  0.11377136338129745     
 Total error:   7.3158740832056784E-002
 Total error:  0.14907919116393106     
 Total error:  0.11198179841033862     
 Total error:  0.11049234714745776     
 Total error:   4.3080512744018550E-002
 Total error:  0.13027413820938955     
 Total error:  0.10116657201323080     
 Total error:  0.12092510182732780     
 Total error:   9.9835647918502371E-002
 Total error:   4.8955290674805356E-002
 Total error:  0.13121847535280948     
 Total error:  0.10216809800435407     
 Total error:  0.14126458639761955     
 Total error:  0.15607802889845085     
 Total error:   7.7894759907423283E-002
 Total error:  0.10612928071804510     
 Total error:   7.2888385285407503E-002
 Total error:   5.9078113012855170E-002
 Total error:  0.11941984560247759     
 Total error:  0.11930528920656845     
 Total error:  0.18894236488313601     
 Total error:  0.16969242599675716     
 Total error:  0.13585944120672191     
 Total error:   4.6748938034106541E-002
 Total error:  0.17014360040671830     
 Total error:  0.18788694663037689     
 Total error:  0.10235214286138390     
 Total error:   7.0718712049590085E-002
 Total error:   8.3129580311289988E-002
 Total error:  0.15299786873504315     
 Total error:   6.9790076697527417E-002
 Total error:   9.8099006103579953E-002
 Total error:  0.14142393769228381     
 Total error:  0.12663121284243570     
 Total error:  0.10820310503929526     
 Total error:   8.9957021566712481E-002
 Total error:  0.11255002964887008     
 Total error:  0.14910512043067087     
 Total error:  0.11788812183343617     
 Total error:   6.2659477750527229E-002
 Total error:   7.1204371654967152E-002
 Total error:   6.1005781433164132E-002
 Total error:  0.12566481124310000     
 Total error:  0.14862171313451203     
 Total error:   6.8190701218204364E-002
 Total error:  0.13391896963957997     
 Total error:  0.11335010334644448     
 Total error:  0.10140811212990795     
 Total error:  0.14399459716625237     
 Total error:  0.16856549035363411     
 Total error:  0.11123582996415730     
 Total error:   9.4245361526546667E-002
 Total error:  0.10960571972868721     
 Total error:  0.14478637143995710     
 Total error:   4.1688542298743768E-002
 Total error:   7.1286934593475779E-002
 Total error:  0.19956962945391640     
 Total error:   8.0037099589172114E-002
 Total error:   8.5457646304488946E-002
 Total error:  0.15208571762489378     
 Total error:   9.5414273101099512E-002
 Total error:  0.11291348720234669     
 Total error:  0.11000580335500622     
 Total error:   9.7756021653083322E-002
 Total error:   6.6621999567268247E-002
 Total error:  0.19541234778745400     
 Total error:  0.17074013099268184     
 Total error:  0.16276779219279319     
 Total error:  0.14797069467456814     
 Total error:   9.4838536044691682E-002
 Total error:   4.8455118583712438E-002
 Total error:   7.3826531556699368E-002
 Total error:   9.3330819424393238E-002
 Total error:  0.11417367617668404     
 Total error:  0.14835365171693385     
 Total error:   8.5893522401133363E-002
 Total error:  0.10633433016227721     
 Total error:  0.19424460013965092     
 Total error:  0.11896093561178546     
 Total error:  0.17474177659978554     
 Total error:   8.7935390649365300E-002
 Total error:   9.3133058433763669E-002
 Total error:  0.13273211382407565     
 Total error:   9.5210575365222927E-002
 Total error:   9.5539408809581505E-002
 Total error:  0.11571113971173803     
 Total error:  0.12131046217278273     
 Total error:  0.18921871358050579     
 Total error:   6.9747646628471799E-002
 Total error:   9.1539564019038525E-002
 Total error:  0.16080398231078744     
 Total error:  0.12751995351898862     
 Total error:  0.10077636385525897     
 Total error:   9.2488312912700696E-002
 Total error:   9.9442528961546831E-002
 Total error:   8.7342450073221875E-002
 Total error:   6.6741549388796645E-002
 Total error:  0.17002869654225919     
 Total error:   9.0580926861300523E-002
 Total error:  0.10356963810649313     
 Total error:   9.1376302029886156E-002
 Total error:   8.7765076619758423E-002
 Total error:  0.13877970964760505     
 Total error:  0.12168587468813340     
 Total error:   9.7196546197889103E-002
 Total error:  0.10493520198331519     
 Total error:   9.7894606754055771E-002
 Total error:  0.11294919927960696     
 Total error:  0.15326861361528107     
 Total error:   8.2978120706855105E-002
 Total error:  0.15875945682495149     
 Total error:  0.16255622690050928     
 Total error:   9.9804888576174353E-002
 Total error:  0.12602235566514677     
 Total error:   9.4391431797913303E-002
 Total error:   9.8400425480419204E-002
 Total error:  0.11299844735144805     
 Total error:  0.13871993519175438     
 Total error:  0.16785170781508144     
 Total error:  0.19049725500564799     
 Total error:  0.13623885205401101     
 Total error:   7.0190532417400267E-002
 Total error:  0.13137397281172783     
 Total error:  0.10169641271363304     
 Total error:  0.12059241449410917     
 Total error:  0.16870607086490272     
 Total error:  0.13444001749152129     
 Total error:  0.14090429711061811     
 Total error:  0.11636042103831479     
 Total error:  0.13572946205257255     
 Total error:  0.14648853092567918     
 Total error:  0.14552539926060076     
 Total error:  0.20643518627354249     
 Total error:  0.11593197464592464     
 Total error:  0.14283518957602423     
 Total error:  0.12338589275734042     
 Total error:   9.4603779350987516E-002
 Total error:  0.13709431639400327     
 Total error:  0.12375527112620111     
 Total error:  0.11757857116726263     
 Total error:   9.9094463914992395E-002
 Total error:  0.12091890467838599     
 Total error:  0.11097314888181697     
 Total error:   5.9513458049607532E-002
 Total error:   9.5124608141400849E-002
 Total error:  0.11251134460684691     
 Total error:  0.20397277156186264     
 Total error:  0.12291938129639619     
 Total error:  0.13208403599970112     
 Total error:  0.11126162080370668     
 Total error:   8.1084669512338933E-002
 Total error:  0.15079088460940893     
 Total error:  0.10699721872158717     
 Total error:  0.10440690711451038     
 Total error:  0.13546235485125654     
 Total error:   8.9976243258214517E-002
 Total error:  0.10970217759306659     
 Total error:  0.10520581812667805     
 Total error:   5.9749998754273760E-002
 Total error:  0.15942355541636560     
 Total error:   6.5399797013180536E-002
 Total error:   9.0227494235912600E-002
 Total error:   7.0475231228586052E-002
 Total error:   8.9713762784169052E-002
 Total error:  0.12118755345871655     
 Total error:   6.8334271587461901E-002
 Total error:  0.11771431404406785     
 Total error:  0.16265839951107330     
 Total error:   9.7224017670222360E-002
 Total error:   4.8486836536505436E-002
 Total error:   5.1452194139817053E-002
 Total error:  0.10851747089829285     
 Total error:   5.4744765765489443E-002
 Total error:  0.12151246920495112     
 Total error:  0.20256264351326861     
 Total error:  0.13774440119714360     
 Total error:  0.10872821182519581     
 Total error:   5.5437766886076982E-002
 Total error:   6.3962805312687845E-002
 Total error:  0.13097777639258754     
 Total error:  0.11339665746679677     
 Total error:  0.12386787856643224     
 Total error:   9.9795466565847604E-002
 Total error:  0.18230908284258773     
 Total error:   5.1848923287980936E-002
 Total error:  0.13059336885574782     
 Total error:   8.4886377249362432E-002
 Total error:   8.6288152796457782E-002
 Total error:  0.11103725061861462     
 Total error:  0.18723995739684260     
 Total error:  0.19570929602388096     
 Total error:  0.15424261438081030     
 Total error:   9.7314040444707817E-002
 Total error:   9.0485433004546631E-002
 Total error:  0.14539123229722029     
 Total error:   8.4038656554209459E-002
 Total error:  0.21518708722412580     
 Total error:  0.11430279211986248     
 Total error:  0.15292786692566421     
 Total error:  0.19738609621948991     
 Total error:  0.17049310532407533     
 Total error:   7.4922506574994940E-002
 Total error:   9.3252787189595066E-002
 Total error:  0.16691819792736293     
 Total error:  0.16072860343253090     
 Total error:  0.13603223955811442     
 Total error:  0.11534979969086080     
 Total error:  0.11553983204478495     
 Total error:  0.11854663705915335     
 Total error:   8.2419185947829335E-002
 Total error:  0.14949754736468657     
 Total error:  0.13137338714365812     
 Total error:   4.8586004467133341E-002
 Total error:  0.12742668581851069     
 Total error:   5.3258619760212185E-002
 Total error:  0.14382079352178603     
 Total error:  0.11685510197489950     
 Total error:   9.9321931922826345E-002
 Total error:  0.11639431538727052     
 Total error:  0.13691634535356592     
 Total error:   9.6304544889546873E-002
 Total error:   4.8321225058235863E-002
 Total error:   7.1854550148450033E-002
 Total error:  0.11711764402590968     
 Total error:  0.14145965332874588     
 Total error:  0.12514251100865334     
 Total error:  0.15459141966302412     
 Total error:  0.13693806546911580     
 Total error:  0.10106350666426402     
 Total error:  0.17613541618546724     
 Total error:  0.10054151078104819     
 Total error:  0.17480486030692036     
 Total error:   8.2866768648917274E-002
 Total error:   9.8336572831093969E-002
 Total error:  0.11110921340098945     
 Total error:  0.15361942785905100     
 Total error:   7.8691352142077522E-002
 Total error:  0.14861050561528427     
 Total error:   3.4313540762236562E-002
 Total error:  0.13750019282797099     
 Total error:  0.14031024724302801     
 Total error:  0.13424721109746124     
 Total error:  0.18324724492158853     
 Total error:  0.10565994594674172     
 Total error:   4.3315104245865405E-002
 Total error:  0.10749514326310078     
 Total error:  0.17197340488572729     
 Total error:  0.16326000923124037     
 Total error:  0.10077188303239737     
 Total error:  0.13119436500890605     
 Total error:  0.11009442275497221     
 Total error:  0.10890670927025810     
 Total error:   6.8466836127621264E-002
 Total error:  0.14015672044339239     
 Total error:   8.1199798064851517E-002
 Total error:   7.3254095737163724E-002
 Total error:   6.1942764525342357E-002
 Total error:   9.7118696281657702E-002
 Total error:  0.17366715290247903     
 Total error:  0.13054707896170029     
 Total error:  0.13923352276782722     
 Total error:   8.3615843608809304E-002
 Total error:  0.11029124547367765     
 Total error:  0.13278805267946825     
 Total error:  0.12877576425062268     
 Total error:   9.1134601687922645E-002
 Total error:   8.6957450295350361E-002
 Total error:  0.11155814852799502     
 Total error:   9.2001408511584781E-002
 Total error:  0.18710200832378590     
 Total error:   8.7336545701404700E-002
 Total error:  0.10632019669824729     
 Total error:  0.16552101544814235     
 Total error:   8.4781345863884514E-002
 Total error:   8.5071899466330647E-002
 Total error:  0.12448300574207871     
 Total error:   7.0636220208059278E-002
 Total error:  0.17847522423776785     
 Total error:  0.12220232983328257     
 Total error:   9.9378469335569597E-002
 Total error:   7.2613507216500825E-002
 Total error:   8.8260935558164458E-002
 Total error:   8.8047780046218396E-002
 Total error:  0.11987195932464555     
 Total error:   6.6405498174592431E-002
 Total error:  0.11591352682145577     
 Total error:  0.14365881260698909     
 Total error:  0.15495592896749488     
 Total error:   9.0629386973555784E-002
 Total error:  0.13497374551489286     
 Total error:  0.17031343295498358     
 Total error:  0.16274341368317538     
 Total error:  0.17238233492327207     
 Total error:   5.3311520152294588E-002
 Total error:  0.17311436620544088     
 Total error:  0.11316617053186155     
 Total error:   7.9072199294218812E-002
 Total error:  0.13118395831066929     
 Total error:  0.12713098546013785     
 Total error:  0.10279860734756223     
 Total error:   6.5953067294064208E-002
 Total error:  0.15764853495446116     
 Total error:   9.5995248694863325E-002
 Total error:   8.4377042909713040E-002
 Total error:  0.17166338563187178     
 Total error:  0.12673568145542877     
 Total error:   7.4529017024841798E-002
 Total error:  0.10565667206558334     
 Total error:  0.12200384505429308     
 Total error:  0.14110630444038916     
 Total error:   8.5141129885202282E-002
 Total error:   7.9048194287560145E-002
 Total error:  0.10181950185903849     
 Total error:   8.5785868163746323E-002
 Total error:  0.17293887273113082     
 Total error:  0.23056926567966737     
 Total error:   5.3689370697340401E-002
 Total error:  0.11172054075687234     
 Total error:  0.10241295714982095     
 Total error:   9.1242657630765819E-002
 Total error:   8.7800439228954974E-002
 Total error:   6.6759263722849085E-002
 Total error:  0.11435598623732958     
 Total error:   9.4773793156496575E-002
 Total error:  0.11603500658462369     
 Total error:  0.15440559830352971     
 Total error:   3.1655487348320487E-002
 Total error:  0.14406948968814617     
 Total error:   6.0186676113983463E-002
 Total error:  0.17723697404157665     
 Total error:   8.6165152939666881E-002
 Total error:  0.13059442853471212     
 Total error:  0.17727827441348340     
 Total error:   8.2586260644563939E-002
 Total error:  0.11624550141549690     
 Total error:  0.16676193720812638     
 Total error:   8.9338557507302560E-002
 Total error:  0.14807184917002389     
 Total error:   7.8205222299558980E-002
 Total error:   8.8863015828176420E-002
 Total error:   7.4306802082002632E-002
 Total error:  0.13223748099465424     
 Total error:   8.7513712166100363E-002
 Total error:   9.3597138569219307E-002
 Total error:  0.13550839946961185     
 Total error:  0.15241760306760710     
 Total error:  0.16986076043696166     
 Total error:  0.11158106183667704     
 Total error:  0.14184866975437990     
 Total error:  0.14548386191523430     
 Total error:  0.16925865063129908     
 Total error:  0.16039366557847531     
 Total error:  0.11764341244171389     
 Total error:   9.0129279144710736E-002
 Total error:  0.15678701343048324     
 Total error:   8.0003366894397965E-002
 Total error:   9.6466973300438560E-002
 Total error:  0.11788119444345403     
 Total error:  0.14375199765266797     
 Total error:  0.10040126084065759     
 Total error:  0.13920669196559174     
 Total error:   7.8579123388716046E-002
 Total error:  0.14820932398622913     
 Total error:   6.3847964748374966E-002
 Total error:  0.11323576054605335     
 Total error:  0.15081113419449702     
 Total error:  0.12198794800672379     
 Total error:   9.1316820427282966E-002
 Total error:   4.6072497761674831E-002
 Total error:  0.16048305089752851     
 Total error:  0.14391906200197238     
 Total error:   9.8451783800714079E-002
 Total error:  0.19163791720885745     
 Total error:  0.16168891589441478     
 Total error:   4.1600403620638250E-002
 Total error:  0.17171644356773255     
 Total error:  0.13260526496851011     
 Total error:  0.14810854436935314     
 Total error:   4.9458886399652048E-002
 Total error:  0.14981333794999271     
 Total error:  0.17612669970848741     
 Total error:   7.5016372586916638E-002
 Total error:   9.7360058720346254E-002
 Total error:   9.4725090248340735E-002
 Total error:  0.15714563901960149     
 Total error:  0.12686237849556073     
 Total error:  0.19587928007696143     
 Total error:   8.1090718435338702E-002
 Total error:  0.12432547897195455     
 Total error:  0.15726899952625092     
 Total error:  0.14510924839190223     
 Total error:  0.17540145592446246     
 Total error:   9.2262749972003663E-002
 Total error:   8.1939982984514353E-002
 Total error:  0.13467544147797486     
 Total error:   7.2465930572153170E-002
 Total error:   6.6548980984582118E-002
 Total error:  0.15986755590164448     
 Total error:  0.14675981955070369     
 Total error:  0.24679711609599772     
 Total error:  0.12003439124782835     
 Total error:  0.15196332770020138     
 Total error:  0.17541778896987900     
 Total error:   7.2701979504302225E-002
 Total error:  0.15012493429426901     
 Total error:  0.11541539399069749     
 Total error:  0.13605869381822636     
 Total error:   5.4555268012258455E-002
 Total error:  0.19149014952857915     
 Total error:  0.18363573637133812     
 Total error:   5.7195439942677152E-002
 Total error:   8.5665828914825562E-002
 Total error:   4.9507585407769096E-002
 Total error:   8.8494758057161352E-002
 Total error:  0.10198699071782920     
 Total error:  0.16148398118890753     
 Total error:  0.18794940588780254     
 Total error:  0.16343937832731198     
 Total error:   8.2616634365971983E-002
 Total error:  0.13839545624761918     
 Total error:  0.10769989446884853     
 Total error:  0.11765291840643487     
 Total error:  0.11500591612776419     
 Total error:  0.10110796433931761     
 Total error:   9.0728434079061407E-002
 Total error:  0.10368047076371877     
 Total error:  0.11432858575103448     
 Total error:  0.13410458544430096     
 Total error:   6.3730769664329334E-002
 Total error:  0.12104667396821707     
 Total error:  0.11026303371867281     
 Total error:  0.12502147379859554     
 Total error:  0.14228081824602731     
 Total error:  0.14278703745420088     
 Total error:  0.10769854632466606     
 Total error:  0.10100879506666793     
 Total error:  0.14892606568486236     
 Total error:  0.11880637120662607     
 Total error:  0.10261709735026785     
 Total error:   5.1470225290789894E-002
 Total error:  0.11081339621297139     
 Total error:  0.11100416734737605     
 Total error:   9.5576360436825561E-002
 Total error:  0.14884175891176454     
 Total error:  0.11371594555393549     
 Total error:  0.13601079607953651     
 Total error:  0.11274472834754208     
 Total error:  0.15653958762879341     
 Total error:   5.6590306507380360E-002
 Total error:   6.8454551955803508E-002
 Total error:  0.10051342657269048     
 Total error:  0.18614400005531551     
 Total error:   9.0500919628676665E-002
 Total error:  0.11921015522321875     
 Total error:  0.11447744044795456     
 Total error:  0.10128676700073271     
 Total error:  0.10887746202595627     
 Total error:  0.11219408857925213     
 Total error:   6.7560548807230794E-002
 Total error:  0.14129481045584300     
 Total error:  0.14645036955956178     
 Total error:  0.11144112061401656     
 Total error:  0.12765506000921700     
 Total error:  0.10267506890075012     
 Total error:   5.0084312281079200E-002
 Total error:   8.3795084920180160E-002
 Total error:  0.12992601906773291     
 Total error:  0.17970838413920739     
 Total error:  0.16166457013174010     
 Total error:  0.11380584509178014     
 Total error:  0.22462222968516324     
 Total error:  0.10668169079974220     
 Total error:  0.10882357503387709     
 Total error:   8.7985576400546425E-002
 Total error:  0.11154919590146491     
 Total error:  0.11014184343082778     
 Total error:  0.14861233856573894     
 Total error:  0.10475100302583983     
 Total error:   9.3052526506659558E-002
 Total error:   8.3240172746631688E-002
 Total error:  0.13453575655183006     
 Total error:   7.6760297990312323E-002
 Total error:   5.9141380173012487E-002
 Total error:  0.10980950728593530     
 Total error:  0.16439348882508276     
 Total error:   6.9215133322404157E-002
 Total error:  0.13789226134364940     
 Total error:  0.10503833276398163     
 Total error:  0.19038283452133165     
 Total error:  0.17273700902924014     
 Total error:  0.13867115216660927     
 Total error:  0.12780782737543867     
 Total error:   8.9350348466601573E-002
 Total error:  0.12960324431896417     
 Total error:  0.19654839989104678     
 Total error:   8.9470483776971269E-002
 Total error:   5.8601509283838699E-002
 Total error:  0.10655291561318896     
 Total error:  0.12137602984132871     
 Total error:   9.1847370084109925E-002
 Total error:  0.12670305007002899     
 Total error:  0.10603662284961217     
 Total error:   7.5983565161723443E-002
 Total error:   9.4692533896087214E-002
 Total error:   8.4093979039550140E-002
 Total error:   9.5851126405611609E-002
 Total error:   9.6754675625887396E-002
 Total error:  0.21846806355309414     
 Total error:  0.13623958889672927     
 Total error:  0.14900240378549773     
 Total error:   8.2106973424467572E-002
 Total error:   8.4019902326077034E-002
 Total error:   9.0566535466677020E-002
 Total error:  0.17161918925750599     
 Total error:   8.1132144294471395E-002
 Total error:   9.8389039904415374E-002
 Total error:   8.7167759481630400E-002
 Total error:   9.3162255671809122E-002
 Total error:  0.12209402543178242     
 Total error:  0.11226167625736901     
 Total error:   9.6787304070797262E-002
 Total error:  0.13127181584563880     
 Total error:  0.17795241599697834     
 Total error:   5.1492523787528312E-002
 Total error:   5.6384531628978607E-002
 Total error:   6.0085789013689876E-002
 Total error:  0.14110274501233561     
 Total error:  0.15826505170903307     
 Total error:  0.12015672801199839     
 Total error:  0.15342664458202956     
 Total error:   7.5433432825755944E-002
 Total error:  0.12779556205036993     
 Total error:  0.10517411818859662     
 Total error:  0.10135133768201569     
 Total error:  0.12105671714446266     
 Total error:   4.3304925705237342E-002
 Total error:  0.14813482857133850     
 Total error:  0.11675962375810138     
 Total error:  0.14836680449553574     
 Total error:  0.12135420122394176     
 Total error:   8.8457318813378538E-002
 Total error:  0.11290622055011927     
 Total error:   9.2949387394740679E-002
 Total error:  0.17678062242579132     
 Total error:  0.20792615704142670     
 Total error:  0.12700403535158378     
 Total error:   6.9142653404920831E-002
 Total error:  0.15093993623842936     
 Total error:  0.10649874598559612     
 Total error:  0.15054509439743322     
 Total error:   8.6478932101119455E-002
 Total error:  0.12997184845064658     
 Total error:  0.10886627325278835     
 Total error:   9.1449115377451137E-002
 Total error:  0.14028835273460921     
 Total error:  0.13197027919610230     
 Total error:  0.17883740874062901     
 Total error:  0.19405904303960808     
 Total error:  0.12119513268368400     
 Total error:   7.0947315760268206E-002
 Total error:  0.16705448063548825     
 Total error:   8.9725089202364952E-002
 Total error:  0.16695395754931155     
 Total error:  0.13932729417021592     
 Total error:   6.0267416661472013E-002
 Total error:  0.14554425331117585     
 Total error:  0.11632203023524862     
 Total error:   7.5859710313674930E-002
 Total error:   9.1850820002118083E-002
 Total error:   8.9892288441451376E-002
 Total error:   9.9306174533644945E-002
 Total error:  0.15406325139103630     
 Total error:  0.10744394245098866     
 Total error:   8.6598390130400785E-002
 Total error:  0.12145770797468813     
 Total error:   7.8200652745455040E-002
 Total error:  0.10384431261425960     
 Total error:  0.12051790604125839     
 Total error:  0.12517679368904533     
 Total error:   6.0792572365618469E-002
 Total error:  0.10993088301567729     
 Total error:  0.11657295863479505     
 Total error:  0.14138433730868427     
 Total error:   3.8591592310231709E-002
 Total error:   7.5566308940979252E-002
 Total error:  0.11580705435826817     
 Total error:   9.3307313732947150E-002
 Total error:  0.20747360140318949     
 Total error:   6.9121709233576231E-002
 Total error:   8.9496333648336271E-002
 Total error:   8.4765591393318476E-002
 Total error:  0.16361275326451388     
 Total error:   9.4307639068384533E-002
 Total error:  0.15256416742286130     
 Total error:  0.16253360152819774     
 Total error:   4.5986183605431184E-002
 Total error:   6.6592257475644137E-002
 Total error:  0.10128411705367078     
 Total error:   9.5937434099903462E-002
 Total error:  0.12056468473465559     
 Total error:   9.4714145780795997E-002
 Total error:  0.22906560881963076     
 Total error:  0.10491238369236146     
 Total error:   9.9988651272957918E-002
 Total error:   8.3307002345540768E-002
 Total error:  0.12199096579763186     
 Total error:  0.10378516958581753     
 Total error:  0.14041771825412544     
 Total error:   8.5872723165045087E-002
 Total error:  0.16120276582028811     
 Total error:  0.10485639352623798     
 Total error:  0.12304725061162274     
 Total error:  0.10553909133174320     
 Total error:  0.13321628161029389     
 Total error:  0.11180126538377992     
 Total error:  0.18762509958664361     
 Total error:   7.2174574268306660E-002
 Total error:  0.15718417763840450     
 Total error:  0.14657503867029292     
 Total error:  0.10703991090071678     
 Total error:   6.4657942733423943E-002
 Total error:  0.13687721721209684     
 Total error:  0.13964872513025062     
 Total error:  0.15909474432240864     
 Total error:   8.5174636574271670E-002
 Total error:  0.10059355839078359     
 Total error:  0.15139459647554795     
 Total error:  0.12650356499254994     
 Total error:   9.1528294892402565E-002
 Total error:  0.18841947417710850     
 Total error:   6.7489424531024134E-002
 Total error:  0.19505001500011812     
 Total error:  0.11100325687628414     
 Total error:   7.8671910431487760E-002
 Total error:  0.14681920616419655     
 Total error:  0.14495773350712823     
 Total error:  0.10475587943950743     
 Total error:  0.10034222633842278     
 Total error:  0.10905362334754838     
 Total error:   6.2505759876429812E-002
 Total error:   4.6191939905759351E-002
 Total error:   9.6295324677205030E-002
 Total error:  0.10894736144524468     
 Total error:   8.3073001885248299E-002
 Total error:  0.11385376765789350     
 Total error:   8.5031658901748505E-002
 Total error:   9.0471273563709528E-002
 Total error:  0.10199168470952147     
 Total error:  0.13620190138453406     
 Total error:   4.9097710863557444E-002
 Total error:   3.3398054094294853E-002
 Total error:   7.0311946078536511E-002
 Total error:   8.3996208900503952E-002
 Total error:  0.17261535801795391     
 Total error:  0.14285403578212796     
 Total error:  0.11552419509708207     
 Total error:   5.3965042070413832E-002
 Total error:  0.11586634331163782     
 Total error:  0.13917261232745110     
 Total error:  0.13553160687034491     
 Total error:  0.13868153190712293     
 Total error:  0.17126680475523362     
 Total error:  0.13451097858577901     
 Total error:  0.11620253295760391     
 Total error:   7.9224429734566879E-002
 Total error:   3.1443474487185943E-002
 Total error:   7.7455948919120027E-002
 Total error:   4.5738695130520396E-002
 Total error:   7.1330036324242244E-002
 Total error:  0.13107393284496863     
 Total error:  0.13158905415923042     
 Total error:   8.1289892632291930E-002
 Total error:   9.5378513332411055E-002
 Total error:  0.11244132239623150     
 Total error:  0.10224784909755126     
 Total error:  0.12051593506523560     
 Total error:  0.12634387097704738     
 Total error:  0.11168016776928608     
 Total error:   8.4642353382950550E-002
 Total error:   7.2693769147876244E-002
 Total error:   3.9162725570458676E-002
 Total error:  0.13637024652608018     
 Total error:  0.11984677628395884     
 Total error:   9.5856299803891543E-002
 Total error:  0.16704884275892309     
 Total error:  0.10406638263171684     
 Total error:  0.15133798775978771     
 Total error:  0.13010408637767520     
 Total error:  0.13534363363300519     
 Total error:  0.24812595868974655     
 Total error:  0.10784657759371967     
 Total error:  0.11804903829541162     
 Total error:  0.12103281424406348     
 Total error:   5.7459369048388026E-002
 Total error:  0.15508966664840393     
 Total error:  0.10718874411253564     
 Total error:  0.10161792552184862     
 Total error:  0.24245614844813915     
 Total error:   9.7135569517174336E-002
 Total error:  0.14147432487609901     
 Total error:   6.7552731606400726E-002
 Total error:  0.11754030640702717     
 Total error:  0.12043014187502084     
 Total error:   8.0196870895873643E-002
 Total error:  0.11665480173572168     
 Total error:   6.5759386883065860E-002
 Total error:   9.8382920233707594E-002
 Total error:   9.0696226996410181E-002
 Total error:   8.9951043383218535E-002
 Total error:  0.21889720820351777     
 Total error:  0.14548878541540791     
 Total error:   8.6764172615431331E-002
 Total error:  0.14134396456117296     
 Total error:  0.12468445984388137     
 Total error:   6.0868195768783155E-002
 Total error:   4.3892555210486177E-002
 Total error:   9.0653524372464281E-002
 Total error:  0.11839679752005283     
 Total error:   7.0206641678511553E-002
 Total error:   7.6803415478466378E-002
 Total error:   9.8725975300178723E-002
 Total error:  0.11803634634446020     
 Total error:  0.15874958229883646     
 Total error:   8.2500647806159705E-002
 Total error:  0.11811074456526595     
 Total error:   4.6477065357673007E-002
 Total error:   7.7751121226929024E-002
 Total error:  0.12547976495809346     
 Total error:   8.9193930833651125E-002
 Total error:   5.2025254739026604E-002
 Total error:  0.13597266823324930     
 Total error:   5.0157250000506581E-002
 Total error:  0.16135830500329695     
 Total error:  0.14895890162376610     
 Total error:   9.0105461581853286E-002
 Total error:   8.6364457640687356E-002
 Total error:   9.6574328690283096E-002
 Total error:  0.13056518038992268     
 Total error:   9.8609155860639799E-002
 Total error:   8.6734403869323309E-002
 Total error:   4.0101678222927165E-002
 Total error:  0.11638842366683261     
 Total error:  0.15033945115930469     
 Total error:  0.16045504437900679     
 Total error:   8.5653651448540633E-002
 Total error:  0.24327524742524717     
 Total error:  0.18847447272062898     
 Total error:  0.17499170244065942     
 Total error:   5.3402121761110831E-002
 Total error:   8.7109600647721108E-002
 Total error:   9.8437063265212676E-002
 Total error:  0.10580562928729502     
 Total error:  0.11569870179874397     
 Total error:  0.11328982271759103     
 Total error:  0.12586021414531187     
 Total error:   5.6801496655065641E-002
 Total error:   9.8217814103739517E-002
 Total error:   7.7086361845277576E-002
 Total error:  0.13589087791547191     
 Total error:  0.11111129648941780     
 Total error:  0.13297209000152602     
 Total error:  0.12791619697003956     
 Total error:   8.0505953286763521E-002
 Total error:  0.14432731702711060     
 Total error:  0.11262380373596879     
 Total error:  0.11124177413168473     
 Total error:  0.12092605447922593     
 Total error:  0.10479502683064391     
 Total error:  0.13332673669928372     
 Total error:   8.3075379689246720E-002
 Total error:  0.15863255127780698     
 Total error:   6.8500607469582822E-002
 Total error:  0.13257670018515977     
 Total error:  0.18725267084000577     
 Total error:  0.15792431364339568     
 Total error:   9.8845535140292887E-002
 Total error:   5.3806577269246848E-002
 Total error:   8.4234912098620274E-002
 Total error:  0.14549216706409027     
 Total error:  0.14039508833469258     
 Total error:   5.3668368985706462E-002
 Total error:  0.14263861315953960     
 Total error:  0.17994168792117649     
 Total error:   9.7951147072307954E-002
 Total error:  0.11208041989686407     
 Total error:  0.12531334334895972     
 Total error:   6.9749305367085249E-002
[...]
 Total error:   9.9727357215913429E-002
 Total error:   9.5452415395266790E-002
 Total error:   9.3036827307311595E-002
 Total error:  0.11903402055744494     
 Total error:  0.15505955014565687     
 Total error:   5.7268618822935734E-002
 Total error:  0.13920242529120222     
 Total error:   9.6366646886292706E-002
 Total error:  0.10810150163801037     
 Total error:   8.2557711077757501E-002
 Total error:   4.4609740422826061E-002
 Total error:  0.10732956400319942     
 Total error:   7.1630085824451351E-002
 Total error:  0.11814372949451485     
 Total error:  0.13318857514640889     
 Total error:  0.17087354776126040     
 Total error:   9.6682206379790067E-002
 Total error:  0.15129777645992168     
 Total error:   7.6023137402193269E-002
 Total error:  0.10567899259674729     
 Total error:  0.13832190388644658     
 Total error:  0.14150767768969061     
 Total error:  0.12512082811551914     
 Total error:   9.5194274917767038E-002
 Total error:  0.18894902034206115     
 Total error:   3.7279799757974928E-002
 Total error:  0.12963497850325820     
 Total error:  0.10194989280336864     
 Total error:   9.9150728532540963E-002
 Total error:  0.15188210115768672     
 Total error:  0.13038436422609515     
 Total error:  0.13099870165503000     
 Total error:  0.10682446597101534     
 Total error:   6.8926713527343433E-002
 Total error:   9.6425979854913857E-002
 Total error:  0.16104590112880060     
 Total error:  0.11785535856783382     
 Total error:  0.10511620211642773     
 Total error:  0.10994460278505346     
 Total error:   9.3942990534966853E-002
 Total error:  0.14297708640173029     
 Total error:   6.7779489252423816E-002
 Total error:  0.12173517779749497     
 Total error:  0.14190463609135248     
 Total error:  0.12189314587701298     
 Total error:  0.15288590877871180     
 Total error:  0.10949259302326542     
 Total error:   9.5207501816226406E-002
 Total error:  0.13051253118601050     
 Total error:  0.14414228353274727     
 Total error:   7.5787694710551884E-002
 Total error:   8.1933515550341160E-002
 Total error:   8.3087422535322197E-002
 Total error:  0.10138409699228562     
 Total error:   7.2724100997607510E-002
 Total error:   7.5104150726232680E-002
 Total error:  0.12546688925875221     
 Total error:  0.12667564467888598     
 Total error:  0.12203365643519287     
 Total error:   6.1848314187522020E-002
 Total error:  0.12036610890255649     
 Total error:   9.9440079866281075E-002
 Total error:   7.3920494085446820E-002
 Total error:  0.20191255385505769     
 Total error:   7.8889461156008742E-002
 Total error:   8.1471276291798109E-002
 Total error:  0.11524924109930323     
 Total error:  0.13041247554860297     
 Total error:   8.2405434516751988E-002
 Total error:  0.11559174668032494     
 Total error:  0.10007533367112265     
 Total error:   9.5252508145964129E-002
 Total error:   6.5911688700356200E-002
 Total error:   8.2921559779253598E-002
 Total error:   9.0691503293397549E-002
 Total error:   7.8462596979674212E-002
 Total error:  0.15456444948855666     
 Total error:  0.11404054768356542     
 Total error:   6.1022550495268245E-002
 Total error:  0.11141310973841101     
 Total error:  0.13651565877865349     
 Total error:   9.6467275036417874E-002
 Total error:   9.0973481762693820E-002
 Total error:  0.20008511116759220     
 Total error:  0.11698645455856581     
 Total error:  0.15286351863646336     
 Total error:  0.13025792584544738     
 Total error:   9.4543220697524633E-002
 Total error:  0.13127628433998545     
 Total error:  0.10600001238280658     
 Total error:   8.3790988302181679E-002
 Total error:  0.17678489771729286     
 Total error:  0.10418159914624009     
 Total error:  0.11403401874210350     
 Total error:   9.1658181102971373E-002
 Total error:  0.10888217153704009     
 Total error:   5.9389089384879301E-002
 Total error:   9.2896703510552139E-002
 Total error:  0.14575678522058047     
 Total error:  0.10885691961286820     
 Total error:  0.14457891286501595     
 Total error:  0.11039392987467773     
 Total error:   4.8435065045975785E-002
 Total error:  0.10455053918073687     
 Total error:   6.7149305520032912E-002
 Total error:  0.10901847609116556     
 Total error:   6.4513332059648973E-002
 Total error:  0.16949149545685374     
 Total error:  0.11961627207951174     
 Total error:  0.19877659583109572     
 Total error:  0.16376279001697672     
 Total error:  0.13666904175065533     
 Total error:   9.3114846141820085E-002
 Total error:   9.6887959745568852E-002
 Total error:  0.20849277058198137     
 Total error:   9.3296342723122316E-002
 Total error:  0.10903282948933675     
 Total error:   7.4424727615864703E-002
 Total error:   7.7663838006884686E-002
 Total error:  0.16362911724879911     
 Total error:   8.3749278197457214E-002
 Total error:  0.11501184478150732     
 Total error:  0.13403763828031756     
 Total error:  0.12320941446760321     
 Total error:  0.13773626280979848     
 Total error:   9.1687581745112878E-002
 Total error:   7.3727453062769857E-002
 Total error:  0.14579424237843067     
 Total error:   8.3535207581061088E-002
 Total error:  0.16525901366281576     
 Total error:  0.13294434971957836     
 Total error:   4.1684542398776246E-002
 Total error:  0.17826814486274736     
 Total error:  0.10870626923264211     
 Total error:  0.18682483570664990     
 Total error:  0.15352532126372287     
 Total error:  0.10443656645924128     
 Total error:  0.10011849996294962     
 Total error:   9.0389370488679677E-002
 Total error:  0.15005114196861188     
 Total error:   3.0134716980505415E-002
 Total error:  0.12454536139505938     
 Total error:   8.4562435902550304E-002
 Total error:   7.4824261828105171E-002
 Total error:   7.6605437440918009E-002
 Total error:  0.20004419451886304     
 Total error:   8.6459124856764005E-002
 Total error:  0.15285622949358568     
 Total error:  0.16068681068880622     
 Total error:   9.5210482839234348E-002
 Total error:  0.14150265447859645     
 Total error:  0.15827020854545268     
 Total error:   8.9425507449069908E-002
 Total error:  0.10141320769768615     
 Total error:   9.9830894840138559E-002
 Total error:   8.1494109776505633E-002
 Total error:   7.1788292622855757E-002
 Total error:  0.10403806039322301     
 Total error:   9.8868117171465819E-002
 Total error:  0.13204668954028806     
 Total error:  0.12586893590860884     
 Total error:  0.10932758145036801     
 Total error:   6.5941738912090445E-002
 Total error:   5.7145104340396526E-002
 Total error:  0.11691700696229279     
 Total error:  0.15359882942469547     
 Total error:  0.10723288063953257     
 Total error:  0.13631294475514136     
 Total error:  0.14922902933792703     
 Total error:  0.14200039268292183     
 Total error:  0.10057064075473400     
 Total error:  0.15696081907025089     
 Total error:  0.12889612572825182     
 Total error:   4.7787052651826596E-002
 Total error:   4.6964241742279450E-002
 Total error:  0.13491543464215985     
 Total error:   8.7373582356355228E-002
 Total error:  0.12666597848674038     
 Total error:  0.13280095044608278     
 Total error:   8.6415727366289621E-002
 Total error:  0.17095596271821312     
 Total error:  0.10381594229803166     
 Total error:   8.1567635767157531E-002
 Total error:  0.12835972717884805     
 Total error:  0.12545211240722287     
 Total error:  0.11664040882550296     
 Total error:  0.11286776075924521     
 Total error:   8.2738373436010579E-002
 Total error:  0.10322073341143125     
 Total error:  0.13648192069618895     
 Total error:  0.12218048062417904     
 Total error:  0.18379883343864636     
 Total error:  0.15671930916479210     
 Total error:  0.10654173482854003     
 Total error:  0.14367172407857939     
 Total error:   8.7356769308815682E-002
 Total error:  0.16115423735061501     
 Total error:   9.3908585579557377E-002
 Total error:  0.12258549149700833     
 Total error:  0.15807695072873543     
 Total error:   7.7346774353498349E-002
 Total error:  0.13923109161136510     
 Total error:   6.1779176045825578E-002
 Total error:  0.17179676077169001     
 Total error:   6.0041272364054821E-002
 Total error:   8.1360467440106901E-002
 Total error:   8.2738789659731984E-002
 Total error:  0.10771831964785820     
 Total error:  0.14580784125290394     
 Total error:  0.16295205755708417     
 Total error:   9.4229406464037158E-002
 Total error:   7.7221898394883484E-002
 Total error:   7.0993140468392876E-002
 Total error:  0.10657670237087641     
 Total error:  0.16866051047310218     
 Total error:   9.7786007341857065E-002
 Total error:  0.12301984651210894     
 Total error:  0.14814646398154319     
 Total error:  0.10350635756860145     
 Total error:   8.1726675446919014E-002
 Total error:  0.11307434636492188     
 Total error:  0.14834122335378802     
 Total error:   6.8752111018093656E-002
 Total error:  0.13865450772555996     
 Total error:   5.4726001893381941E-002
 Total error:  0.18282790865549528     
 Total error:   6.6527950911226222E-002
 Total error:   8.9330850393408781E-002
 Total error:  0.12938431207247905     
 Total error:  0.11111413163091811     
 Total error:   9.3343088717233083E-002
 Total error:  0.16262069360747036     
 Total error:  0.10210562026718396     
 Total error:  0.15695119618446399     
 Total error:  0.12617674212021665     
 Total error:   5.2102094473483740E-002
 Total error:  0.12002373742955991     
 Total error:   5.3304010358771942E-002
 Total error:   6.7409165117064171E-002
 Total error:   4.9714451872894333E-002
 Total error:   9.0661875840706327E-002
 Total error:  0.12088657018624487     
 Total error:  0.19665488027129943     
 Total error:   9.3034401348927653E-002
 Total error:  0.10796636523111951     
 Total error:  0.11109361691007123     
 Total error:  0.15595266984630535     
 Total error:   9.1330619157887982E-002
 Total error:  0.14477363897093187     
 Total error:  0.11089956693427520     
 Total error:   9.9732833886976791E-002
 Total error:   7.3300282464999575E-002
 Total error:   8.1587850670919462E-002
 Total error:   6.0588082670928668E-002
 Total error:  0.18987209436818786     
 Total error:  0.12940177403644346     
 Total error:  0.11205250377073082     
 Total error:  0.15739222482619242     
 Total error:   6.7237816506571554E-002
 Total error:  0.21501165696171101     
 Total error:  0.13147891753782234     
 Total error:  0.11761014771351191     
 Total error:   5.0864005765593572E-002
 Total error:  0.13149627235333081     
 Total error:  0.20233219129097121     
 Total error:   8.1628534185198429E-002
 Total error:  0.11961786034144108     
 Total error:   3.3157920458185337E-002
 Total error:   8.6455508598450859E-002
 Total error:   9.1301286290686387E-002
 Total error:  0.10508285544879285     
 Total error:  0.13674265062219351     
 Total error:   7.5728034310945005E-002
 Total error:   7.6747809098465694E-002
 Total error:  0.12239791225041402     
 Total error:  0.10961325858484045     
 Total error:  0.19605901531448325     
 Total error:   4.1583022052882689E-002
 Total error:  0.21823221264633297     
 Total error:  0.11644512718966026     
 Total error:  0.12026863712931977     
 Total error:  0.10361332035983978     
 Total error:  0.15340479629390069     
 Total error:  0.14298609162132817     
 Total error:   7.5672951861545212E-002
 Total error:   4.5180561159032066E-002
 Total error:  0.16181112102991602     
 Total error:  0.16123364496312731     
 Total error:  0.16696876438072558     
 Total error:  0.14829855729909328     
 Total error:   8.2777176438862649E-002
 Total error:  0.12338211422192728     
 Total error:   9.1383707652400073E-002
 Total error:   5.5605017829707067E-002
 Total error:  0.10316864407043742     
 Total error:   7.9325630439301922E-002
 Total error:  0.17812943329120148     
 Total error:  0.16407599658162228     
 Total error:   7.6456359945971539E-002
 Total error:  0.10253164200844482     
 Total error:  0.10909056860619727     
 Total error:  0.12463905609778934     
 Total error:  0.11287884297154593     
 Total error:   9.1556684654963347E-002
 Total error:  0.11334938142071689     
 Total error:  0.11738315288360292     
 Total error:  0.14674251401768842     
 Total error:  0.11200746037897243     
 Total error:   9.2462350364431858E-002
 Total error:  0.10944922142515612     
 Total error:   7.7291536179125417E-002
 Total error:   7.9047523112976373E-002
 Total error:  0.10394419447546673     
 Total error:  0.16152850853604730     
 Total error:   6.3004621126688184E-002
 Total error:  0.14109381692356240     
 Total error:  0.11660750298027865     
 Total error:  0.15225102031981622     
 Total error:   7.9065378527315475E-002
 Total error:   9.2974335741207947E-002
 Total error:   9.6383643937663674E-002
 Total error:   8.4911687947674008E-002
 Total error:   9.6808454593868554E-002
 Total error:   8.6388506955218727E-002
 Total error:  0.16674012361505400     
 Total error:  0.15222645176756805     
 Total error:  0.11671393322964300     
 Total error:  0.10416144995848282     
 Total error:  0.14178713565803322     
 Total error:  0.10947525532271908     
 Total error:  0.11239977472669477     
 Total error:  0.15276903609991441     
 Total error:   7.0658088583924847E-002
 Total error:   9.3987373872701521E-002
 Total error:  0.11676042594656762     
 Total error:   9.0081853278680166E-002
 Total error:   7.2437200833479862E-002
 Total error:  0.13392763922871717     
 Total error:  0.20033627206945173     
 Total error:   9.2454274828784211E-002
 Total error:   8.1110903464256479E-002
 Total error:   8.3580824813072496E-002
 Total error:  0.15000283366612630     
 Total error:  0.10920900809338836     
 Total error:  0.12195994048809873     
 Total error:  0.12516674750184439     
 Total error:  0.14227858602697865     
 Total error:  0.14447591777195318     
 Total error:  0.12901248107127042     
 Total error:  0.13073617951868130     
 Total error:  0.14707757615525927     
 Total error:   7.0807757769351748E-002
 Total error:   8.8502853819486027E-002
 Total error:   9.5249124451701070E-002
 Total error:  0.11116064832538604     
 Total error:  0.13584321943438316     
 Total error:   5.9755721309220217E-002
 Total error:  0.13516609930961884     
 Total error:  0.13441582312638159     
 Total error:   7.9195925751640597E-002
 Total error:   7.0558391105433341E-002
 Total error:  0.14457532073928545     
 Total error:  0.19680578121640677     
 Total error:   9.9186796987459247E-002
 Total error:  0.16160238020491999     
 Total error:  0.12712776494713218     
 Total error:  0.12821231360942112     
 Total error:   8.2210078012949314E-002
 Total error:  0.14961496337202507     
 Total error:  0.12223159471878553     
 Total error:   9.0092383716671123E-002
 Total error:  0.11008698635471677     
 Total error:  0.16401684225850446     
 Total error:  0.13884009473214720     
 Total error:  0.12502590379517631     
 Total error:  0.12947674374394999     
 Total error:  0.14015026367591707     
 Total error:   9.4633955354982022E-002
 Total error:   2.4936333971672085E-002
 Total error:  0.14054672515960356     
 Total error:   8.5249655425758616E-002
 Total error:  0.13074168266614808     
 Total error:  0.13072389426844408     
 Total error:  0.15426051024286902     
 Total error:  0.13718657129803580     
 Total error:  0.14338344812961915     
 Total error:  0.17191910820604780     
 Total error:  0.10425526560086484     
 Total error:  0.12992825497995730     
 Total error:  0.11413944210966735     
 Total error:  0.11706329861818515     
 Total error:   6.5188300597677121E-002
 Total error:   6.3216296589478083E-002
 Total error:  0.11531081128003447     
 Total error:  0.18235402215938543     
 Total error:  0.11860402125749697     
 Total error:  0.10376898045829337     
 Total error:   7.7802462099446815E-002
 Total error:  0.11811506566661546     
 Total error:  0.12527901368413277     
 Total error:   8.7012377736012878E-002
 Total error:   8.3654022164428798E-002
 Total error:   8.4039340881315316E-002
 Total error:   9.6985746044400675E-002
 Total error:   9.1156533960433439E-002
 Total error:   7.4254316527540831E-002
 Total error:   8.7132876200173501E-002
 Total error:  0.13161638875121454     
 Total error:   6.0559540821923302E-002
 Total error:   6.7186262956991052E-002
 Total error:  0.10605671986304725     
 Total error:  0.13058000168828585     
 Total error:  0.10954487539252412     
 Total error:  0.15680143815800979     
 Total error:   8.0679851047244400E-002
 Total error:  0.12689440646663183     
 Total error:  0.10986947431747128     
 Total error:  0.14719238544976110     
 Total error:  0.14315247317759469     
 Total error:   6.3158164895783561E-002
 Total error:   8.2450910568454591E-002
 Total error:   8.5558122101063949E-002
 Total error:   7.5371764111722570E-002
 Total error:  0.13286061166685439     
 Total error:  0.11489864604138178     
 Total error:  0.14075909873794881     
 Total error:  0.12195684294155161     
 Total error:  0.12594470893796417     
 Total error:  0.17042764453526860     
 Total error:  0.12703298055201601     
 Total error:  0.11775927452448620     
 Total error:   9.6471621996096421E-002
 Total error:   7.2564781946208537E-002
 Total error:   3.5285409598882010E-002
 Total error:  0.16108932487835440     
 Total error:  0.13800702917838362     
 Total error:  0.14757262951516129     
 Total error:   7.1813972911001292E-002
 Total error:   8.9440562779411870E-002
 Total error:   6.3034056296222857E-002
 Total error:  0.14185096176530279     
 Total error:  0.15464366319219999     
 Total error:  0.10965144584823815     
 Total error:  0.10359809832591681     
 Total error:  0.10727390119735437     
 Total error:   8.6926942608761174E-002
 Total error:  0.10973065811803277     
 Total error:   9.4037734098739278E-002
 Total error:   5.9385464550941791E-002
 Total error:  0.13484210027645391     
 Total error:  0.13757154836742289     
 Total error:  0.13643781805052005     
 Total error:   7.7341214257493324E-002
 Total error:  0.20591417779173735     
 Total error:   9.2159914681447672E-002
 Total error:  0.13581300092855372     
 Total error:  0.13852843631284409     
 Total error:  0.19384829379001034     
 Total error:  0.15609958189677406     
 Total error:  0.14272933241276534     
 Total error:  0.12396253355161491     
 Total error:  0.14094638211827507     
 Total error:   6.1704294623230654E-002
 Total error:   8.9197094252938161E-002
 Total error:  0.12239663022202256     
 Total error:  0.12866282679248101     
 Total error:  0.10548221628634431     
 Total error:  0.12865391697140216     
 Total error:  0.10169614969167180     
 Total error:  0.15045997834881480     
 Total error:   8.8894457940464133E-002
 Total error:   6.0142553470753146E-002
 Total error:  0.16137036755899689     
 Total error:  0.11907399142622586     
 Total error:   4.2313896958890256E-002
 Total error:   8.0355639371173460E-002
 Total error:   9.3996302543635071E-002
 Total error:   8.2396965039727266E-002
 Total error:  0.14200079903493890     
 Total error:  0.17095372230068739     
 Total error:  0.18228968515578745     
 Total error:  0.12023712208611616     
 Total error:  0.13215715205003045     
 Total error:  0.17094975735676401     
 Total error:  0.12570080498803629     
 Total error:  0.14869706522114617     
 Total error:   5.7298285676360909E-002
 Total error:   5.5073581573664966E-002
 Total error:  0.11525534579611020     
 Total error:   7.9409978763092970E-002
 Total error:   7.7430369427348877E-002
 Total error:   1.8403220092610872E-002

     MATDYN       :    23.88s CPU        23.61s WALL


   This run was terminated on:  16:30:28  22Feb2020            

=------------------------------------------------------------------------------=
   JOB DONE.
=------------------------------------------------------------------------------=
