
     Program PWSCF v.6.8 starts on 10Oct2021 at  9:54:17 

     This program is part of the open-source Quantum ESPRESSO suite
     for quantum simulation of materials; please cite
         "P. Giannozzi et al., J. Phys.:Condens. Matter 21 395502 (2009);
         "P. Giannozzi et al., J. Phys.:Condens. Matter 29 465901 (2017);
         "P. Giannozzi et al., J. Chem. Phys. 152 154105 (2020);
          URL http://www.quantum-espresso.org", 
     in publications or presentations arising from this work. More details at
     http://www.quantum-espresso.org/quote

     Parallel version (MPI), running on     4 processors

     MPI processes distributed on     1 nodes
     R & G space division:  proc/nbgrp/npool/nimage =       4
     26694 MiB available memory on the printing compute node when the environment starts
 
     Reading input from vc-relax-dos-1.in

     Current dimensions of program PWSCF are:
     Max number of different atomic species (ntypx) = 10
     Max number of k-points (npk) =  40000
     Max angular momentum in pseudopotentials (lmaxx) =  4

     gamma-point specific algorithms are used

     Subspace diagonalization in iterative solution of the eigenvalue problem:
     one sub-group per band group will be used
     scalapack distributed-memory algorithm (size of sub-group:  2*  2 procs)

 
     Parallelization info
     --------------------
     sticks:   dense  smooth     PW     G-vecs:    dense   smooth      PW
     Min          86      86     20                 1039     1039     130
     Max          89      89     22                 1040     1040     134
     Sum         349     349     85                 4159     4159     531
 
     Using Slab Decomposition
 


     bravais-lattice index     =           14
     lattice parameter (alat)  =       7.0103  a.u.
     unit-cell volume          =     245.3705 (a.u.)^3
     number of atoms/cell      =            2
     number of atomic types    =            1
     number of electrons       =        10.00
     number of Kohn-Sham states=            9
     kinetic-energy cutoff     =      25.0000  Ry
     charge density cutoff     =     100.0000  Ry
     scf convergence threshold =      1.0E-07
     mixing beta               =       0.7000
     number of iterations used =            8  plain     mixing
     energy convergence thresh.=      1.0E-04
     force convergence thresh. =      1.0E-03
     press convergence thresh. =      5.0E-01
     Exchange-correlation= SLA  PZ   NOGX NOGC
                           (   1   1   0   0   0   0   0)
     nstep                     =           50


     celldm(1)=   7.010336  celldm(2)=   1.000000  celldm(3)=   1.000000
     celldm(4)=   0.495175  celldm(5)=   0.495175  celldm(6)=   0.495175

     crystal axes: (cart. coord. in units of alat)
               a(1) = (   1.000000   0.000000   0.000000 )  
               a(2) = (   0.495175   0.868793   0.000000 )  
               a(3) = (   0.495175   0.287729   0.819765 )  

     reciprocal axes: (cart. coord. in units 2 pi/alat)
               b(1) = (  1.000000 -0.569957 -0.403996 )  
               b(2) = (  0.000000  1.151022 -0.403996 )  
               b(3) = (  0.000000  0.000000  1.219862 )  


     PseudoPot. # 1 for As read from file:
     /home/giannozz/q-e-mio/test-suite/..//pseudo/As.pz-bhs.UPF
     MD5 check sum: 2c53d8691f3db84e0fbdf898b12bc293
     Pseudo is Norm-conserving, Zval =  5.0
     Generated by new atomic code, or converted to UPF format
     Using radial grid of  525 points,  2 beta functions with: 
                l(1) =   0
                l(2) =   1

     atomic species   valence    mass     pseudopotential
        As             5.00    74.90000     As( 1.00)

      2 Sym. Ops., with inversion, found



   Cartesian axes

     site n.     atom                  positions (alat units)
         1           As  tau(   1) = (   0.2900100   0.2900100   0.2900100  )
         2           As  tau(   2) = (  -0.2900100  -0.2900100  -0.2900100  )

     number of k points=     1  Methfessel-Paxton smearing, width (Ry)=  0.0050
                       cart. coord. in units 2pi/alat
        k(    1) = (   0.0000000   0.0000000   0.0000000), wk =   2.0000000

     Dense  grid:     2080 G-vectors     FFT dimensions: (  24,  24,  24)

     Estimated max dynamical RAM per process >       0.65 MB

     Estimated total dynamical RAM >       2.58 MB

     Initial potential from superposition of free atoms

     starting charge    9.99960, renormalised to   10.00000
     Starting wfcs are    8 randomized atomic wfcs +    1 random wfcs

     total cpu time spent up to now is        0.1 secs

     Self-consistent Calculation

     iteration #  1     ecut=    25.00 Ry     beta= 0.70
     Davidson diagonalization with overlap
     ethr =  1.00E-02,  avg # of iterations =  5.0

     total cpu time spent up to now is        0.1 secs

     total energy              =     -23.07861408 Ry
     estimated scf accuracy    <       0.62968249 Ry

     iteration #  2     ecut=    25.00 Ry     beta= 0.70
     Davidson diagonalization with overlap
     ethr =  6.30E-03,  avg # of iterations =  2.0

     total cpu time spent up to now is        0.1 secs

     total energy              =     -23.19760945 Ry
     estimated scf accuracy    <       0.02895699 Ry

     iteration #  3     ecut=    25.00 Ry     beta= 0.70
     Davidson diagonalization with overlap
     ethr =  2.90E-04,  avg # of iterations =  2.0

     total cpu time spent up to now is        0.1 secs

     total energy              =     -23.20399076 Ry
     estimated scf accuracy    <       0.00164576 Ry

     iteration #  4     ecut=    25.00 Ry     beta= 0.70
     Davidson diagonalization with overlap
     ethr =  1.65E-05,  avg # of iterations =  4.0

     total cpu time spent up to now is        0.1 secs

     total energy              =     -23.20479639 Ry
     estimated scf accuracy    <       0.00012891 Ry

     iteration #  5     ecut=    25.00 Ry     beta= 0.70
     Davidson diagonalization with overlap
     ethr =  1.29E-06,  avg # of iterations =  2.0

     total cpu time spent up to now is        0.1 secs

     total energy              =     -23.20482492 Ry
     estimated scf accuracy    <       0.00000484 Ry

     iteration #  6     ecut=    25.00 Ry     beta= 0.70
     Davidson diagonalization with overlap
     ethr =  4.84E-08,  avg # of iterations =  3.0

     total cpu time spent up to now is        0.1 secs

     total energy              =     -23.20482644 Ry
     estimated scf accuracy    <       0.00000065 Ry

     iteration #  7     ecut=    25.00 Ry     beta= 0.70
     Davidson diagonalization with overlap
     ethr =  6.49E-09,  avg # of iterations =  2.0

     total cpu time spent up to now is        0.1 secs

     total energy              =     -23.20482655 Ry
     estimated scf accuracy    <       0.00000036 Ry

     iteration #  8     ecut=    25.00 Ry     beta= 0.70
     Davidson diagonalization with overlap
     ethr =  3.55E-09,  avg # of iterations =  1.0

     total cpu time spent up to now is        0.1 secs

     End of self-consistent calculation

          k = 0.0000 0.0000 0.0000 (   266 PWs)   bands (ev):

    -7.7478   4.5693   6.8302   7.5466   8.0697  10.1839  13.2750  14.3345
    15.1417

     the Fermi energy is     9.7595 ev

!    total energy              =     -23.20482661 Ry
     estimated scf accuracy    <          4.6E-09 Ry
     smearing contrib. (-TS)   =       0.00000000 Ry
     internal energy E=F+TS    =     -23.20482661 Ry

     The total energy is F=E-TS. E is the sum of the following terms:
     one-electron contribution =       4.82599752 Ry
     hartree contribution      =       3.68815430 Ry
     xc contribution           =      -7.17668607 Ry
     ewald contribution        =     -24.54229237 Ry

     convergence has been achieved in   8 iterations

     Forces acting on atoms (cartesian axes, Ry/au):

     atom    1 type  1   force =     0.41672165    1.56259969   -1.42723182
     atom    2 type  1   force =    -0.41672165   -1.56259969    1.42723182

     Total force =     3.050366     Total SCF correction =     0.000025


     Computing stress (Cartesian axis) and pressure

          total   stress  (Ry/bohr**3)                   (kbar)     P=     2824.69
   0.00949070   0.00449605  -0.00327222         1396.13      661.39     -481.36
   0.00449605   0.02745473  -0.01270854          661.39     4038.73    -1869.49
  -0.00327222  -0.01270854   0.02066022         -481.36    -1869.49     3039.22


     BFGS Geometry Optimization
     Energy error            =      0.0E+00 Ry
     Gradient error          =      1.6E+00 Ry/Bohr
     Cell gradient error     =      4.0E+03 kbar

     number of scf cycles    =   1
     number of bfgs steps    =   0

     enthalpy           new  =     -23.2048266146 Ry

     new trust radius        =       0.5000000000 bohr
     new conv_thr            =       0.0000001000 Ry

     new unit-cell volume =    324.80393 a.u.^3 (    48.13098 Ang^3 )
     density =      5.16816 g/cm^3

CELL_PARAMETERS (alat=  7.01033620)
   1.049523206   0.023460766  -0.017074690
   0.540079898   1.004874802  -0.066068277
   0.512450443   0.286204033   0.880605464

ATOMIC_POSITIONS (alat)
As            0.3210630849        0.3754276192        0.2467193409
As           -0.3210630849       -0.3754276192       -0.2467193409



     Writing config-only to output data dir ./pwscf.save/
     NEW-OLD atomic charge density approx. for the potential
     extrapolated charge   12.44548, renormalised to   10.00000

     total cpu time spent up to now is        0.1 secs

     Self-consistent Calculation

     iteration #  1     ecut=    25.00 Ry     beta= 0.70
     Davidson diagonalization with overlap
     ethr =  1.00E-06,  avg # of iterations = 12.0

     total cpu time spent up to now is        0.2 secs

     total energy              =     -24.19735718 Ry
     estimated scf accuracy    <       0.95839292 Ry

     iteration #  2     ecut=    25.00 Ry     beta= 0.70
     Davidson diagonalization with overlap
     ethr =  9.58E-03,  avg # of iterations =  2.0

     total cpu time spent up to now is        0.2 secs

     total energy              =     -24.66885716 Ry
     estimated scf accuracy    <       0.33127417 Ry

     iteration #  3     ecut=    25.00 Ry     beta= 0.70
     Davidson diagonalization with overlap
     ethr =  3.31E-03,  avg # of iterations =  2.0

     total cpu time spent up to now is        0.2 secs

     total energy              =     -24.68578338 Ry
     estimated scf accuracy    <       0.02866938 Ry

     iteration #  4     ecut=    25.00 Ry     beta= 0.70
     Davidson diagonalization with overlap
     ethr =  2.87E-04,  avg # of iterations =  2.0

     total cpu time spent up to now is        0.2 secs

     total energy              =     -24.69332620 Ry
     estimated scf accuracy    <       0.00151243 Ry

     iteration #  5     ecut=    25.00 Ry     beta= 0.70
     Davidson diagonalization with overlap
     ethr =  1.51E-05,  avg # of iterations =  4.0

     total cpu time spent up to now is        0.2 secs

     total energy              =     -24.69348965 Ry
     estimated scf accuracy    <       0.00137305 Ry

     iteration #  6     ecut=    25.00 Ry     beta= 0.70
     Davidson diagonalization with overlap
     ethr =  1.37E-05,  avg # of iterations =  2.0

     total cpu time spent up to now is        0.2 secs

     total energy              =     -24.69351064 Ry
     estimated scf accuracy    <       0.00082384 Ry

     iteration #  7     ecut=    25.00 Ry     beta= 0.70
     Davidson diagonalization with overlap
     ethr =  8.24E-06,  avg # of iterations =  1.0

     total cpu time spent up to now is        0.2 secs

     total energy              =     -24.69361992 Ry
     estimated scf accuracy    <       0.00003681 Ry

     iteration #  8     ecut=    25.00 Ry     beta= 0.70
     Davidson diagonalization with overlap
     ethr =  3.68E-07,  avg # of iterations =  4.0

     total cpu time spent up to now is        0.2 secs

     total energy              =     -24.69363720 Ry
     estimated scf accuracy    <       0.00000337 Ry

     iteration #  9     ecut=    25.00 Ry     beta= 0.70
     Davidson diagonalization with overlap
     ethr =  3.37E-08,  avg # of iterations =  2.0

     total cpu time spent up to now is        0.2 secs

     total energy              =     -24.69363795 Ry
     estimated scf accuracy    <       0.00000021 Ry

     iteration # 10     ecut=    25.00 Ry     beta= 0.70
     Davidson diagonalization with overlap
     ethr =  2.12E-09,  avg # of iterations =  4.0

     total cpu time spent up to now is        0.2 secs

     End of self-consistent calculation

          k = 0.0000 0.0000 0.0000 (   266 PWs)   bands (ev):

    -7.8032   1.4509   1.8087   5.6276   5.9936   7.0215   8.1666   9.9586
    11.2685

     the Fermi energy is     6.5215 ev

!    total energy              =     -24.69363800 Ry
     estimated scf accuracy    <       0.00000002 Ry
     smearing contrib. (-TS)   =       0.00000000 Ry
     internal energy E=F+TS    =     -24.69363800 Ry

     The total energy is F=E-TS. E is the sum of the following terms:
     one-electron contribution =       3.96709089 Ry
     hartree contribution      =       2.78934973 Ry
     xc contribution           =      -6.51900298 Ry
     ewald contribution        =     -24.93107564 Ry

     convergence has been achieved in  10 iterations

     Forces acting on atoms (cartesian axes, Ry/au):

     atom    1 type  1   force =     0.11367227    0.09623664    0.00869179
     atom    2 type  1   force =    -0.11367227   -0.09623664   -0.00869179

     Total force =     0.210990     Total SCF correction =     0.000178


     Computing stress (Cartesian axis) and pressure

          total   stress  (Ry/bohr**3)                   (kbar)     P=      622.83
   0.00266151  -0.00221977  -0.00130839          391.52     -326.54     -192.47
  -0.00221977   0.00512107  -0.00086108         -326.54      753.34     -126.67
  -0.00130839  -0.00086108   0.00491908         -192.47     -126.67      723.62

     Energy error            =      1.5E+00 Ry
     Gradient error          =      1.1E-01 Ry/Bohr
     Cell gradient error     =      7.5E+02 kbar

     number of scf cycles    =   2
     number of bfgs steps    =   1

     enthalpy           old  =     -23.2048266146 Ry
     enthalpy           new  =     -24.6936379970 Ry

     CASE: enthalpy          _new < enthalpy          _old

     new trust radius        =       0.4885862751 bohr
     new conv_thr            =       0.0000001000 Ry

     new unit-cell volume =    422.86629 a.u.^3 (    62.66232 Ang^3 )
     density =      3.96967 g/cm^3

CELL_PARAMETERS (alat=  7.01033620)
   1.126028215  -0.070045657  -0.054072172
   0.501864576   1.055215027  -0.076475477
   0.491683720   0.277265393   0.964855201

ATOMIC_POSITIONS (alat)
As            0.3202045581        0.3832315507        0.2895680246
As           -0.3202045581       -0.3832315507       -0.2895680246



     Writing config-only to output data dir ./pwscf.save/
     NEW-OLD atomic charge density approx. for the potential

     negative rho (up, down):  6.649E-04 0.000E+00
     extrapolated charge   12.31890, renormalised to   10.00000

     total cpu time spent up to now is        0.2 secs

     Self-consistent Calculation

     iteration #  1     ecut=    25.00 Ry     beta= 0.70
     Davidson diagonalization with overlap
     ethr =  1.00E-06,  avg # of iterations = 11.0

     total cpu time spent up to now is        0.2 secs

     total energy              =     -24.94506360 Ry
     estimated scf accuracy    <       0.04262453 Ry

     iteration #  2     ecut=    25.00 Ry     beta= 0.70
     Davidson diagonalization with overlap
     ethr =  4.26E-04,  avg # of iterations =  4.0

     total cpu time spent up to now is        0.2 secs

     total energy              =     -25.06809402 Ry
     estimated scf accuracy    <       0.06900454 Ry

     iteration #  3     ecut=    25.00 Ry     beta= 0.70
     Davidson diagonalization with overlap
     ethr =  4.26E-04,  avg # of iterations =  1.0

     total cpu time spent up to now is        0.2 secs

     total energy              =     -25.05694001 Ry
     estimated scf accuracy    <       0.02371624 Ry

     iteration #  4     ecut=    25.00 Ry     beta= 0.70
     Davidson diagonalization with overlap
     ethr =  2.37E-04,  avg # of iterations =  2.0

     total cpu time spent up to now is        0.2 secs

     total energy              =     -25.05948471 Ry
     estimated scf accuracy    <       0.00039333 Ry

     iteration #  5     ecut=    25.00 Ry     beta= 0.70
     Davidson diagonalization with overlap
     ethr =  3.93E-06,  avg # of iterations =  4.0

     total cpu time spent up to now is        0.3 secs

     total energy              =     -25.05968282 Ry
     estimated scf accuracy    <       0.00003364 Ry

     iteration #  6     ecut=    25.00 Ry     beta= 0.70
     Davidson diagonalization with overlap
     ethr =  3.36E-07,  avg # of iterations =  2.0

     total cpu time spent up to now is        0.3 secs

     total energy              =     -25.05969250 Ry
     estimated scf accuracy    <       0.00002901 Ry

     iteration #  7     ecut=    25.00 Ry     beta= 0.70
     Davidson diagonalization with overlap
     ethr =  2.90E-07,  avg # of iterations =  1.0

     total cpu time spent up to now is        0.3 secs

     total energy              =     -25.05969547 Ry
     estimated scf accuracy    <       0.00000316 Ry

     iteration #  8     ecut=    25.00 Ry     beta= 0.70
     Davidson diagonalization with overlap
     ethr =  3.16E-08,  avg # of iterations =  2.0

     total cpu time spent up to now is        0.3 secs

     End of self-consistent calculation

          k = 0.0000 0.0000 0.0000 (   266 PWs)   bands (ev):

    -9.0658  -2.4300   0.0245   2.6085   2.7416   4.8161   5.7968   7.1806
     7.7535

     the Fermi energy is     3.8888 ev

!    total energy              =     -25.05969622 Ry
     estimated scf accuracy    <       0.00000004 Ry
     smearing contrib. (-TS)   =       0.00000000 Ry
     internal energy E=F+TS    =     -25.05969622 Ry

     The total energy is F=E-TS. E is the sum of the following terms:
     one-electron contribution =       0.18982360 Ry
     hartree contribution      =       3.53527690 Ry
     xc contribution           =      -6.25569919 Ry
     ewald contribution        =     -22.52909754 Ry

     convergence has been achieved in   8 iterations

     Forces acting on atoms (cartesian axes, Ry/au):

     atom    1 type  1   force =     0.02137172    0.13813846   -0.04268038
     atom    2 type  1   force =    -0.02137172   -0.13813846    0.04268038

     Total force =     0.206691     Total SCF correction =     0.000032


     Computing stress (Cartesian axis) and pressure

          total   stress  (Ry/bohr**3)                   (kbar)     P=      162.05
   0.00107040  -0.00112438  -0.00069871          157.46     -165.40     -102.78
  -0.00112438   0.00096493  -0.00029753         -165.40      141.95      -43.77
  -0.00069871  -0.00029753   0.00126952         -102.78      -43.77      186.75

     Energy error            =      3.7E-01 Ry
     Gradient error          =      1.4E-01 Ry/Bohr
     Cell gradient error     =      1.9E+02 kbar

     number of scf cycles    =   3
     number of bfgs steps    =   2

     enthalpy           old  =     -24.6936379970 Ry
     enthalpy           new  =     -25.0596962198 Ry

     CASE: enthalpy          _new < enthalpy          _old

     new trust radius        =       0.3775696923 bohr
     new conv_thr            =       0.0000001000 Ry

     new unit-cell volume =    471.97636 a.u.^3 (    69.93968 Ang^3 )
     density =      3.55662 g/cm^3

CELL_PARAMETERS (alat=  7.01033620)
   1.187378654  -0.165970782  -0.096168206
   0.455711026   1.034162156  -0.088914064
   0.461917777   0.244302811   0.998871158

ATOMIC_POSITIONS (alat)
As            0.2993877812        0.3918355438        0.3020480221
As           -0.2993877812       -0.3918355438       -0.3020480221



     Writing config-only to output data dir ./pwscf.save/
     NEW-OLD atomic charge density approx. for the potential

     negative rho (up, down):  1.093E-03 0.000E+00
     extrapolated charge   11.04048, renormalised to   10.00000

     total cpu time spent up to now is        0.3 secs

     Self-consistent Calculation

     iteration #  1     ecut=    25.00 Ry     beta= 0.70
     Davidson diagonalization with overlap
     ethr =  1.00E-06,  avg # of iterations = 10.0

     total cpu time spent up to now is        0.3 secs

     total energy              =     -25.16291678 Ry
     estimated scf accuracy    <       0.01672732 Ry

     iteration #  2     ecut=    25.00 Ry     beta= 0.70
     Davidson diagonalization with overlap
     ethr =  1.67E-04,  avg # of iterations =  3.0

     total cpu time spent up to now is        0.3 secs

     total energy              =     -25.19522760 Ry
     estimated scf accuracy    <       0.01719098 Ry

     iteration #  3     ecut=    25.00 Ry     beta= 0.70
     Davidson diagonalization with overlap
     ethr =  1.67E-04,  avg # of iterations =  1.0

     total cpu time spent up to now is        0.3 secs

     total energy              =     -25.19326944 Ry
     estimated scf accuracy    <       0.00467623 Ry

     iteration #  4     ecut=    25.00 Ry     beta= 0.70
     Davidson diagonalization with overlap
     ethr =  4.68E-05,  avg # of iterations =  2.0

     total cpu time spent up to now is        0.3 secs

     total energy              =     -25.19391583 Ry
     estimated scf accuracy    <       0.00002011 Ry

     iteration #  5     ecut=    25.00 Ry     beta= 0.70
     Davidson diagonalization with overlap
     ethr =  2.01E-07,  avg # of iterations =  4.0

     total cpu time spent up to now is        0.3 secs

     total energy              =     -25.19394725 Ry
     estimated scf accuracy    <       0.00001180 Ry

     iteration #  6     ecut=    25.00 Ry     beta= 0.70
     Davidson diagonalization with overlap
     ethr =  1.18E-07,  avg # of iterations =  1.0

     total cpu time spent up to now is        0.3 secs

     total energy              =     -25.19394760 Ry
     estimated scf accuracy    <       0.00000301 Ry

     iteration #  7     ecut=    25.00 Ry     beta= 0.70
     Davidson diagonalization with overlap
     ethr =  3.01E-08,  avg # of iterations =  2.0

     total cpu time spent up to now is        0.3 secs

     total energy              =     -25.19394817 Ry
     estimated scf accuracy    <       0.00000029 Ry

     iteration #  8     ecut=    25.00 Ry     beta= 0.70
     Davidson diagonalization with overlap
     ethr =  2.92E-09,  avg # of iterations =  2.0

     total cpu time spent up to now is        0.3 secs

     End of self-consistent calculation

          k = 0.0000 0.0000 0.0000 (   266 PWs)   bands (ev):

    -9.8730  -3.3638  -0.2885   0.9126   0.9729   4.3073   5.2395   5.9008
     6.1508

     the Fermi energy is     2.4850 ev

!    total energy              =     -25.19394822 Ry
     estimated scf accuracy    <          1.7E-09 Ry
     smearing contrib. (-TS)   =       0.00000000 Ry
     internal energy E=F+TS    =     -25.19394822 Ry

     The total energy is F=E-TS. E is the sum of the following terms:
     one-electron contribution =      -2.33031041 Ry
     hartree contribution      =       4.35383757 Ry
     xc contribution           =      -6.20109079 Ry
     ewald contribution        =     -21.01638458 Ry

     convergence has been achieved in   8 iterations

     Forces acting on atoms (cartesian axes, Ry/au):

     atom    1 type  1   force =    -0.01429070    0.02864813   -0.05485089
     atom    2 type  1   force =     0.01429070   -0.02864813    0.05485089

     Total force =     0.089817     Total SCF correction =     0.000032


     Computing stress (Cartesian axis) and pressure

          total   stress  (Ry/bohr**3)                   (kbar)     P=       62.86
   0.00062526  -0.00044215  -0.00032708           91.98      -65.04      -48.11
  -0.00044215   0.00032427   0.00005698          -65.04       47.70        8.38
  -0.00032708   0.00005698   0.00033245          -48.11        8.38       48.91

     Energy error            =      1.3E-01 Ry
     Gradient error          =      5.5E-02 Ry/Bohr
     Cell gradient error     =      9.2E+01 kbar

     number of scf cycles    =   4
     number of bfgs steps    =   3

     enthalpy           old  =     -25.0596962198 Ry
     enthalpy           new  =     -25.1939482167 Ry

     CASE: enthalpy          _new < enthalpy          _old

     new trust radius        =       0.2521844138 bohr
     new conv_thr            =       0.0000000549 Ry

     new unit-cell volume =    503.26504 a.u.^3 (    74.57619 Ang^3 )
     density =      3.33550 g/cm^3

CELL_PARAMETERS (alat=  7.01033620)
   1.238938303  -0.228086705  -0.126854766
   0.432721846   1.018127357  -0.092356314
   0.447214916   0.229024021   1.014598277

ATOMIC_POSITIONS (alat)
As            0.2839571764        0.3929460508        0.2973588912
As           -0.2839571764       -0.3929460508       -0.2973588912



     Writing config-only to output data dir ./pwscf.save/
     NEW-OLD atomic charge density approx. for the potential

     negative rho (up, down):  9.452E-04 0.000E+00
     extrapolated charge   10.62169, renormalised to   10.00000

     total cpu time spent up to now is        0.3 secs

     Self-consistent Calculation

     iteration #  1     ecut=    25.00 Ry     beta= 0.70
     Davidson diagonalization with overlap
     ethr =  1.00E-06,  avg # of iterations =  9.0

     total cpu time spent up to now is        0.3 secs

     total energy              =     -25.21434703 Ry
     estimated scf accuracy    <       0.00847027 Ry

     iteration #  2     ecut=    25.00 Ry     beta= 0.70
     Davidson diagonalization with overlap
     ethr =  8.47E-05,  avg # of iterations =  3.0

     total cpu time spent up to now is        0.3 secs

     total energy              =     -25.22904798 Ry
     estimated scf accuracy    <       0.00768384 Ry

     iteration #  3     ecut=    25.00 Ry     beta= 0.70
     Davidson diagonalization with overlap
     ethr =  7.68E-05,  avg # of iterations =  1.0

     total cpu time spent up to now is        0.3 secs

     total energy              =     -25.22834867 Ry
     estimated scf accuracy    <       0.00187425 Ry

     iteration #  4     ecut=    25.00 Ry     beta= 0.70
     Davidson diagonalization with overlap
     ethr =  1.87E-05,  avg # of iterations =  2.0

     total cpu time spent up to now is        0.3 secs

     total energy              =     -25.22861637 Ry
     estimated scf accuracy    <       0.00001037 Ry

     iteration #  5     ecut=    25.00 Ry     beta= 0.70
     Davidson diagonalization with overlap
     ethr =  1.04E-07,  avg # of iterations =  4.0

     total cpu time spent up to now is        0.4 secs

     total energy              =     -25.22863030 Ry
     estimated scf accuracy    <       0.00000173 Ry

     iteration #  6     ecut=    25.00 Ry     beta= 0.70
     Davidson diagonalization with overlap
     ethr =  1.73E-08,  avg # of iterations =  2.0

     total cpu time spent up to now is        0.4 secs

     End of self-consistent calculation

          k = 0.0000 0.0000 0.0000 (   266 PWs)   bands (ev):

   -10.3970  -3.8183  -0.3741  -0.0626   0.1086   3.8881   4.8404   5.3841
     5.4963

     the Fermi energy is     1.8631 ev

!    total energy              =     -25.22863053 Ry
     estimated scf accuracy    <       0.00000005 Ry
     smearing contrib. (-TS)   =       0.00000000 Ry
     internal energy E=F+TS    =     -25.22863053 Ry

     The total energy is F=E-TS. E is the sum of the following terms:
     one-electron contribution =      -4.01385292 Ry
     hartree contribution      =       4.96694420 Ry
     xc contribution           =      -6.17742269 Ry
     ewald contribution        =     -20.00429912 Ry

     convergence has been achieved in   6 iterations

     Forces acting on atoms (cartesian axes, Ry/au):

     atom    1 type  1   force =    -0.02684017   -0.02863934   -0.03983525
     atom    2 type  1   force =     0.02684017    0.02863934    0.03983525

     Total force =     0.079088     Total SCF correction =     0.000139


     Computing stress (Cartesian axis) and pressure

          total   stress  (Ry/bohr**3)                   (kbar)     P=       28.42
   0.00036367  -0.00010753  -0.00011388           53.50      -15.82      -16.75
  -0.00010753   0.00012320   0.00012279          -15.82       18.12       18.06
  -0.00011388   0.00012279   0.00009262          -16.75       18.06       13.62

     Energy error            =      3.5E-02 Ry
     Gradient error          =      4.0E-02 Ry/Bohr
     Cell gradient error     =      5.3E+01 kbar

     number of scf cycles    =   5
     number of bfgs steps    =   4

     enthalpy           old  =     -25.1939482167 Ry
     enthalpy           new  =     -25.2286305262 Ry

     CASE: enthalpy          _new < enthalpy          _old

     new trust radius        =       0.1660762977 bohr
     new conv_thr            =       0.0000000398 Ry

     new unit-cell volume =    528.36207 a.u.^3 (    78.29518 Ang^3 )
     density =      3.17706 g/cm^3

CELL_PARAMETERS (alat=  7.01033620)
   1.281642735  -0.263245395  -0.145969171
   0.427556693   1.011645169  -0.090814756
   0.444902116   0.225505669   1.025535779

ATOMIC_POSITIONS (alat)
As            0.2773767826        0.3884009235        0.2881394285
As           -0.2773767826       -0.3884009235       -0.2881394285



     Writing config-only to output data dir ./pwscf.save/
     NEW-OLD atomic charge density approx. for the potential

     negative rho (up, down):  7.821E-04 0.000E+00
     extrapolated charge   10.47498, renormalised to   10.00000

     total cpu time spent up to now is        0.4 secs

     Self-consistent Calculation

     iteration #  1     ecut=    25.00 Ry     beta= 0.70
     Davidson diagonalization with overlap
     ethr =  1.00E-06,  avg # of iterations =  8.0

     negative rho (up, down):  9.886E-06 0.000E+00

     total cpu time spent up to now is        0.4 secs

     total energy              =     -25.23203963 Ry
     estimated scf accuracy    <       0.00501552 Ry

     iteration #  2     ecut=    25.00 Ry     beta= 0.70
     Davidson diagonalization with overlap
     ethr =  5.02E-05,  avg # of iterations =  3.0

     negative rho (up, down):  3.744E-08 0.000E+00

     total cpu time spent up to now is        0.4 secs

     total energy              =     -25.24122555 Ry
     estimated scf accuracy    <       0.00423151 Ry

     iteration #  3     ecut=    25.00 Ry     beta= 0.70
     Davidson diagonalization with overlap
     ethr =  4.23E-05,  avg # of iterations =  1.0

     total cpu time spent up to now is        0.4 secs

     total energy              =     -25.24088728 Ry
     estimated scf accuracy    <       0.00107994 Ry

     iteration #  4     ecut=    25.00 Ry     beta= 0.70
     Davidson diagonalization with overlap
     ethr =  1.08E-05,  avg # of iterations =  2.0

     total cpu time spent up to now is        0.4 secs

     total energy              =     -25.24095613 Ry
     estimated scf accuracy    <       0.00006724 Ry

     iteration #  5     ecut=    25.00 Ry     beta= 0.70
     Davidson diagonalization with overlap
     ethr =  6.72E-07,  avg # of iterations =  4.0

     total cpu time spent up to now is        0.4 secs

     total energy              =     -25.24097702 Ry
     estimated scf accuracy    <       0.00000267 Ry

     iteration #  6     ecut=    25.00 Ry     beta= 0.70
     Davidson diagonalization with overlap
     ethr =  2.67E-08,  avg # of iterations =  4.0

     total cpu time spent up to now is        0.4 secs

     total energy              =     -25.24097780 Ry
     estimated scf accuracy    <       0.00000116 Ry

     iteration #  7     ecut=    25.00 Ry     beta= 0.70
     Davidson diagonalization with overlap
     ethr =  1.16E-08,  avg # of iterations =  1.0

     total cpu time spent up to now is        0.4 secs

     total energy              =     -25.24097794 Ry
     estimated scf accuracy    <       0.00000005 Ry

     iteration #  8     ecut=    25.00 Ry     beta= 0.70
     Davidson diagonalization with overlap
     ethr =  4.71E-10,  avg # of iterations =  4.0

     total cpu time spent up to now is        0.4 secs

     total energy              =     -25.24097795 Ry
     estimated scf accuracy    <       0.00000005 Ry

     iteration #  9     ecut=    25.00 Ry     beta= 0.70
     Davidson diagonalization with overlap
     ethr =  4.71E-10,  avg # of iterations =  2.0

     total cpu time spent up to now is        0.4 secs

     End of self-consistent calculation

          k = 0.0000 0.0000 0.0000 (   266 PWs)   bands (ev):

   -10.5892  -4.2521  -0.9126  -0.3328  -0.1469   3.9084   4.4053   4.8915
     4.9545

     the Fermi energy is     1.4087 ev

!    total energy              =     -25.24097795 Ry
     estimated scf accuracy    <          4.5E-10 Ry
     smearing contrib. (-TS)   =       0.00000000 Ry
     internal energy E=F+TS    =     -25.24097795 Ry

     The total energy is F=E-TS. E is the sum of the following terms:
     one-electron contribution =      -5.02993531 Ry
     hartree contribution      =       5.32806449 Ry
     xc contribution           =      -6.14309621 Ry
     ewald contribution        =     -19.39601092 Ry

     convergence has been achieved in   9 iterations

     Forces acting on atoms (cartesian axes, Ry/au):

     atom    1 type  1   force =    -0.01357295   -0.02036544    0.00510608
     atom    2 type  1   force =     0.01357295    0.02036544   -0.00510608

     Total force =     0.035357     Total SCF correction =     0.000012


     Computing stress (Cartesian axis) and pressure

          total   stress  (Ry/bohr**3)                   (kbar)     P=        0.27
   0.00013677  -0.00007498  -0.00009867           20.12      -11.03      -14.51
  -0.00007498  -0.00008681  -0.00004132          -11.03      -12.77       -6.08
  -0.00009867  -0.00004132  -0.00004448          -14.51       -6.08       -6.54

     Energy error            =      1.2E-02 Ry
     Gradient error          =      2.0E-02 Ry/Bohr
     Cell gradient error     =      2.0E+01 kbar

     number of scf cycles    =   6
     number of bfgs steps    =   5

     enthalpy           old  =     -25.2286305262 Ry
     enthalpy           new  =     -25.2409779539 Ry

     CASE: enthalpy          _new < enthalpy          _old

     new trust radius        =       0.0776146338 bohr
     new conv_thr            =       0.0000000204 Ry

     new unit-cell volume =    537.38144 a.u.^3 (    79.63171 Ang^3 )
     density =      3.12374 g/cm^3

CELL_PARAMETERS (alat=  7.01033620)
   1.302075223  -0.279927500  -0.159120807
   0.426758709   1.005563376  -0.099263242
   0.442431364   0.216624914   1.024241503

ATOMIC_POSITIONS (alat)
As            0.2732762266        0.3818517347        0.2824010461
As           -0.2732762266       -0.3818517347       -0.2824010461



     Writing config-only to output data dir ./pwscf.save/
     NEW-OLD atomic charge density approx. for the potential

     negative rho (up, down):  8.261E-05 0.000E+00
     extrapolated charge   10.16783, renormalised to   10.00000

     total cpu time spent up to now is        0.4 secs

     Self-consistent Calculation

     iteration #  1     ecut=    25.00 Ry     beta= 0.70
     Davidson diagonalization with overlap
     ethr =  1.00E-06,  avg # of iterations =  7.0

     total cpu time spent up to now is        0.4 secs

     total energy              =     -25.24276682 Ry
     estimated scf accuracy    <       0.00095645 Ry

     iteration #  2     ecut=    25.00 Ry     beta= 0.70
     Davidson diagonalization with overlap
     ethr =  9.56E-06,  avg # of iterations =  3.0

     total cpu time spent up to now is        0.4 secs

     total energy              =     -25.24404852 Ry
     estimated scf accuracy    <       0.00055007 Ry

     iteration #  3     ecut=    25.00 Ry     beta= 0.70
     Davidson diagonalization with overlap
     ethr =  5.50E-06,  avg # of iterations =  1.0

     total cpu time spent up to now is        0.4 secs

     total energy              =     -25.24402333 Ry
     estimated scf accuracy    <       0.00011257 Ry

     iteration #  4     ecut=    25.00 Ry     beta= 0.70
     Davidson diagonalization with overlap
     ethr =  1.13E-06,  avg # of iterations =  2.0

     total cpu time spent up to now is        0.4 secs

     total energy              =     -25.24403224 Ry
     estimated scf accuracy    <       0.00000614 Ry

     iteration #  5     ecut=    25.00 Ry     beta= 0.70
     Davidson diagonalization with overlap
     ethr =  6.14E-08,  avg # of iterations =  4.0

     total cpu time spent up to now is        0.4 secs

     total energy              =     -25.24403412 Ry
     estimated scf accuracy    <       0.00000020 Ry

     iteration #  6     ecut=    25.00 Ry     beta= 0.70
     Davidson diagonalization with overlap
     ethr =  1.99E-09,  avg # of iterations =  4.0

     total cpu time spent up to now is        0.5 secs

     total energy              =     -25.24403421 Ry
     estimated scf accuracy    <       0.00000004 Ry

     iteration #  7     ecut=    25.00 Ry     beta= 0.70
     Davidson diagonalization with overlap
     ethr =  3.91E-10,  avg # of iterations =  2.0

     total cpu time spent up to now is        0.5 secs

     End of self-consistent calculation

          k = 0.0000 0.0000 0.0000 (   266 PWs)   bands (ev):

   -10.7059  -4.3910  -1.0834  -0.5288  -0.2219   3.8651   4.2559   4.7944
     4.8360

     the Fermi energy is     1.2907 ev

!    total energy              =     -25.24403421 Ry
     estimated scf accuracy    <          5.4E-09 Ry
     smearing contrib. (-TS)   =       0.00000000 Ry
     internal energy E=F+TS    =     -25.24403421 Ry

     The total energy is F=E-TS. E is the sum of the following terms:
     one-electron contribution =      -5.50627102 Ry
     hartree contribution      =       5.50754320 Ry
     xc contribution           =      -6.13192831 Ry
     ewald contribution        =     -19.11337807 Ry

     convergence has been achieved in   7 iterations

     Forces acting on atoms (cartesian axes, Ry/au):

     atom    1 type  1   force =    -0.01000383   -0.02164867    0.00847625
     atom    2 type  1   force =     0.01000383    0.02164867   -0.00847625

     Total force =     0.035794     Total SCF correction =     0.000056


     Computing stress (Cartesian axis) and pressure

          total   stress  (Ry/bohr**3)                   (kbar)     P=       -8.32
   0.00005544  -0.00004916  -0.00007677            8.16       -7.23      -11.29
  -0.00004916  -0.00013512  -0.00006938           -7.23      -19.88      -10.21
  -0.00007677  -0.00006938  -0.00008992          -11.29      -10.21      -13.23

     Energy error            =      3.1E-03 Ry
     Gradient error          =      2.2E-02 Ry/Bohr
     Cell gradient error     =      2.0E+01 kbar

     number of scf cycles    =   7
     number of bfgs steps    =   6

     enthalpy           old  =     -25.2409779539 Ry
     enthalpy           new  =     -25.2440342071 Ry

     CASE: enthalpy          _new < enthalpy          _old

     new trust radius        =       0.1149708144 bohr
     new conv_thr            =       0.0000000216 Ry

     new unit-cell volume =    546.24727 a.u.^3 (    80.94549 Ang^3 )
     density =      3.07304 g/cm^3

CELL_PARAMETERS (alat=  7.01033620)
   1.332315609  -0.304855144  -0.182903549
   0.427027353   0.992531650  -0.120835948
   0.437206194   0.196118703   1.014626897

ATOMIC_POSITIONS (alat)
As            0.2669388250        0.3654268020        0.2693501859
As           -0.2669388250       -0.3654268020       -0.2693501859



     Writing config-only to output data dir ./pwscf.save/
     NEW-OLD atomic charge density approx. for the potential

     negative rho (up, down):  4.068E-04 0.000E+00
     extrapolated charge   10.16230, renormalised to   10.00000

     total cpu time spent up to now is        0.5 secs

     Self-consistent Calculation

     iteration #  1     ecut=    25.00 Ry     beta= 0.70
     Davidson diagonalization with overlap
     ethr =  1.00E-06,  avg # of iterations =  8.0

     negative rho (up, down):  1.647E-05 0.000E+00

     total cpu time spent up to now is        0.5 secs

     total energy              =     -25.24763545 Ry
     estimated scf accuracy    <       0.00176561 Ry

     iteration #  2     ecut=    25.00 Ry     beta= 0.70
     Davidson diagonalization with overlap
     ethr =  1.77E-05,  avg # of iterations =  3.0

     negative rho (up, down):  2.045E-06 0.000E+00

     total cpu time spent up to now is        0.5 secs

     total energy              =     -25.24917421 Ry
     estimated scf accuracy    <       0.00065764 Ry

     iteration #  3     ecut=    25.00 Ry     beta= 0.70
     Davidson diagonalization with overlap
     ethr =  6.58E-06,  avg # of iterations =  2.0

     total cpu time spent up to now is        0.5 secs

     total energy              =     -25.24918082 Ry
     estimated scf accuracy    <       0.00008991 Ry

     iteration #  4     ecut=    25.00 Ry     beta= 0.70
     Davidson diagonalization with overlap
     ethr =  8.99E-07,  avg # of iterations =  2.0

     total cpu time spent up to now is        0.5 secs

     total energy              =     -25.24919208 Ry
     estimated scf accuracy    <       0.00000166 Ry

     iteration #  5     ecut=    25.00 Ry     beta= 0.70
     Davidson diagonalization with overlap
     ethr =  1.66E-08,  avg # of iterations =  4.0

     total cpu time spent up to now is        0.5 secs

     total energy              =     -25.24919311 Ry
     estimated scf accuracy    <       0.00000037 Ry

     iteration #  6     ecut=    25.00 Ry     beta= 0.70
     Davidson diagonalization with overlap
     ethr =  3.68E-09,  avg # of iterations =  1.0

     total cpu time spent up to now is        0.5 secs

     total energy              =     -25.24919311 Ry
     estimated scf accuracy    <       0.00000010 Ry

     iteration #  7     ecut=    25.00 Ry     beta= 0.70
     Davidson diagonalization with overlap
     ethr =  9.78E-10,  avg # of iterations =  2.0

     total cpu time spent up to now is        0.5 secs

     End of self-consistent calculation

          k = 0.0000 0.0000 0.0000 (   266 PWs)   bands (ev):

   -10.8659  -4.5249  -1.2345  -0.7783  -0.3511   3.9078   4.0936   4.6237
     4.9144

     the Fermi energy is     1.3095 ev

!    total energy              =     -25.24919312 Ry
     estimated scf accuracy    <          5.5E-09 Ry
     smearing contrib. (-TS)   =       0.00000000 Ry
     internal energy E=F+TS    =     -25.24919312 Ry

     The total energy is F=E-TS. E is the sum of the following terms:
     one-electron contribution =      -6.16880034 Ry
     hartree contribution      =       5.76989902 Ry
     xc contribution           =      -6.11925606 Ry
     ewald contribution        =     -18.73103574 Ry

     convergence has been achieved in   7 iterations

     Forces acting on atoms (cartesian axes, Ry/au):

     atom    1 type  1   force =    -0.00965848   -0.02167153    0.00467975
     atom    2 type  1   force =     0.00965848    0.02167153   -0.00467975

     Total force =     0.034201     Total SCF correction =     0.000039


     Computing stress (Cartesian axis) and pressure

          total   stress  (Ry/bohr**3)                   (kbar)     P=      -18.11
  -0.00005383  -0.00001999  -0.00004590           -7.92       -2.94       -6.75
  -0.00001999  -0.00018259  -0.00009656           -2.94      -26.86      -14.20
  -0.00004590  -0.00009656  -0.00013296           -6.75      -14.20      -19.56

     Energy error            =      5.2E-03 Ry
     Gradient error          =      2.2E-02 Ry/Bohr
     Cell gradient error     =      2.7E+01 kbar

     number of scf cycles    =   8
     number of bfgs steps    =   7

     enthalpy           old  =     -25.2440342071 Ry
     enthalpy           new  =     -25.2491931172 Ry

     CASE: enthalpy          _new < enthalpy          _old

     new trust radius        =       0.1695672280 bohr
     new conv_thr            =       0.0000000217 Ry

     new unit-cell volume =    550.88259 a.u.^3 (    81.63238 Ang^3 )
     density =      3.04718 g/cm^3

CELL_PARAMETERS (alat=  7.01033620)
   1.367499484  -0.336081560  -0.215282072
   0.426971291   0.972140560  -0.154337020
   0.428467652   0.164563511   0.996318476

ATOMIC_POSITIONS (alat)
As            0.2576191305        0.3399685486        0.2487731936
As           -0.2576191305       -0.3399685486       -0.2487731936



     Writing config-only to output data dir ./pwscf.save/
     NEW-OLD atomic charge density approx. for the potential

     negative rho (up, down):  8.933E-04 0.000E+00
     extrapolated charge   10.08414, renormalised to   10.00000

     total cpu time spent up to now is        0.5 secs

     Self-consistent Calculation

     iteration #  1     ecut=    25.00 Ry     beta= 0.70
     Davidson diagonalization with overlap
     ethr =  1.00E-06,  avg # of iterations =  9.0

     negative rho (up, down):  6.123E-05 0.000E+00

     total cpu time spent up to now is        0.5 secs

     total energy              =     -25.25551784 Ry
     estimated scf accuracy    <       0.00199936 Ry

     iteration #  2     ecut=    25.00 Ry     beta= 0.70
     Davidson diagonalization with overlap
     ethr =  2.00E-05,  avg # of iterations =  2.0

     negative rho (up, down):  1.202E-05 0.000E+00

     total cpu time spent up to now is        0.5 secs

     total energy              =     -25.25634049 Ry
     estimated scf accuracy    <       0.00033900 Ry

     iteration #  3     ecut=    25.00 Ry     beta= 0.70
     Davidson diagonalization with overlap
     ethr =  3.39E-06,  avg # of iterations =  2.0

     total cpu time spent up to now is        0.5 secs

     total energy              =     -25.25638094 Ry
     estimated scf accuracy    <       0.00002205 Ry

     iteration #  4     ecut=    25.00 Ry     beta= 0.70
     Davidson diagonalization with overlap
     ethr =  2.20E-07,  avg # of iterations =  3.0

     total cpu time spent up to now is        0.5 secs

     total energy              =     -25.25638801 Ry
     estimated scf accuracy    <       0.00000056 Ry

     iteration #  5     ecut=    25.00 Ry     beta= 0.70
     Davidson diagonalization with overlap
     ethr =  5.63E-09,  avg # of iterations =  2.0

     total cpu time spent up to now is        0.5 secs

     total energy              =     -25.25638807 Ry
     estimated scf accuracy    <       0.00000006 Ry

     iteration #  6     ecut=    25.00 Ry     beta= 0.70
     Davidson diagonalization with overlap
     ethr =  6.37E-10,  avg # of iterations =  2.0

     total cpu time spent up to now is        0.5 secs

     total energy              =     -25.25638808 Ry
     estimated scf accuracy    <       0.00000004 Ry

     iteration #  7     ecut=    25.00 Ry     beta= 0.70
     Davidson diagonalization with overlap
     ethr =  4.24E-10,  avg # of iterations =  1.0

     total cpu time spent up to now is        0.5 secs

     End of self-consistent calculation

          k = 0.0000 0.0000 0.0000 (   266 PWs)   bands (ev):

   -11.0316  -4.5790  -1.2981  -1.0211  -0.5098   3.9899   4.0813   4.4945
     5.2737

     the Fermi energy is     1.5375 ev

!    total energy              =     -25.25638809 Ry
     estimated scf accuracy    <          7.4E-10 Ry
     smearing contrib. (-TS)   =       0.00000000 Ry
     internal energy E=F+TS    =     -25.25638809 Ry

     The total energy is F=E-TS. E is the sum of the following terms:
     one-electron contribution =      -6.94650504 Ry
     hartree contribution      =       6.10268708 Ry
     xc contribution           =      -6.11030514 Ry
     ewald contribution        =     -18.30226498 Ry

     convergence has been achieved in   7 iterations

     Forces acting on atoms (cartesian axes, Ry/au):

     atom    1 type  1   force =    -0.01503158   -0.02472358   -0.00581367
     atom    2 type  1   force =     0.01503158    0.02472358    0.00581367

     Total force =     0.041737     Total SCF correction =     0.000029


     Computing stress (Cartesian axis) and pressure

          total   stress  (Ry/bohr**3)                   (kbar)     P=      -26.07
  -0.00016012   0.00001741  -0.00000414          -23.55        2.56       -0.61
   0.00001741  -0.00021044  -0.00009732            2.56      -30.96      -14.32
  -0.00000414  -0.00009732  -0.00016118           -0.61      -14.32      -23.71

     Energy error            =      7.2E-03 Ry
     Gradient error          =      2.5E-02 Ry/Bohr
     Cell gradient error     =      3.1E+01 kbar

     number of scf cycles    =   9
     number of bfgs steps    =   8

     enthalpy           old  =     -25.2491931172 Ry
     enthalpy           new  =     -25.2563880886 Ry

     CASE: enthalpy          _new < enthalpy          _old

     new trust radius        =       0.2584683687 bohr
     new conv_thr            =       0.0000000247 Ry

     new unit-cell volume =    551.01747 a.u.^3 (    81.65237 Ang^3 )
     density =      3.04644 g/cm^3

CELL_PARAMETERS (alat=  7.01033620)
   1.415017805  -0.380059843  -0.262133312
   0.426298768   0.940768413  -0.204682793
   0.414637525   0.116987489   0.967070333

ATOMIC_POSITIONS (alat)
As            0.2429165976        0.3020895495        0.2176326215
As           -0.2429165976       -0.3020895495       -0.2176326215



     Writing config-only to output data dir ./pwscf.save/
     NEW-OLD atomic charge density approx. for the potential

     negative rho (up, down):  2.172E-03 0.000E+00
     extrapolated charge   10.00245, renormalised to   10.00000

     total cpu time spent up to now is        0.6 secs

     Self-consistent Calculation

     iteration #  1     ecut=    25.00 Ry     beta= 0.70
     Davidson diagonalization with overlap
     ethr =  1.00E-06,  avg # of iterations =  9.0

     negative rho (up, down):  2.359E-04 0.000E+00

     total cpu time spent up to now is        0.6 secs

     total energy              =     -25.26527605 Ry
     estimated scf accuracy    <       0.00254779 Ry

     iteration #  2     ecut=    25.00 Ry     beta= 0.70
     Davidson diagonalization with overlap
     ethr =  2.55E-05,  avg # of iterations =  2.0

     negative rho (up, down):  3.515E-05 0.000E+00

     total cpu time spent up to now is        0.6 secs

     total energy              =     -25.26570929 Ry
     estimated scf accuracy    <       0.00023799 Ry

     iteration #  3     ecut=    25.00 Ry     beta= 0.70
     Davidson diagonalization with overlap
     ethr =  2.38E-06,  avg # of iterations =  2.0

     negative rho (up, down):  3.197E-07 0.000E+00

     total cpu time spent up to now is        0.6 secs

     total energy              =     -25.26575901 Ry
     estimated scf accuracy    <       0.00000877 Ry

     iteration #  4     ecut=    25.00 Ry     beta= 0.70
     Davidson diagonalization with overlap
     ethr =  8.77E-08,  avg # of iterations =  2.0

     total cpu time spent up to now is        0.6 secs

     total energy              =     -25.26576065 Ry
     estimated scf accuracy    <       0.00000033 Ry

     iteration #  5     ecut=    25.00 Ry     beta= 0.70
     Davidson diagonalization with overlap
     ethr =  3.33E-09,  avg # of iterations =  4.0

     total cpu time spent up to now is        0.6 secs

     End of self-consistent calculation

          k = 0.0000 0.0000 0.0000 (   266 PWs)   bands (ev):

   -11.2129  -4.4767  -1.2796  -1.1771  -0.8022   3.9860   4.3950   4.4498
     6.1994

     the Fermi energy is     2.1864 ev

!    total energy              =     -25.26576079 Ry
     estimated scf accuracy    <       0.00000002 Ry
     smearing contrib. (-TS)   =       0.00000000 Ry
     internal energy E=F+TS    =     -25.26576079 Ry

     The total energy is F=E-TS. E is the sum of the following terms:
     one-electron contribution =      -8.12791373 Ry
     hartree contribution      =       6.65687212 Ry
     xc contribution           =      -6.11166996 Ry
     ewald contribution        =     -17.68304923 Ry

     convergence has been achieved in   5 iterations

     Forces acting on atoms (cartesian axes, Ry/au):

     atom    1 type  1   force =    -0.02939031   -0.03500536   -0.02382463
     atom    2 type  1   force =     0.02939031    0.03500536    0.02382463

     Total force =     0.072894     Total SCF correction =     0.000116


     Computing stress (Cartesian axis) and pressure

          total   stress  (Ry/bohr**3)                   (kbar)     P=      -29.60
  -0.00023222   0.00012397   0.00009252          -34.16       18.24       13.61
   0.00012397  -0.00018073   0.00000514           18.24      -26.59        0.76
   0.00009252   0.00000514  -0.00019063           13.61        0.76      -28.04

     Energy error            =      9.4E-03 Ry
     Gradient error          =      3.5E-02 Ry/Bohr
     Cell gradient error     =      3.4E+01 kbar

     number of scf cycles    =  10
     number of bfgs steps    =   9

     enthalpy           old  =     -25.2563880886 Ry
     enthalpy           new  =     -25.2657607921 Ry

     CASE: enthalpy          _new < enthalpy          _old

     new trust radius        =       0.3993471333 bohr
     new conv_thr            =       0.0000000350 Ry

     new unit-cell volume =    541.53608 a.u.^3 (    80.24737 Ang^3 )
     density =      3.09977 g/cm^3

CELL_PARAMETERS (alat=  7.01033620)
   1.482133789  -0.434298514  -0.328350296
   0.433530375   0.896285361  -0.278771658
   0.399017524   0.050078904   0.918145645

ATOMIC_POSITIONS (alat)
As            0.2214460493        0.2465555306        0.1720684488
As           -0.2214460493       -0.2465555306       -0.1720684488



     Writing config-only to output data dir ./pwscf.save/
     NEW-OLD atomic charge density approx. for the potential

     negative rho (up, down):  4.366E-03 0.000E+00
     extrapolated charge    9.82492, renormalised to   10.00000

     total cpu time spent up to now is        0.6 secs

     Self-consistent Calculation

     iteration #  1     ecut=    25.00 Ry     beta= 0.70
     Davidson diagonalization with overlap
     ethr =  1.00E-06,  avg # of iterations = 10.0

     negative rho (up, down):  5.806E-04 0.000E+00

     total cpu time spent up to now is        0.6 secs

     total energy              =     -25.25965270 Ry
     estimated scf accuracy    <       0.00314514 Ry

     iteration #  2     ecut=    25.00 Ry     beta= 0.70
     Davidson diagonalization with overlap
     ethr =  3.15E-05,  avg # of iterations =  2.0

     negative rho (up, down):  8.721E-05 0.000E+00

     total cpu time spent up to now is        0.6 secs

     total energy              =     -25.26074464 Ry
     estimated scf accuracy    <       0.00069300 Ry

     iteration #  3     ecut=    25.00 Ry     beta= 0.70
     Davidson diagonalization with overlap
     ethr =  6.93E-06,  avg # of iterations =  1.0

     negative rho (up, down):  2.692E-08 0.000E+00

     total cpu time spent up to now is        0.6 secs

     total energy              =     -25.26078815 Ry
     estimated scf accuracy    <       0.00004054 Ry

     iteration #  4     ecut=    25.00 Ry     beta= 0.70
     Davidson diagonalization with overlap
     ethr =  4.05E-07,  avg # of iterations = 12.0

     total cpu time spent up to now is        0.6 secs

     total energy              =     -25.26079393 Ry
     estimated scf accuracy    <       0.00000347 Ry

     iteration #  5     ecut=    25.00 Ry     beta= 0.70
     Davidson diagonalization with overlap
     ethr =  3.47E-08,  avg # of iterations =  1.0

     total cpu time spent up to now is        0.6 secs

     total energy              =     -25.26079401 Ry
     estimated scf accuracy    <       0.00000034 Ry

     iteration #  6     ecut=    25.00 Ry     beta= 0.70
     Davidson diagonalization with overlap
     ethr =  3.40E-09,  avg # of iterations =  2.0

     total cpu time spent up to now is        0.6 secs

     End of self-consistent calculation

          k = 0.0000 0.0000 0.0000 (   266 PWs)   bands (ev):

   -11.3775  -3.9018  -1.5113  -1.4662  -0.5201   4.2824   4.3811   5.4064
     7.4675

     the Fermi energy is     3.0964 ev

!    total energy              =     -25.26079410 Ry
     estimated scf accuracy    <       0.00000002 Ry
     smearing contrib. (-TS)   =       0.00000000 Ry
     internal energy E=F+TS    =     -25.26079410 Ry

     The total energy is F=E-TS. E is the sum of the following terms:
     one-electron contribution =     -10.04878100 Ry
     hartree contribution      =       7.65782345 Ry
     xc contribution           =      -6.15478148 Ry
     ewald contribution        =     -16.71505507 Ry

     convergence has been achieved in   6 iterations

     Forces acting on atoms (cartesian axes, Ry/au):

     atom    1 type  1   force =    -0.03485777   -0.02913652   -0.03066785
     atom    2 type  1   force =     0.03485777    0.02913652    0.03066785

     Total force =     0.077518     Total SCF correction =     0.000071


     Computing stress (Cartesian axis) and pressure

          total   stress  (Ry/bohr**3)                   (kbar)     P=       -6.35
  -0.00005544   0.00051776   0.00037842           -8.16       76.17       55.67
   0.00051776   0.00012175   0.00039070           76.17       17.91       57.47
   0.00037842   0.00039070  -0.00019590           55.67       57.47      -28.82

     Energy error            =      5.0E-03 Ry
     Gradient error          =      3.5E-02 Ry/Bohr
     Cell gradient error     =      7.6E+01 kbar

     number of scf cycles    =  11
     number of bfgs steps    =  10

     enthalpy           old  =     -25.2657607921 Ry
     enthalpy           new  =     -25.2607941035 Ry

     CASE: enthalpy          _new > enthalpy          _old

     new trust radius        =       0.1582531286 bohr
     new conv_thr            =       0.0000000350 Ry

     new unit-cell volume =    548.28199 a.u.^3 (    81.24701 Ang^3 )
     density =      3.06164 g/cm^3

CELL_PARAMETERS (alat=  7.01033620)
   1.440338715  -0.400522517  -0.287115056
   0.429027043   0.923986250  -0.232634369
   0.408744553   0.091744824   0.948612470

ATOMIC_POSITIONS (alat)
As            0.2347957744        0.2805684906        0.1997753714
As           -0.2347957744       -0.2805684906       -0.1997753714



     Writing config-only to output data dir ./pwscf.save/
     NEW-OLD atomic charge density approx. for the potential
     extrapolated charge   10.12303, renormalised to   10.00000

     total cpu time spent up to now is        0.6 secs

     Self-consistent Calculation

     iteration #  1     ecut=    25.00 Ry     beta= 0.70
     Davidson diagonalization with overlap
     ethr =  1.00E-06,  avg # of iterations = 14.0

     total cpu time spent up to now is        0.7 secs

     total energy              =     -25.26916599 Ry
     estimated scf accuracy    <       0.00146533 Ry

     iteration #  2     ecut=    25.00 Ry     beta= 0.70
     Davidson diagonalization with overlap
     ethr =  1.47E-05,  avg # of iterations =  2.0

     total cpu time spent up to now is        0.7 secs

     total energy              =     -25.26974020 Ry
     estimated scf accuracy    <       0.00032241 Ry

     iteration #  3     ecut=    25.00 Ry     beta= 0.70
     Davidson diagonalization with overlap
     ethr =  3.22E-06,  avg # of iterations =  1.0

     total cpu time spent up to now is        0.7 secs

     total energy              =     -25.26975683 Ry
     estimated scf accuracy    <       0.00002243 Ry

     iteration #  4     ecut=    25.00 Ry     beta= 0.70
     Davidson diagonalization with overlap
     ethr =  2.24E-07,  avg # of iterations =  2.0

     total cpu time spent up to now is        0.7 secs

     total energy              =     -25.26976001 Ry
     estimated scf accuracy    <       0.00000140 Ry

     iteration #  5     ecut=    25.00 Ry     beta= 0.70
     Davidson diagonalization with overlap
     ethr =  1.40E-08,  avg # of iterations =  2.0

     total cpu time spent up to now is        0.7 secs

     total energy              =     -25.26976010 Ry
     estimated scf accuracy    <       0.00000028 Ry

     iteration #  6     ecut=    25.00 Ry     beta= 0.70
     Davidson diagonalization with overlap
     ethr =  2.77E-09,  avg # of iterations =  2.0

     total cpu time spent up to now is        0.7 secs

     End of self-consistent calculation

          k = 0.0000 0.0000 0.0000 (   266 PWs)   bands (ev):

   -11.2623  -4.3300  -1.3681  -1.0776  -0.9179   4.0549   4.3761   4.7985
     6.8373

     the Fermi energy is     2.6525 ev

!    total energy              =     -25.26976016 Ry
     estimated scf accuracy    <          6.9E-09 Ry
     smearing contrib. (-TS)   =       0.00000000 Ry
     internal energy E=F+TS    =     -25.26976016 Ry

     The total energy is F=E-TS. E is the sum of the following terms:
     one-electron contribution =      -8.77240163 Ry
     hartree contribution      =       6.98369743 Ry
     xc contribution           =      -6.11972050 Ry
     ewald contribution        =     -17.36133547 Ry

     convergence has been achieved in   6 iterations

     Forces acting on atoms (cartesian axes, Ry/au):

     atom    1 type  1   force =    -0.03391817   -0.03494247   -0.03002584
     atom    2 type  1   force =     0.03391817    0.03494247    0.03002584

     Total force =     0.080907     Total SCF correction =     0.000022


     Computing stress (Cartesian axis) and pressure

          total   stress  (Ry/bohr**3)                   (kbar)     P=      -26.92
  -0.00022828   0.00020746   0.00016155          -33.58       30.52       23.76
   0.00020746  -0.00012566   0.00009464           30.52      -18.49       13.92
   0.00016155   0.00009464  -0.00019510           23.76       13.92      -28.70

     Energy error            =      4.0E-03 Ry
     Gradient error          =      3.5E-02 Ry/Bohr
     Cell gradient error     =      3.4E+01 kbar

     number of scf cycles    =  12
     number of bfgs steps    =  10

     enthalpy           old  =     -25.2657607921 Ry
     enthalpy           new  =     -25.2697601618 Ry

     CASE: enthalpy          _new < enthalpy          _old

     new trust radius        =       0.1328121194 bohr
     new conv_thr            =       0.0000000349 Ry

     new unit-cell volume =    541.05524 a.u.^3 (    80.17612 Ang^3 )
     density =      3.10253 g/cm^3

CELL_PARAMETERS (alat=  7.01033620)
   1.454059824  -0.400498196  -0.301176504
   0.442506147   0.914484497  -0.253539025
   0.411451273   0.077462853   0.927123446

ATOMIC_POSITIONS (alat)
As            0.2298421924        0.2621275116        0.1844028097
As           -0.2298421924       -0.2621275116       -0.1844028097



     Writing config-only to output data dir ./pwscf.save/
     NEW-OLD atomic charge density approx. for the potential

     negative rho (up, down):  9.399E-05 0.000E+00
     extrapolated charge    9.86644, renormalised to   10.00000

     total cpu time spent up to now is        0.7 secs

     Self-consistent Calculation

     iteration #  1     ecut=    25.00 Ry     beta= 0.70
     Davidson diagonalization with overlap
     ethr =  1.00E-06,  avg # of iterations =  8.0

     negative rho (up, down):  9.219E-07 0.000E+00

     total cpu time spent up to now is        0.7 secs

     total energy              =     -25.27646924 Ry
     estimated scf accuracy    <       0.00095496 Ry

     iteration #  2     ecut=    25.00 Ry     beta= 0.70
     Davidson diagonalization with overlap
     ethr =  9.55E-06,  avg # of iterations =  3.0

     total cpu time spent up to now is        0.7 secs

     total energy              =     -25.27716166 Ry
     estimated scf accuracy    <       0.00035684 Ry

     iteration #  3     ecut=    25.00 Ry     beta= 0.70
     Davidson diagonalization with overlap
     ethr =  3.57E-06,  avg # of iterations =  1.0

     total cpu time spent up to now is        0.7 secs

     total energy              =     -25.27715848 Ry
     estimated scf accuracy    <       0.00004974 Ry

     iteration #  4     ecut=    25.00 Ry     beta= 0.70
     Davidson diagonalization with overlap
     ethr =  4.97E-07,  avg # of iterations =  2.0

     total cpu time spent up to now is        0.7 secs

     total energy              =     -25.27716817 Ry
     estimated scf accuracy    <       0.00000237 Ry

     iteration #  5     ecut=    25.00 Ry     beta= 0.70
     Davidson diagonalization with overlap
     ethr =  2.37E-08,  avg # of iterations =  2.0

     total cpu time spent up to now is        0.7 secs

     total energy              =     -25.27716836 Ry
     estimated scf accuracy    <       0.00000046 Ry

     iteration #  6     ecut=    25.00 Ry     beta= 0.70
     Davidson diagonalization with overlap
     ethr =  4.59E-09,  avg # of iterations =  2.0

     total cpu time spent up to now is        0.7 secs

     total energy              =     -25.27716837 Ry
     estimated scf accuracy    <       0.00000008 Ry

     iteration #  7     ecut=    25.00 Ry     beta= 0.70
     Davidson diagonalization with overlap
     ethr =  8.44E-10,  avg # of iterations =  2.0

     total cpu time spent up to now is        0.7 secs

     total energy              =     -25.27716839 Ry
     estimated scf accuracy    <       0.00000004 Ry

     iteration #  8     ecut=    25.00 Ry     beta= 0.70
     Davidson diagonalization with overlap
     ethr =  3.95E-10,  avg # of iterations =  2.0

     total cpu time spent up to now is        0.7 secs

     End of self-consistent calculation

          k = 0.0000 0.0000 0.0000 (   266 PWs)   bands (ev):

   -11.1796  -4.1869  -1.3178  -1.1656  -0.6688   4.1601   4.4303   5.3883
     7.1869

     the Fermi energy is     2.9354 ev

!    total energy              =     -25.27716840 Ry
     estimated scf accuracy    <          1.3E-10 Ry
     smearing contrib. (-TS)   =       0.00000000 Ry
     internal energy E=F+TS    =     -25.27716840 Ry

     The total energy is F=E-TS. E is the sum of the following terms:
     one-electron contribution =      -8.82943596 Ry
     hartree contribution      =       7.04799259 Ry
     xc contribution           =      -6.12523341 Ry
     ewald contribution        =     -17.37049163 Ry

     convergence has been achieved in   8 iterations

     Forces acting on atoms (cartesian axes, Ry/au):

     atom    1 type  1   force =    -0.02353632   -0.01754674   -0.02789046
     atom    2 type  1   force =     0.02353632    0.01754674    0.02789046

     Total force =     0.057266     Total SCF correction =     0.000006


     Computing stress (Cartesian axis) and pressure

          total   stress  (Ry/bohr**3)                   (kbar)     P=      -25.38
  -0.00024632   0.00019362   0.00016154          -36.24       28.48       23.76
   0.00019362  -0.00010887   0.00007926           28.48      -16.02       11.66
   0.00016154   0.00007926  -0.00016249           23.76       11.66      -23.90

     Energy error            =      7.4E-03 Ry
     Gradient error          =      2.8E-02 Ry/Bohr
     Cell gradient error     =      3.6E+01 kbar

     number of scf cycles    =  13
     number of bfgs steps    =  11

     enthalpy           old  =     -25.2697601618 Ry
     enthalpy           new  =     -25.2771683968 Ry

     CASE: enthalpy          _new < enthalpy          _old

     new trust radius        =       0.1356692545 bohr
     new conv_thr            =       0.0000000279 Ry

     new unit-cell volume =    523.02556 a.u.^3 (    77.50439 Ang^3 )
     density =      3.20948 g/cm^3

CELL_PARAMETERS (alat=  7.01033620)
   1.438193214  -0.369177721  -0.293599360
   0.464120082   0.914446826  -0.258891133
   0.422817473   0.080930445   0.904871233

ATOMIC_POSITIONS (alat)
As            0.2290821255        0.2521214397        0.1742894666
As           -0.2290821255       -0.2521214397       -0.1742894666



     Writing config-only to output data dir ./pwscf.save/
     NEW-OLD atomic charge density approx. for the potential
     extrapolated charge    9.65529, renormalised to   10.00000

     total cpu time spent up to now is        0.7 secs

     Self-consistent Calculation

     iteration #  1     ecut=    25.00 Ry     beta= 0.70
     Davidson diagonalization with overlap
     ethr =  1.00E-06,  avg # of iterations =  9.0

     total cpu time spent up to now is        0.8 secs

     total energy              =     -25.28133680 Ry
     estimated scf accuracy    <       0.00358690 Ry

     iteration #  2     ecut=    25.00 Ry     beta= 0.70
     Davidson diagonalization with overlap
     ethr =  3.59E-05,  avg # of iterations =  3.0

     total cpu time spent up to now is        0.8 secs

     total energy              =     -25.28611146 Ry
     estimated scf accuracy    <       0.00172975 Ry

     iteration #  3     ecut=    25.00 Ry     beta= 0.70
     Davidson diagonalization with overlap
     ethr =  1.73E-05,  avg # of iterations =  1.0

     total cpu time spent up to now is        0.8 secs

     total energy              =     -25.28597666 Ry
     estimated scf accuracy    <       0.00036225 Ry

     iteration #  4     ecut=    25.00 Ry     beta= 0.70
     Davidson diagonalization with overlap
     ethr =  3.62E-06,  avg # of iterations =  2.0

     total cpu time spent up to now is        0.8 secs

     total energy              =     -25.28604896 Ry
     estimated scf accuracy    <       0.00000862 Ry

     iteration #  5     ecut=    25.00 Ry     beta= 0.70
     Davidson diagonalization with overlap
     ethr =  8.62E-08,  avg # of iterations =  2.0

     total cpu time spent up to now is        0.8 secs

     total energy              =     -25.28604984 Ry
     estimated scf accuracy    <       0.00000239 Ry

     iteration #  6     ecut=    25.00 Ry     beta= 0.70
     Davidson diagonalization with overlap
     ethr =  2.39E-08,  avg # of iterations =  2.0

     total cpu time spent up to now is        0.8 secs

     total energy              =     -25.28605006 Ry
     estimated scf accuracy    <       0.00000015 Ry

     iteration #  7     ecut=    25.00 Ry     beta= 0.70
     Davidson diagonalization with overlap
     ethr =  1.54E-09,  avg # of iterations =  4.0

     total cpu time spent up to now is        0.8 secs

     End of self-consistent calculation

          k = 0.0000 0.0000 0.0000 (   266 PWs)   bands (ev):

   -10.9389  -3.9987  -1.1416  -1.0340  -0.1501   4.3744   4.6444   6.0154
     7.2266

     the Fermi energy is     3.0254 ev

!    total energy              =     -25.28605010 Ry
     estimated scf accuracy    <       0.00000001 Ry
     smearing contrib. (-TS)   =       0.00000000 Ry
     internal energy E=F+TS    =     -25.28605010 Ry

     The total energy is F=E-TS. E is the sum of the following terms:
     one-electron contribution =      -7.78430355 Ry
     hartree contribution      =       6.62265759 Ry
     xc contribution           =      -6.13303979 Ry
     ewald contribution        =     -17.99136436 Ry

     convergence has been achieved in   7 iterations

     Forces acting on atoms (cartesian axes, Ry/au):

     atom    1 type  1   force =    -0.00712887    0.00341824   -0.02532340
     atom    2 type  1   force =     0.00712887   -0.00341824    0.02532340

     Total force =     0.037517     Total SCF correction =     0.000107


     Computing stress (Cartesian axis) and pressure

          total   stress  (Ry/bohr**3)                   (kbar)     P=      -21.34
  -0.00030660   0.00001489   0.00004890          -45.10        2.19        7.19
   0.00001489  -0.00011185  -0.00010594            2.19      -16.45      -15.58
   0.00004890  -0.00010594  -0.00001679            7.19      -15.58       -2.47

     Energy error            =      8.9E-03 Ry
     Gradient error          =      2.5E-02 Ry/Bohr
     Cell gradient error     =      4.5E+01 kbar

     number of scf cycles    =  14
     number of bfgs steps    =  12

     enthalpy           old  =     -25.2771683968 Ry
     enthalpy           new  =     -25.2860501041 Ry

     CASE: enthalpy          _new < enthalpy          _old

     new trust radius        =       0.1126307304 bohr
     new conv_thr            =       0.0000000253 Ry

     new unit-cell volume =    502.47535 a.u.^3 (    74.45917 Ang^3 )
     density =      3.34074 g/cm^3

CELL_PARAMETERS (alat=  7.01033620)
   1.426365484  -0.358530724  -0.296051380
   0.470341445   0.902456438  -0.272606808
   0.421020246   0.069601122   0.884330528

ATOMIC_POSITIONS (alat)
As            0.2210255427        0.2373837973        0.1586804329
As           -0.2210255427       -0.2373837973       -0.1586804329



     Writing config-only to output data dir ./pwscf.save/
     NEW-OLD atomic charge density approx. for the potential
     extrapolated charge    9.59104, renormalised to   10.00000

     total cpu time spent up to now is        0.8 secs

     Self-consistent Calculation

     iteration #  1     ecut=    25.00 Ry     beta= 0.70
     Davidson diagonalization with overlap
     ethr =  1.00E-06,  avg # of iterations = 13.0

     total cpu time spent up to now is        0.8 secs

     total energy              =     -25.28324103 Ry
     estimated scf accuracy    <       0.00407835 Ry

     iteration #  2     ecut=    25.00 Ry     beta= 0.70
     Davidson diagonalization with overlap
     ethr =  4.08E-05,  avg # of iterations =  3.0

     total cpu time spent up to now is        0.8 secs

     total energy              =     -25.28958761 Ry
     estimated scf accuracy    <       0.00214579 Ry

     iteration #  3     ecut=    25.00 Ry     beta= 0.70
     Davidson diagonalization with overlap
     ethr =  2.15E-05,  avg # of iterations =  1.0

     total cpu time spent up to now is        0.8 secs

     total energy              =     -25.28937195 Ry
     estimated scf accuracy    <       0.00049135 Ry

     iteration #  4     ecut=    25.00 Ry     beta= 0.70
     Davidson diagonalization with overlap
     ethr =  4.91E-06,  avg # of iterations =  2.0

     total cpu time spent up to now is        0.8 secs

     total energy              =     -25.28946612 Ry
     estimated scf accuracy    <       0.00000738 Ry

     iteration #  5     ecut=    25.00 Ry     beta= 0.70
     Davidson diagonalization with overlap
     ethr =  7.38E-08,  avg # of iterations =  3.0

     total cpu time spent up to now is        0.8 secs

     total energy              =     -25.28946661 Ry
     estimated scf accuracy    <       0.00000405 Ry

     iteration #  6     ecut=    25.00 Ry     beta= 0.70
     Davidson diagonalization with overlap
     ethr =  4.05E-08,  avg # of iterations =  2.0

     total cpu time spent up to now is        0.8 secs

     total energy              =     -25.28946728 Ry
     estimated scf accuracy    <       0.00000003 Ry

     iteration #  7     ecut=    25.00 Ry     beta= 0.70
     Davidson diagonalization with overlap
     ethr =  3.42E-10,  avg # of iterations =  4.0

     total cpu time spent up to now is        0.8 secs

     total energy              =     -25.28946727 Ry
     estimated scf accuracy    <       0.00000012 Ry

     iteration #  8     ecut=    25.00 Ry     beta= 0.70
     Davidson diagonalization with overlap
     ethr =  3.42E-10,  avg # of iterations =  2.0

     total cpu time spent up to now is        0.8 secs

     End of self-consistent calculation

          k = 0.0000 0.0000 0.0000 (   266 PWs)   bands (ev):

   -10.8202  -3.5568  -0.9300  -0.8340   0.1584   4.7562   4.8602   6.5177
     7.8443

     the Fermi energy is     3.5183 ev

!    total energy              =     -25.28946728 Ry
     estimated scf accuracy    <          1.6E-09 Ry
     smearing contrib. (-TS)   =       0.00000000 Ry
     internal energy E=F+TS    =     -25.28946728 Ry

     The total energy is F=E-TS. E is the sum of the following terms:
     one-electron contribution =      -7.30560325 Ry
     hartree contribution      =       6.50068831 Ry
     xc contribution           =      -6.16818987 Ry
     ewald contribution        =     -18.31636248 Ry

     convergence has been achieved in   8 iterations

     Forces acting on atoms (cartesian axes, Ry/au):

     atom    1 type  1   force =     0.00156217    0.00946270   -0.01490561
     atom    2 type  1   force =    -0.00156217   -0.00946270    0.01490561

     Total force =     0.025066     Total SCF correction =     0.000034


     Computing stress (Cartesian axis) and pressure

          total   stress  (Ry/bohr**3)                   (kbar)     P=       -1.49
  -0.00018875   0.00008889   0.00008626          -27.77       13.08       12.69
   0.00008889   0.00007989  -0.00004840           13.08       11.75       -7.12
   0.00008626  -0.00004840   0.00007852           12.69       -7.12       11.55

     Energy error            =      3.4E-03 Ry
     Gradient error          =      1.5E-02 Ry/Bohr
     Cell gradient error     =      2.8E+01 kbar

     number of scf cycles    =  15
     number of bfgs steps    =  13

     enthalpy           old  =     -25.2860501041 Ry
     enthalpy           new  =     -25.2894672790 Ry

     CASE: enthalpy          _new < enthalpy          _old

     new trust radius        =       0.1003202528 bohr
     new conv_thr            =       0.0000000149 Ry

     new unit-cell volume =    490.77875 a.u.^3 (    72.72591 Ang^3 )
     density =      3.42036 g/cm^3

CELL_PARAMETERS (alat=  7.01033620)
   1.393432769  -0.338001484  -0.277516354
   0.466238968   0.907341627  -0.260649122
   0.419971994   0.079727710   0.888335230

ATOMIC_POSITIONS (alat)
As            0.2215077394        0.2430626614        0.1601059093
As           -0.2215077394       -0.2430626614       -0.1601059093



     Writing config-only to output data dir ./pwscf.save/
     NEW-OLD atomic charge density approx. for the potential
     extrapolated charge    9.76168, renormalised to   10.00000

     total cpu time spent up to now is        0.8 secs

     Self-consistent Calculation

     iteration #  1     ecut=    25.00 Ry     beta= 0.70
     Davidson diagonalization with overlap
     ethr =  1.00E-06,  avg # of iterations =  9.0

     total cpu time spent up to now is        0.9 secs

     total energy              =     -25.28996525 Ry
     estimated scf accuracy    <       0.00127830 Ry

     iteration #  2     ecut=    25.00 Ry     beta= 0.70
     Davidson diagonalization with overlap
     ethr =  1.28E-05,  avg # of iterations =  3.0

     total cpu time spent up to now is        0.9 secs

     total energy              =     -25.29205821 Ry
     estimated scf accuracy    <       0.00070451 Ry

     iteration #  3     ecut=    25.00 Ry     beta= 0.70
     Davidson diagonalization with overlap
     ethr =  7.05E-06,  avg # of iterations =  1.0

     total cpu time spent up to now is        0.9 secs

     total energy              =     -25.29199320 Ry
     estimated scf accuracy    <       0.00016240 Ry

     iteration #  4     ecut=    25.00 Ry     beta= 0.70
     Davidson diagonalization with overlap
     ethr =  1.62E-06,  avg # of iterations =  2.0

     total cpu time spent up to now is        0.9 secs

     total energy              =     -25.29202272 Ry
     estimated scf accuracy    <       0.00000120 Ry

     iteration #  5     ecut=    25.00 Ry     beta= 0.70
     Davidson diagonalization with overlap
     ethr =  1.20E-08,  avg # of iterations =  4.0

     total cpu time spent up to now is        0.9 secs

     total energy              =     -25.29202335 Ry
[...]

     iteration #  3     ecut=    25.00 Ry     beta= 0.70
     Davidson diagonalization with overlap
     ethr =  1.04E-10,  avg # of iterations =  4.0

     total cpu time spent up to now is        1.6 secs

     End of self-consistent calculation

          k = 0.0000 0.0000 0.0000 (   266 PWs)   bands (ev):

   -10.3890  -3.3466  -0.2571  -0.1796   0.1097   5.1924   5.2541   6.8384
     8.0566

     the Fermi energy is     3.7853 ev

!    total energy              =     -25.29745423 Ry
     estimated scf accuracy    <          9.5E-10 Ry
     smearing contrib. (-TS)   =       0.00000000 Ry
     internal energy E=F+TS    =     -25.29745423 Ry

     The total energy is F=E-TS. E is the sum of the following terms:
     one-electron contribution =      -5.12664582 Ry
     hartree contribution      =       5.54915779 Ry
     xc contribution           =      -6.16345426 Ry
     ewald contribution        =     -19.55651193 Ry

     convergence has been achieved in   3 iterations

     Forces acting on atoms (cartesian axes, Ry/au):

     atom    1 type  1   force =     0.00013290   -0.00007430    0.00037556
     atom    2 type  1   force =    -0.00013290    0.00007430   -0.00037556

     Total force =     0.000573     Total SCF correction =     0.000017


     Computing stress (Cartesian axis) and pressure

          total   stress  (Ry/bohr**3)                   (kbar)     P=       -0.31
  -0.00000261  -0.00000006  -0.00000210           -0.38       -0.01       -0.31
  -0.00000006  -0.00000487   0.00000003           -0.01       -0.72        0.00
  -0.00000210   0.00000003   0.00000120           -0.31        0.00        0.18

     Energy error            =      1.2E-06 Ry
     Gradient error          =      3.8E-04 Ry/Bohr
     Cell gradient error     =      7.2E-01 kbar

     number of scf cycles    =  35
     number of bfgs steps    =  33

     enthalpy           old  =     -25.2974530349 Ry
     enthalpy           new  =     -25.2974542276 Ry

     CASE: enthalpy          _new < enthalpy          _old

     new trust radius        =       0.0043174300 bohr
     new conv_thr            =       0.0000000010 Ry

     new unit-cell volume =    478.21827 a.u.^3 (    70.86464 Ang^3 )
     density =      3.51020 g/cm^3

CELL_PARAMETERS (alat=  7.01033620)
   1.295834569  -0.344558060  -0.230722697
   0.383816387   0.927163460  -0.217875864
   0.369884623   0.090039652   0.947534575

ATOMIC_POSITIONS (alat)
As            0.1883369209        0.2543533882        0.1821521200
As           -0.1883369209       -0.2543533882       -0.1821521200



     Writing config-only to output data dir ./pwscf.save/
     NEW-OLD atomic charge density approx. for the potential
     extrapolated charge    9.99938, renormalised to   10.00000

     total cpu time spent up to now is        1.7 secs

     Self-consistent Calculation

     iteration #  1     ecut=    25.00 Ry     beta= 0.70
     Davidson diagonalization with overlap
     ethr =  1.00E-06,  avg # of iterations =  2.0

     Threshold (ethr) on eigenvalues was too large:
     Diagonalizing with lowered threshold

     Davidson diagonalization with overlap
     ethr =  2.52E-09,  avg # of iterations =  5.0

     total cpu time spent up to now is        1.7 secs

     total energy              =     -25.29745560 Ry
     estimated scf accuracy    <       0.00000023 Ry

     iteration #  2     ecut=    25.00 Ry     beta= 0.70
     Davidson diagonalization with overlap
     ethr =  2.27E-09,  avg # of iterations =  2.0

     total cpu time spent up to now is        1.7 secs

     total energy              =     -25.29745561 Ry
     estimated scf accuracy    <       0.00000002 Ry

     iteration #  3     ecut=    25.00 Ry     beta= 0.70
     Davidson diagonalization with overlap
     ethr =  2.11E-10,  avg # of iterations =  2.0

     total cpu time spent up to now is        1.7 secs

     total energy              =     -25.29745561 Ry
     estimated scf accuracy    <          7.5E-09 Ry

     iteration #  4     ecut=    25.00 Ry     beta= 0.70
     Davidson diagonalization with overlap
     ethr =  7.47E-11,  avg # of iterations =  2.0

     total cpu time spent up to now is        1.7 secs

     End of self-consistent calculation

          k = 0.0000 0.0000 0.0000 (   266 PWs)   bands (ev):

   -10.3891  -3.3454  -0.2570  -0.1759   0.1062   5.1936   5.2543   6.8382
     8.0577

     the Fermi energy is     3.7861 ev

!    total energy              =     -25.29745561 Ry
     estimated scf accuracy    <          9.5E-10 Ry
     smearing contrib. (-TS)   =       0.00000000 Ry
     internal energy E=F+TS    =     -25.29745561 Ry

     The total energy is F=E-TS. E is the sum of the following terms:
     one-electron contribution =      -5.12686122 Ry
     hartree contribution      =       5.54943934 Ry
     xc contribution           =      -6.16354994 Ry
     ewald contribution        =     -19.55648379 Ry

     convergence has been achieved in   4 iterations

     Forces acting on atoms (cartesian axes, Ry/au):

     atom    1 type  1   force =     0.00012666   -0.00019933    0.00049335
     atom    2 type  1   force =    -0.00012666    0.00019933   -0.00049335

     Total force =     0.000774     Total SCF correction =     0.000003


     Computing stress (Cartesian axis) and pressure

          total   stress  (Ry/bohr**3)                   (kbar)     P=       -0.24
  -0.00000241   0.00000017  -0.00000157           -0.35        0.02       -0.23
   0.00000017  -0.00000380  -0.00000055            0.02       -0.56       -0.08
  -0.00000157  -0.00000055   0.00000140           -0.23       -0.08        0.21

     Energy error            =      1.4E-06 Ry
     Gradient error          =      4.9E-04 Ry/Bohr
     Cell gradient error     =      5.6E-01 kbar

     number of scf cycles    =  36
     number of bfgs steps    =  34

     enthalpy           old  =     -25.2974542276 Ry
     enthalpy           new  =     -25.2974556126 Ry

     CASE: enthalpy          _new < enthalpy          _old

     new trust radius        =       0.0064730634 bohr
     new conv_thr            =       0.0000000010 Ry

     new unit-cell volume =    478.11078 a.u.^3 (    70.84871 Ang^3 )
     density =      3.51098 g/cm^3

CELL_PARAMETERS (alat=  7.01033620)
   1.295592892  -0.344699467  -0.230529792
   0.383740872   0.925982179  -0.217168424
   0.369564590   0.089834919   0.948871105

ATOMIC_POSITIONS (alat)
As            0.1882603066        0.2540534326        0.1826634978
As           -0.1882603066       -0.2540534326       -0.1826634978



     Writing config-only to output data dir ./pwscf.save/
     NEW-OLD atomic charge density approx. for the potential
     extrapolated charge    9.99775, renormalised to   10.00000

     total cpu time spent up to now is        1.7 secs

     Self-consistent Calculation

     iteration #  1     ecut=    25.00 Ry     beta= 0.70
     Davidson diagonalization with overlap
     ethr =  1.00E-06,  avg # of iterations =  2.0

     Threshold (ethr) on eigenvalues was too large:
     Diagonalizing with lowered threshold

     Davidson diagonalization with overlap
     ethr =  4.94E-09,  avg # of iterations =  4.0

     total cpu time spent up to now is        1.7 secs

     total energy              =     -25.29745733 Ry
     estimated scf accuracy    <       0.00000056 Ry

     iteration #  2     ecut=    25.00 Ry     beta= 0.70
     Davidson diagonalization with overlap
     ethr =  5.57E-09,  avg # of iterations =  2.0

     total cpu time spent up to now is        1.7 secs

     total energy              =     -25.29745749 Ry
     estimated scf accuracy    <       0.00000009 Ry

     iteration #  3     ecut=    25.00 Ry     beta= 0.70
     Davidson diagonalization with overlap
     ethr =  9.08E-10,  avg # of iterations =  1.0

     total cpu time spent up to now is        1.7 secs

     total energy              =     -25.29745750 Ry
     estimated scf accuracy    <          8.9E-09 Ry

     iteration #  4     ecut=    25.00 Ry     beta= 0.70
     Davidson diagonalization with overlap
     ethr =  8.86E-11,  avg # of iterations =  3.0

     total cpu time spent up to now is        1.7 secs

     total energy              =     -25.29745750 Ry
     estimated scf accuracy    <          7.1E-09 Ry

     iteration #  5     ecut=    25.00 Ry     beta= 0.70
     Davidson diagonalization with overlap
     ethr =  7.12E-11,  avg # of iterations =  2.0

     total cpu time spent up to now is        1.7 secs

     End of self-consistent calculation

          k = 0.0000 0.0000 0.0000 (   266 PWs)   bands (ev):

   -10.3886  -3.3425  -0.2558  -0.1702   0.1029   5.1966   5.2556   6.8389
     8.0619

     the Fermi energy is     3.7894 ev

!    total energy              =     -25.29745750 Ry
     estimated scf accuracy    <          6.9E-11 Ry
     smearing contrib. (-TS)   =       0.00000000 Ry
     internal energy E=F+TS    =     -25.29745750 Ry

     The total energy is F=E-TS. E is the sum of the following terms:
     one-electron contribution =      -5.12408737 Ry
     hartree contribution      =       5.54871052 Ry
     xc contribution           =      -6.16376000 Ry
     ewald contribution        =     -19.55832064 Ry

     convergence has been achieved in   5 iterations

     Forces acting on atoms (cartesian axes, Ry/au):

     atom    1 type  1   force =     0.00010721   -0.00027222    0.00050491
     atom    2 type  1   force =    -0.00010721    0.00027222   -0.00050491

     Total force =     0.000825     Total SCF correction =     0.000000


     Computing stress (Cartesian axis) and pressure

          total   stress  (Ry/bohr**3)                   (kbar)     P=       -0.08
  -0.00000158   0.00000062  -0.00000068           -0.23        0.09       -0.10
   0.00000062  -0.00000177  -0.00000071            0.09       -0.26       -0.10
  -0.00000068  -0.00000071   0.00000163           -0.10       -0.10        0.24

     Energy error            =      1.9E-06 Ry
     Gradient error          =      5.0E-04 Ry/Bohr
     Cell gradient error     =      2.6E-01 kbar

     bfgs converged in  37 scf cycles and  35 bfgs steps
     (criteria: energy <  1.0E-04 Ry, force <  1.0E-03Ry/Bohr, cell <  5.0E-01kbar)

     End of BFGS Geometry Optimization

     Final enthalpy           =     -25.2974575001 Ry

     File ./pwscf.bfgs deleted, as requested
Begin final coordinates
     new unit-cell volume =    478.11078 a.u.^3 (    70.84871 Ang^3 )
     density =      3.51098 g/cm^3

CELL_PARAMETERS (alat=  7.01033620)
   1.295592892  -0.344699467  -0.230529792
   0.383740872   0.925982179  -0.217168424
   0.369564590   0.089834919   0.948871105

ATOMIC_POSITIONS (alat)
As            0.1882603066        0.2540534326        0.1826634978
As           -0.1882603066       -0.2540534326       -0.1826634978
End final coordinates



     Writing config-only to output data dir ./pwscf.save/

     Final scf calculation at the relaxed structure.
     The G-vectors are recalculated for the final unit cell
     Results may differ from those at the preceding step.
 
     Parallelization info
     --------------------
     sticks:   dense  smooth     PW     G-vecs:    dense   smooth      PW
     Min         135     135     33                 2021     2021     252
     Max         136     136     34                 2026     2026     256
     Sum         543     543    135                 8095     8095    1017
 
     Using Slab Decomposition
 


     bravais-lattice index     =           14
     lattice parameter (alat)  =       7.0103  a.u.
     unit-cell volume          =     478.1108 (a.u.)^3
     number of atoms/cell      =            2
     number of atomic types    =            1
     number of electrons       =        10.00
     number of Kohn-Sham states=            9
     kinetic-energy cutoff     =      25.0000  Ry
     charge density cutoff     =     100.0000  Ry
     scf convergence threshold =      1.0E-09
     mixing beta               =       0.7000
     number of iterations used =            8  plain     mixing
     press convergence thresh. =      5.0E-01
     Exchange-correlation= SLA  PZ   NOGX NOGC
                           (   1   1   0   0   0   0   0)

     celldm(1)=   7.010336  celldm(2)=   1.000000  celldm(3)=   1.000000
     celldm(4)=   0.495175  celldm(5)=   0.495175  celldm(6)=   0.495175

     crystal axes: (cart. coord. in units of alat)
               a(1) = (   1.295593  -0.344699  -0.230530 )  
               a(2) = (   0.383741   0.925982  -0.217168 )  
               a(3) = (   0.369565   0.089835   0.948871 )  

     reciprocal axes: (cart. coord. in units 2 pi/alat)
               b(1) = (  0.647195 -0.320214 -0.221752 )  
               b(2) = (  0.220764  0.947248 -0.175664 )  
               b(3) = (  0.207764  0.139000  0.959805 )  


     PseudoPot. # 1 for As read from file:
     /home/giannozz/q-e-mio/test-suite/..//pseudo/As.pz-bhs.UPF
     MD5 check sum: 2c53d8691f3db84e0fbdf898b12bc293
     Pseudo is Norm-conserving, Zval =  5.0
     Generated by new atomic code, or converted to UPF format
     Using radial grid of  525 points,  2 beta functions with: 
                l(1) =   0
                l(2) =   1

     atomic species   valence    mass     pseudopotential
        As             5.00    74.90000     As( 1.00)

      2 Sym. Ops., with inversion, found



   Cartesian axes

     site n.     atom                  positions (alat units)
         1           As  tau(   1) = (   0.1882603   0.2540534   0.1826635  )
         2           As  tau(   2) = (  -0.1882603  -0.2540534  -0.1826635  )

     number of k points=     1  Methfessel-Paxton smearing, width (Ry)=  0.0050
                       cart. coord. in units 2pi/alat
        k(    1) = (   0.0000000   0.0000000   0.0000000), wk =   2.0000000

     Dense  grid:     4048 G-vectors     FFT dimensions: (  32,  24,  24)

     Estimated max dynamical RAM per process >       0.98 MB

     Estimated total dynamical RAM >       3.94 MB

     Initial potential from superposition of free atoms

     starting charge    9.99960, renormalised to   10.00000
     Starting wfcs are    8 randomized atomic wfcs +    1 random wfcs

     total cpu time spent up to now is        1.7 secs

     Self-consistent Calculation

     iteration #  1     ecut=    25.00 Ry     beta= 0.70
     Davidson diagonalization with overlap
     ethr =  1.00E-06,  avg # of iterations = 14.0

     total cpu time spent up to now is        1.8 secs

     total energy              =     -25.37488866 Ry
     estimated scf accuracy    <       0.03785792 Ry

     iteration #  2     ecut=    25.00 Ry     beta= 0.70
     Davidson diagonalization with overlap
     ethr =  3.79E-04,  avg # of iterations =  1.0

     total cpu time spent up to now is        1.8 secs

     total energy              =     -25.37815229 Ry
     estimated scf accuracy    <       0.00153536 Ry

     iteration #  3     ecut=    25.00 Ry     beta= 0.70
     Davidson diagonalization with overlap
     ethr =  1.54E-05,  avg # of iterations =  2.0

     total cpu time spent up to now is        1.8 secs

     total energy              =     -25.37836580 Ry
     estimated scf accuracy    <       0.00007143 Ry

     iteration #  4     ecut=    25.00 Ry     beta= 0.70
     Davidson diagonalization with overlap
     ethr =  7.14E-07,  avg # of iterations =  3.0

     total cpu time spent up to now is        1.8 secs

     total energy              =     -25.37838274 Ry
     estimated scf accuracy    <       0.00000083 Ry

     iteration #  5     ecut=    25.00 Ry     beta= 0.70
     Davidson diagonalization with overlap
     ethr =  8.29E-09,  avg # of iterations =  3.0

     total cpu time spent up to now is        1.8 secs

     total energy              =     -25.37838288 Ry
     estimated scf accuracy    <       0.00000008 Ry

     iteration #  6     ecut=    25.00 Ry     beta= 0.70
     Davidson diagonalization with overlap
     ethr =  8.30E-10,  avg # of iterations =  2.0

     total cpu time spent up to now is        1.8 secs

     total energy              =     -25.37838289 Ry
     estimated scf accuracy    <          1.7E-09 Ry

     iteration #  7     ecut=    25.00 Ry     beta= 0.70
     Davidson diagonalization with overlap
     ethr =  1.72E-11,  avg # of iterations =  4.0

     total cpu time spent up to now is        1.8 secs

     End of self-consistent calculation

          k = 0.0000 0.0000 0.0000 (   509 PWs)   bands (ev):

   -10.4645  -3.5228  -0.3020  -0.2015   0.1116   5.1588   5.2252   6.8518
     8.0885

     the Fermi energy is     3.7904 ev

!    total energy              =     -25.37838289 Ry
     estimated scf accuracy    <          3.0E-10 Ry
     smearing contrib. (-TS)   =       0.00000000 Ry
     internal energy E=F+TS    =     -25.37838289 Ry

     The total energy is F=E-TS. E is the sum of the following terms:
     one-electron contribution =      -5.23158157 Ry
     hartree contribution      =       5.58752207 Ry
     xc contribution           =      -6.17738134 Ry
     ewald contribution        =     -19.55694205 Ry

     convergence has been achieved in   7 iterations

     Forces acting on atoms (cartesian axes, Ry/au):

     atom    1 type  1   force =     0.00011200   -0.00023131    0.00045083
     atom    2 type  1   force =    -0.00011200    0.00023131   -0.00045083

     Total force =     0.000734     Total SCF correction =     0.000001


     Computing stress (Cartesian axis) and pressure

          total   stress  (Ry/bohr**3)                   (kbar)     P=       56.07
   0.00043993  -0.00028022  -0.00020012           64.72      -41.22      -29.44
  -0.00028022   0.00033896  -0.00004820          -41.22       49.86       -7.09
  -0.00020012  -0.00004820   0.00036460          -29.44       -7.09       53.63


     Writing all to output data dir ./pwscf.save/
 
     init_run     :      0.02s CPU      0.06s WALL (       2 calls)
     electrons    :      1.04s CPU      1.17s WALL (      38 calls)
     update_pot   :      0.13s CPU      0.14s WALL (      36 calls)
     forces       :      0.05s CPU      0.06s WALL (      38 calls)
     stress       :      0.10s CPU      0.11s WALL (      38 calls)

     Called by init_run:
     wfcinit      :      0.01s CPU      0.02s WALL (       2 calls)
     potinit      :      0.01s CPU      0.01s WALL (       2 calls)
     hinit0       :      0.01s CPU      0.03s WALL (       2 calls)

     Called by electrons:
     c_bands      :      0.88s CPU      0.98s WALL (     253 calls)
     sum_band     :      0.06s CPU      0.07s WALL (     253 calls)
     v_of_rho     :      0.05s CPU      0.05s WALL (     275 calls)
     mix_rho      :      0.03s CPU      0.04s WALL (     253 calls)

     Called by c_bands:
     init_us_2    :      0.01s CPU      0.01s WALL (     508 calls)
     regterg      :      0.86s CPU      0.97s WALL (     253 calls)

     Called by *egterg:
     rdiaghg      :      0.59s CPU      0.67s WALL (     968 calls)
     h_psi        :      0.15s CPU      0.18s WALL (    1022 calls)
     g_psi        :      0.00s CPU      0.00s WALL (     767 calls)

     Called by h_psi:
     h_psi:calbec :      0.01s CPU      0.01s WALL (    1022 calls)
     vloc_psi     :      0.13s CPU      0.15s WALL (    1022 calls)
     add_vuspsi   :      0.00s CPU      0.00s WALL (    1022 calls)

     General routines
     calbec       :      0.01s CPU      0.01s WALL (    1212 calls)
     fft          :      0.05s CPU      0.07s WALL (    1029 calls)
     ffts         :      0.01s CPU      0.02s WALL (     253 calls)
     fftw         :      0.13s CPU      0.15s WALL (    8617 calls)
 
     Parallel routines
 
     PWSCF        :      1.54s CPU      1.81s WALL

 
   This run was terminated on:   9:54:19  10Oct2021            

=------------------------------------------------------------------------------=
   JOB DONE.
=------------------------------------------------------------------------------=
