<UPF version="2.0.1">
  <PP_INFO>
    Generated using "atomic" code by A. Dal Corso  (Quantum ESPRESSO distribution)
    Author: anonymous
    Generation date: 24Jun2010
    Pseudopotential type: NC
    Element: Si
    Functional:  SLA  PZ   NOGX NOGC

    Suggested minimum cutoff for wavefunctions:   0. Ry
    Suggested minimum cutoff for charge density:   0. Ry
    The Pseudo was generated with a Non-Relativistic Calculation
    Local Potential by smoothing AE potential with Bessel fncs, cutoff radius:   0.0000

    Valence configuration: 
    nl pn  l   occ       Rcut    Rcut US       E pseu
    3S  1  0  2.00      0.000      0.000     0.000000
    3P  2  1  2.00      0.000      0.000     0.000000
    Generation configuration:
    3S  0  0  0.00      0.000      0.000     0.000000
    3P  0  1  0.00      0.000      0.000     0.000000

    Pseudization used: rrkj
  </PP_INFO>
  <!--                               -->
  <!-- END OF HUMAN READABLE SECTION -->
  <!--                               -->
  <PP_HEADER generated='Generated using "atomic" code by A. Dal Corso  (Quantum ESPRESSO distribution)'
             author="anonymous"
             date="24Jun2010"
             comment=""
             element="Si"
             pseudo_type="NC"
             relativistic="no"
             is_ultrasoft="F"
             is_paw="F"
             is_coulomb="F"
             has_so="F"
             has_wfc="F"
             has_gipaw="F"
             core_correction="F"
             functional=" SLA  PZ   NOGX NOGC"
             z_valence="4.000000000000000E+000"
             total_psenergy="0.000000000000000E+000"
             wfc_cutoff="0.000000000000000E+000"
             rho_cutoff="0.000000000000000E+000"
             l_max="1"
             l_max_rho="2"
             l_local="-1"
             mesh_size="431"
             number_of_wfc="2"
             number_of_proj="2"/>
  <PP_MESH dx="2.500000000000701E-002" mesh="431" xmin="-4.000000000002959E+000" rmax="6.100419732330000E+001"
zmesh="1.400000000000000E+001">
    <PP_R type="real" size="431" columns="4">
 1.308259920620000E-003  1.341378678190000E-003  1.375335841100000E-003  1.410152633680000E-003 
 1.445850817560000E-003  1.482452705260000E-003  1.519981174170000E-003  1.558459680790000E-003 
 1.597912275440000E-003  1.638363617280000E-003  1.679838989710000E-003  1.722364316200000E-003 
 1.765966176450000E-003  1.810671823050000E-003  1.856509198480000E-003  1.903506952600000E-003 
 1.951694460520000E-003  2.001101841020000E-003  2.051759975300000E-003  2.103700526360000E-003 
 2.156955958740000E-003  2.211559558800000E-003  2.267545455580000E-003  2.324948642080000E-003 
 2.383804997170000E-003  2.444151307980000E-003  2.506025292920000E-003  2.569465625240000E-003 
 2.634511957230000E-003  2.701204944950000E-003  2.769586273690000E-003  2.839698684020000E-003 
 2.911585998450000E-003  2.985293148920000E-003  3.060866204790000E-003  3.138352401670000E-003 
 3.217800170970000E-003  3.299259170120000E-003  3.382780313650000E-003  3.468415805000000E-003 
 3.556219169130000E-003  3.646245286010000E-003  3.738550424890000E-003  3.833192279480000E-003 
 3.930230004030000E-003  4.029724250270000E-003  4.131737205350000E-003  4.236332630670000E-003 
 4.343575901800000E-003  4.453534049260000E-003  4.566275800480000E-003  4.681871622720000E-003 
 4.800393767120000E-003  4.921916313900000E-003  5.046515218600000E-003  5.174268359590000E-003 
 5.305255586740000E-003  5.439558771330000E-003  5.577261857230000E-003  5.718450913340000E-003 
 5.863214187420000E-003  6.011642161240000E-003  6.163827607100000E-003  6.319865645860000E-003 
 6.479853806390000E-003  6.643892086480000E-003  6.812083015400000E-003  6.984531717950000E-003 
 7.161345980200000E-003  7.342636316810000E-003  7.528516040130000E-003  7.719101331060000E-003 
 7.914511311600000E-003  8.114868119340000E-003  8.320296983820001E-003  8.530926304770000E-003 
 8.746887732360001E-003  8.968316249510000E-003  9.195350256270000E-003  9.428131656269999E-003 
 9.666805945470000E-003  9.911522303070000E-003  1.016243368480000E-002  1.041969691830000E-002 
 1.068347280160000E-002  1.095392620320000E-002  1.123122616530000E-002  1.151554600930000E-002 
 1.180706344440000E-002  1.210596067850000E-002  1.241242453220000E-002  1.272664655520000E-002 
 1.304882314660000E-002  1.337915567730000E-002  1.371785061580000E-002  1.406511965740000E-002 
 1.442117985680000E-002  1.478625376290000E-002  1.516056955910000E-002  1.554436120470000E-002 
 1.593786858200000E-002  1.634133764610000E-002  1.675502057810000E-002  1.717917594350000E-002 
 1.761406885300000E-002  1.805997112890000E-002  1.851716147470000E-002  1.898592564920000E-002 
 1.946655664530000E-002  1.995935487300000E-002  2.046462834720000E-002  2.098269288030000E-002 
 2.151387227940000E-002  2.205849854910000E-002  2.261691209850000E-002  2.318946195420000E-002 
 2.377650597840000E-002  2.437841109290000E-002  2.499555350790000E-002  2.562831895760000E-002 
 2.627710294080000E-002  2.694231096880000E-002  2.762435881820000E-002  2.832367279110000E-002 
 2.904068998150000E-002  2.977585854850000E-002  3.052963799630000E-002  3.130249946180000E-002 
 3.209492600840000E-002  3.290741292850000E-002  3.374046805290000E-002  3.459461206820000E-002 
 3.547037884220000E-002  3.636831575770000E-002  3.728898405440000E-002  3.823295917990000E-002 
 3.920083114960000E-002  4.019320491480000E-002  4.121070074150000E-002  4.225395459760000E-002 
 4.332361855090000E-002  4.442036117610000E-002  4.554486797300000E-002  4.669784179500000E-002 
 4.788000328830000E-002  4.909209134220000E-002  5.033486355130000E-002  5.160909668870000E-002 
 5.291558719160000E-002  5.425515165890000E-002  5.562862736220000E-002  5.703687276850000E-002 
 5.848076807700000E-002  5.996121576920000E-002  6.147914117320000E-002  6.303549304180001E-002 
 6.463124414540000E-002  6.626739188060000E-002  6.794495889290000E-002  6.966499371630000E-002 
 7.142857142860000E-002  7.323679432320000E-002  7.509079259830000E-002  7.699172506320000E-002 
 7.894077986250000E-002  8.093917521910000E-002  8.298816019490000E-002  8.508901547229999E-002 
 8.724305415430000E-002  8.945162258510000E-002  9.171610119199999E-002  9.403790534770000E-002 
 9.641848625540000E-002  9.885933185580000E-002  1.013619677570000E-001  1.039279581870000E-001 
 1.065589069740000E-001  1.092564585470000E-001  1.120222989640000E-001  1.148581569630000E-001 
 1.177658050500000E-001  1.207470605990000E-001  1.238037869910000E-001  1.269378947800000E-001 
 1.301513428850000E-001  1.334461398170000E-001  1.368243449300000E-001  1.402880697120000E-001 
 1.438394791050000E-001  1.474807928550000E-001  1.512142869010000E-001  1.550422947990000E-001 
 1.589672091780000E-001  1.629914832380000E-001  1.671176322800000E-001  1.713482352830000E-001 
 1.756859365110000E-001  1.801334471680000E-001  1.846935470940000E-001  1.893690864990000E-001 
 1.941629877470000E-001  1.990782471830000E-001  2.041179370050000E-001  2.092852071810000E-001 
 2.145832874250000E-001  2.200154892080000E-001  2.255852078350000E-001  2.312959245600000E-001 
 2.371512087670000E-001  2.431547201990000E-001  2.493102112470000E-001  2.556215292930000E-001 
 2.620926191160000E-001  2.687275253570000E-001  2.755303950500000E-001  2.825054802090000E-001 
 2.896571404890000E-001  2.969898459110000E-001  3.045081796550000E-001  3.122168409240000E-001 
 3.201206478810000E-001  3.282245406650000E-001  3.365335844710000E-001  3.450529727220000E-001 
 3.537880303140000E-001  3.627442169410000E-001  3.719271305130000E-001  3.813425106480000E-001 
 3.909962422660000E-001  4.008943592640000E-001  4.110430482860000E-001  4.214486525940000E-001 
 4.321176760290000E-001  4.430567870790000E-001  4.542728230430000E-001  4.657727943090000E-001 
 4.775638887340000E-001  4.896534761360000E-001  5.020491128990000E-001  5.147585467010000E-001 
 5.277897213520000E-001  5.411507817600000E-001  5.548500790220000E-001  5.688961756449999E-001 
 5.832978508980000E-001  5.980641062950000E-001  6.132041712270000E-001  6.287275087280000E-001 
 6.446438213880000E-001  6.609630574220000E-001  6.776954168829999E-001  6.948513580400000E-001 
 7.124416039150000E-001  7.304771489850000E-001  7.489692660520000E-001  7.679295132910000E-001 
 7.873697414740000E-001  8.073021013770000E-001  8.277390513730000E-001  8.486933652210000E-001 
 8.701781400500000E-001  8.922068045430001E-001  9.147931273330000E-001  9.379512256060000E-001 
 9.616955739290000E-001  9.860410132910000E-001  1.011002760380000E+000  1.036596417110000E+000 
 1.062837980350000E+000  1.089743851920000E+000  1.117330848870000E+000  1.145616213980000E+000 
 1.174617626510000E+000  1.204353213290000E+000  1.234841560040000E+000  1.266101722960000E+000 
 1.298153240670000E+000  1.331016146420000E+000  1.364710980590000E+000  1.399258803540000E+000 
 1.434681208800000E+000  1.471000336510000E+000  1.508238887320000E+000  1.546420136540000E+000 
 1.585567948670000E+000  1.625706792390000E+000  1.666861755780000E+000  1.709058562030000E+000 
 1.752323585510000E+000  1.796683868270000E+000  1.842167136940000E+000  1.888801820040000E+000 
 1.936617065760000E+000  1.985642760190000E+000  2.035909545980000E+000  2.087448841520000E+000 
 2.140292860530000E+000  2.194474632250000E+000  2.250028022050000E+000  2.306987752620000E+000 
 2.365389425620000E+000  2.425269544020000E+000  2.486665534830000E+000  2.549615772550000E+000 
 2.614159603120000E+000  2.680337368540000E+000  2.748190432070000E+000  2.817761204090000E+000 
 2.889093168580000E+000  2.962230910350000E+000  3.037220142860000E+000  3.114107736840000E+000 
 3.192941749520000E+000  3.273771454740000E+000  3.356647373680000E+000  3.441621306510000E+000 
 3.528746364680000E+000  3.618077004200000E+000  3.709669059630000E+000  3.803579778980000E+000 
 3.899867859510000E+000  3.998593484400000E+000  4.099818360390000E+000  4.203605756310000E+000 
 4.310020542670000E+000  4.419129232170000E+000  4.531000021290000E+000  4.645702832930000E+000 
 4.763309360070000E+000  4.883893110610000E+000  5.007529453330000E+000  5.134295664980000E+000 
 5.264270978540000E+000  5.397536632840000E+000  5.534175923230000E+000  5.674274253730000E+000 
 5.817919190350000E+000  5.965200515860000E+000  6.116210285870000E+000  6.271042886410000E+000 
 6.429795092890000E+000  6.592566130620000E+000  6.759457736780000E+000  6.930574224070000E+000 
 7.106022545850000E+000  7.285912363050000E+000  7.470356112650000E+000  7.659469078000000E+000 
 7.853369460870000E+000  8.052178455290001E+000  8.256020323370000E+000  8.465022472910000E+000 
 8.679315537050000E+000  8.899033455940000E+000  9.124313560430000E+000  9.355296657920000E+000 
 9.592127120350000E+000  9.834952974489999E+000  1.008392599440000E+001  1.033920179630000E+001 
 1.060093993590000E+001  1.086930400800000E+001  1.114446174900000E+001  1.142658514140000E+001 
 1.171585052140000E+001  1.201243868940000E+001  1.231653502260000E+001  1.262832959120000E+001 
 1.294801727680000E+001  1.327579789470000E+001  1.361187631850000E+001  1.395646260800000E+001 
 1.430977214110000E+001  1.467202574750000E+001  1.504344984760000E+001  1.542427659360000E+001 
 1.581474401460000E+001  1.621509616540000E+001  1.662558327910000E+001  1.704646192360000E+001 
 1.747799516170000E+001  1.792045271580000E+001  1.837411113610000E+001  1.883925397410000E+001 
 1.931617195900000E+001  1.980516318020000E+001  2.030653327310000E+001  2.082059561040000E+001 
 2.134767149760000E+001  2.188809037450000E+001  2.244219002040000E+001  2.301031676560000E+001 
 2.359282570780000E+001  2.419008093410000E+001  2.480245574850000E+001  2.543033290510000E+001 
 2.607410484750000E+001  2.673417395430000E+001  2.741095279010000E+001  2.810486436360000E+001 
 2.881634239230000E+001  2.954583157310000E+001  3.029378786030000E+001  3.106067875120000E+001 
 3.184698357730000E+001  3.265319380490000E+001  3.347981334160000E+001  3.432735885150000E+001 
 3.519636007810000E+001  3.608736017550000E+001  3.700091604770000E+001  3.793759869700000E+001 
 3.889799358040000E+001  3.988270097610000E+001  4.089233635810000E+001  4.192753078160000E+001 
 4.298893127660000E+001  4.407720125310000E+001  4.519302091520000E+001  4.633708768650000E+001 
 4.751011664600000E+001  4.871284097500000E+001  4.994601241540000E+001  5.121040173940000E+001 
 5.250679923160000E+001  5.383601518250000E+001  5.519888039540000E+001  5.659624670540000E+001 
 5.802898751200000E+001  5.949799832470000E+001  6.100419732330000E+001
    </PP_R>
    <PP_RAB type="real" size="431" columns="4">
 3.270649801560000E-005  3.353446695480000E-005  3.438339602750000E-005  3.525381584200000E-005 
 3.614627043890000E-005  3.706131763160000E-005  3.799952935420000E-005  3.896149201970000E-005 
 3.994780688600000E-005  4.095909043200000E-005  4.199597474290000E-005  4.305910790500000E-005 
 4.414915441130000E-005  4.526679557630000E-005  4.641272996210000E-005  4.758767381490000E-005 
 4.879236151300000E-005  5.002754602540000E-005  5.129399938260000E-005  5.259251315910000E-005 
 5.392389896840000E-005  5.528898897000000E-005  5.668863638940000E-005  5.812371605200000E-005 
 5.959512492920000E-005  6.110378269940000E-005  6.265063232290001E-005  6.423664063109999E-005 
 6.586279893080000E-005  6.753012362380000E-005  6.923965684240000E-005  7.099246710040000E-005 
 7.278964996140001E-005  7.463232872310000E-005  7.652165511970001E-005  7.845881004179999E-005 
 8.044500427420001E-005  8.248147925300000E-005  8.456950784130000E-005  8.671039512499999E-005 
 8.890547922830000E-005  9.115613215030000E-005  9.346376062220000E-005  9.582980698700000E-005 
 9.825575010070001E-005  1.007431062570000E-004  1.032934301340000E-004  1.059083157670000E-004 
 1.085893975450000E-004  1.113383512320000E-004  1.141568950120000E-004  1.170467905680000E-004 
 1.200098441780000E-004  1.230479078480000E-004  1.261628804650000E-004  1.293567089900000E-004 
 1.326313896680000E-004  1.359889692830000E-004  1.394315464310000E-004  1.429612728330000E-004 
 1.465803546860000E-004  1.502910540310000E-004  1.540956901770000E-004  1.579966411470000E-004 
 1.619963451600000E-004  1.660973021620000E-004  1.703020753850000E-004  1.746132929490000E-004 
 1.790336495050000E-004  1.835659079200000E-004  1.882129010030000E-004  1.929775332760000E-004 
 1.978627827900000E-004  2.028717029840000E-004  2.080074245960000E-004  2.132731576190000E-004 
 2.186721933090000E-004  2.242079062380000E-004  2.298837564070000E-004  2.357032914070000E-004 
 2.416701486370000E-004  2.477880575770000E-004  2.540608421190000E-004  2.604924229580000E-004 
 2.670868200400000E-004  2.738481550800000E-004  2.807806541310000E-004  2.878886502320000E-004 
 2.951765861100000E-004  3.026490169630000E-004  3.103106133040000E-004  3.181661638800000E-004 
 3.262205786660000E-004  3.344788919320000E-004  3.429462653940000E-004  3.516279914360000E-004 
 3.605294964190000E-004  3.696563440730000E-004  3.790142389760000E-004  3.886090301160000E-004 
 3.984467145510000E-004  4.085334411520000E-004  4.188755144530000E-004  4.294793985860000E-004 
 4.403517213240000E-004  4.514992782230000E-004  4.629290368680000E-004  4.746481412300000E-004 
 4.866639161320000E-004  4.989838718240000E-004  5.116157086790000E-004  5.245673220060000E-004 
 5.378468069860000E-004  5.514624637290000E-004  5.654228024630000E-004  5.797365488540000E-004 
 5.944126494610000E-004  6.094602773230000E-004  6.248888376980000E-004  6.407079739390000E-004 
 6.569275735200000E-004  6.735577742200000E-004  6.906089704540000E-004  7.080918197770000E-004 
 7.260172495370000E-004  7.443964637120000E-004  7.632409499080000E-004  7.825624865450000E-004 
 8.023731502090000E-004  8.226853232120000E-004  8.435117013230000E-004  8.648653017060000E-004 
 8.867594710560000E-004  9.092078939420001E-004  9.322246013590000E-004  9.558239794980000E-004 
 9.800207787390000E-004  1.004830122870000E-003  1.030267518540000E-003  1.056348864940000E-003 
 1.083090463770000E-003  1.110509029400000E-003  1.138621699320000E-003  1.167446044870000E-003 
 1.197000082210000E-003  1.227302283560000E-003  1.258371588780000E-003  1.290227417220000E-003 
 1.322889679790000E-003  1.356378791470000E-003  1.390715684060000E-003  1.425921819210000E-003 
 1.462019201920000E-003  1.499030394230000E-003  1.536978529330000E-003  1.575887326040000E-003 
 1.615781103640000E-003  1.656684797020000E-003  1.698623972320000E-003  1.741624842910000E-003 
 1.785714285710000E-003  1.830919858080000E-003  1.877269814960000E-003  1.924793126580000E-003 
 1.973519496560000E-003  2.023479380480000E-003  2.074704004870000E-003  2.127225386810000E-003 
 2.181076353860000E-003  2.236290564630000E-003  2.292902529800000E-003  2.350947633690000E-003 
 2.410462156390000E-003  2.471483296390000E-003  2.534049193920000E-003  2.598198954680000E-003 
 2.663972674360000E-003  2.731411463680000E-003  2.800557474090000E-003  2.871453924080000E-003 
 2.944145126250000E-003  3.018676514960000E-003  3.095094674760000E-003  3.173447369490000E-003 
 3.253783572130000E-003  3.336153495410000E-003  3.420608623240000E-003  3.507201742800000E-003 
 3.595986977630000E-003  3.687019821370000E-003  3.780357172520000E-003  3.876057369970000E-003 
 3.974180229450000E-003  4.074787080950000E-003  4.177940807010000E-003  4.283705882080000E-003 
 4.392148412780000E-003  4.503336179210000E-003  4.617338677350000E-003  4.734227162470000E-003 
 4.854074693680000E-003  4.976956179580000E-003  5.102948425110000E-003  5.232130179520000E-003 
 5.364582185620000E-003  5.500387230210000E-003  5.639630195870000E-003  5.782398114000000E-003 
 5.928780219170000E-003  6.078868004980000E-003  6.232755281180000E-003  6.390538232320000E-003 
 6.552315477890000E-003  6.718188133930000E-003  6.888259876240000E-003  7.062637005220000E-003 
 7.241428512220000E-003  7.424746147780000E-003  7.612704491370000E-003  7.805421023090000E-003 
 8.003016197030000E-003  8.205613516620001E-003  8.413339611770000E-003  8.626324318050001E-003 
 8.844700757850000E-003  9.068605423540000E-003  9.298178262820001E-003  9.533562766200000E-003 
 9.774906056659999E-003  1.002235898160000E-002  1.027607620720000E-002  1.053621631490000E-002 
 1.080294190070000E-002  1.107641967700000E-002  1.135682057610000E-002  1.164431985770000E-002 
 1.193909721840000E-002  1.224133690340000E-002  1.255122782250000E-002  1.286896366750000E-002 
 1.319474303380000E-002  1.352876954400000E-002  1.387125197550000E-002  1.422240439110000E-002 
 1.458244627240000E-002  1.495160265740000E-002  1.533010428070000E-002  1.571818771820000E-002 
 1.611609553470000E-002  1.652407643550000E-002  1.694238542210000E-002  1.737128395100000E-002 
 1.781104009790000E-002  1.826192872460000E-002  1.872423165130000E-002  1.919823783230000E-002 
 1.968424353690000E-002  2.018255253440000E-002  2.069347628430000E-002  2.121733413050000E-002 
 2.175445350130000E-002  2.230517011360000E-002  2.286982818330000E-002  2.344878064020000E-002 
 2.404238934820000E-002  2.465102533230000E-002  2.527506900960000E-002  2.591491042780000E-002 
 2.657094950870000E-002  2.724359629800000E-002  2.793327122180000E-002  2.864040534940000E-002 
 2.936544066270000E-002  3.010883033230000E-002  3.087103900100000E-002  3.165254307400000E-002 
 3.245383101690000E-002  3.327540366050000E-002  3.411777451470000E-002  3.498147008860000E-002 
 3.586703022000000E-002  3.677500841290000E-002  3.770597218310000E-002  3.866050341340000E-002 
 3.963919871690000E-002  4.064266980990000E-002  4.167154389450000E-002  4.272646405070000E-002 
 4.380808963770000E-002  4.491709670680000E-002  4.605417842360000E-002  4.722004550100000E-002 
 4.841542664400000E-002  4.964106900480000E-002  5.089773864960000E-002  5.218622103790000E-002 
 5.350732151320000E-002  5.486186580630000E-002  5.625070055130000E-002  5.767469381540000E-002 
 5.913473564050000E-002  6.063173860040000E-002  6.216663837070000E-002  6.374039431370000E-002 
 6.535399007800000E-002  6.700843421360000E-002  6.870476080180000E-002  7.044403010210000E-002 
 7.222732921440000E-002  7.405577275859999E-002  7.593050357150000E-002  7.785269342090000E-002 
 7.982354373800001E-002  8.184428636850000E-002  8.391618434210001E-002  8.604053266270000E-002 
 8.821865911700000E-002  9.045192510510000E-002  9.274172649079999E-002  9.508949447450001E-002 
 9.749669648780000E-002  9.996483711010000E-002  1.024954590100000E-001  1.050901439080000E-001 
 1.077505135670000E-001  1.104782308040000E-001  1.132750005320000E-001  1.161425708230000E-001 
 1.190827340020000E-001  1.220973277650000E-001  1.251882363330000E-001  1.283573916240000E-001 
 1.316067744640000E-001  1.349384158210000E-001  1.383543980810000E-001  1.418568563430000E-001 
 1.454479797590000E-001  1.491300128970000E-001  1.529052571470000E-001  1.567760721600000E-001 
 1.607448773220000E-001  1.648141532650000E-001  1.689864434200000E-001  1.732643556020000E-001 
 1.776505636460000E-001  1.821478090760000E-001  1.867589028160000E-001  1.914867269500000E-001 
 1.963342365220000E-001  2.013044613820000E-001  2.064005080840000E-001  2.116255618230000E-001 
 2.169828884260000E-001  2.224758363990000E-001  2.281078390110000E-001  2.338824164480000E-001 
 2.398031780090000E-001  2.458738243620000E-001  2.520981498600000E-001  2.584800449070000E-001 
 2.650234983970000E-001  2.717326002010000E-001  2.786115437260000E-001  2.856646285350000E-001 
 2.928962630360000E-001  3.003109672350000E-001  3.079133755660000E-001  3.157082397790000E-001 
 3.237004319200000E-001  3.318949473680000E-001  3.402969079620000E-001  3.489115652010000E-001 
 3.577443035260000E-001  3.668006436870000E-001  3.760862461900000E-001  3.856069148400000E-001 
 3.953686003650000E-001  4.053774041340000E-001  4.156395819780000E-001  4.261615480900000E-001 
 4.369498790430000E-001  4.480113178940000E-001  4.593527784030000E-001  4.709813493520000E-001 
 4.829042989750000E-001  4.951290795060000E-001  5.076633318280001E-001  5.205148902600000E-001 
 5.336917874410000E-001  5.472022593630000E-001  5.610547505100000E-001  5.752579191400000E-001 
 5.898206426960000E-001  6.047520233530000E-001  6.200613937120000E-001  6.357583226260000E-001 
 6.518526211880000E-001  6.683543488580000E-001  6.852738197520000E-001  7.026216090910000E-001 
 7.204085598080000E-001  7.386457893270000E-001  7.573446965090000E-001  7.765169687790000E-001 
 7.961745894330000E-001  8.163298451230000E-001  8.369953335400000E-001  8.581839712870000E-001 
 8.799090019519999E-001  9.021840043870000E-001  9.250229011930000E-001  9.484399674250000E-001 
 9.724498395109999E-001  9.970675244020000E-001  1.022308408950000E+000  1.048188269540000E+000 
 1.074723281910000E+000  1.101930031330000E+000  1.129825522880000E+000  1.158427192160000E+000 
 1.187752916150000E+000  1.217821024380000E+000  1.248650310390000E+000  1.280260043490000E+000 
 1.312669980790000E+000  1.345900379560000E+000  1.379972009880000E+000  1.414906167630000E+000 
 1.450724687800000E+000  1.487449958120000E+000  1.525104933080000E+000
    </PP_RAB>
  </PP_MESH>
  <PP_LOCAL type="real" size="431" columns="4">
-1.866638493714610E+001 -1.866638335728253E+001 -1.866638170500263E+001 -1.866637997678094E+001 
-1.866637816894292E+001 -1.866637627757765E+001 -1.866637429869242E+001 -1.866637222794543E+001 
-1.866637006094760E+001 -1.866636779292802E+001 -1.866636541891945E+001 -1.866636293391283E+001 
-1.866636033223362E+001 -1.866635760836914E+001 -1.866635475629578E+001 -1.866635176960450E+001 
-1.866634864168442E+001 -1.866634536566106E+001 -1.866634193423991E+001 -1.866633833968288E+001 
-1.866633457403001E+001 -1.866633062867776E+001 -1.866632649495346E+001 -1.866632216329539E+001 
-1.866631762401457E+001 -1.866631286681835E+001 -1.866630788079777E+001 -1.866630265473114E+001 
-1.866629717647857E+001 -1.866629143370933E+001 -1.866628541311261E+001 -1.866627910080499E+001 
-1.866627248227026E+001 -1.866626554232497E+001 -1.866625826472750E+001 -1.866625063268354E+001 
-1.866624262839877E+001 -1.866623423332434E+001 -1.866622542778051E+001 -1.866621619126576E+001 
-1.866620650206582E+001 -1.866619633740102E+001 -1.866618567361988E+001 -1.866617448533547E+001 
-1.866616274630092E+001 -1.866615042873935E+001 -1.866613750349392E+001 -1.866612393998325E+001 
-1.866610970599329E+001 -1.866609476775907E+001 -1.866607908948478E+001 -1.866606263406008E+001 
-1.866604536190282E+001 -1.866602723195182E+001 -1.866600820069866E+001 -1.866598822241767E+001 
-1.866596724927778E+001 -1.866594523082703E+001 -1.866592211391807E+001 -1.866589784297629E+001 
-1.866587235925169E+001 -1.866584560138887E+001 -1.866581750433518E+001 -1.866578800025986E+001 
-1.866575701755492E+001 -1.866572448091425E+001 -1.866569031128224E+001 -1.866565442551744E+001 
-1.866561673613209E+001 -1.866557715116258E+001 -1.866553557399902E+001 -1.866549190308793E+001 
-1.866544603143454E+001 -1.866539784680099E+001 -1.866534723102084E+001 -1.866529405979999E+001 
-1.866523820262901E+001 -1.866517952197394E+001 -1.866511787370779E+001 -1.866505310568270E+001 
-1.866498505826729E+001 -1.866491356361981E+001 -1.866483844513996E+001 -1.866475951701573E+001 
-1.866467658388066E+001 -1.866458944058020E+001 -1.866449787101675E+001 -1.866440164790005E+001 
-1.866430053261635E+001 -1.866419427377471E+001 -1.866408260714431E+001 -1.866396525485081E+001 
-1.866384192476998E+001 -1.866371230944726E+001 -1.866357608568660E+001 -1.866343291345207E+001 
-1.866328243517742E+001 -1.866312427475787E+001 -1.866295803654624E+001 -1.866278330466844E+001 
-1.866259964130187E+001 -1.866240658638061E+001 -1.866220365568295E+001 -1.866199034003842E+001 
-1.866176610390507E+001 -1.866153038387310E+001 -1.866128258734461E+001 -1.866102209121794E+001 
-1.866074823969059E+001 -1.866046034342243E+001 -1.866015767692701E+001 -1.865983947745477E+001 
-1.865950494225300E+001 -1.865915322745838E+001 -1.865878344495575E+001 -1.865839466104840E+001 
-1.865798589333097E+001 -1.865755610833646E+001 -1.865710421950720E+001 -1.865662908334278E+001 
-1.865612949755253E+001 -1.865560419729949E+001 -1.865505185224911E+001 -1.865447106310143E+001 
-1.865386035802356E+001 -1.865321818918524E+001 -1.865254292827653E+001 -1.865183286283049E+001 
-1.865108619183482E+001 -1.865030102094019E+001 -1.864947535796852E+001 -1.864860710770141E+001 
-1.864769406638357E+001 -1.864673391689871E+001 -1.864572422196321E+001 -1.864466241878791E+001 
-1.864354581236019E+001 -1.864237156870402E+001 -1.864113670784062E+001 -1.863983809614537E+001 
-1.863847243889531E+001 -1.863703627201961E+001 -1.863552595343947E+001 -1.863393765371017E+001 
-1.863226734735414E+001 -1.863051080240101E+001 -1.862866357001813E+001 -1.862672097404753E+001 
-1.862467809893576E+001 -1.862252977847994E+001 -1.862027058286005E+001 -1.861789480569171E+001 
-1.861539645007753E+001 -1.861276921467028E+001 -1.861000647814855E+001 -1.860710128360437E+001 
-1.860404632214888E+001 -1.860083391563876E+001 -1.859745599852505E+001 -1.859390409903034E+001 
-1.859016931935682E+001 -1.858624231543351E+001 -1.858211327490125E+001 -1.857777189485141E+001 
-1.857320735841276E+001 -1.856840831020384E+001 -1.856336283095557E+001 -1.855805841060686E+001 
-1.855248192069174E+001 -1.854661958552334E+001 -1.854045695208106E+001 -1.853397885862077E+001 
-1.852716940211150E+001 -1.852001190451463E+001 -1.851248887761213E+001 -1.850458198609920E+001 
-1.849627201033800E+001 -1.848753880648763E+001 -1.847836126580454E+001 -1.846871727259964E+001 
-1.845858365993976E+001 -1.844793616456517E+001 -1.843674937926768E+001 -1.842499670427102E+001 
-1.841265029641967E+001 -1.839968101586454E+001 -1.838605837150186E+001 -1.837175046349191E+001 
-1.835672392316830E+001 -1.834094385113353E+001 -1.832437375142421E+001 -1.830697546376398E+001 
-1.828870909166288E+001 -1.826953292869546E+001 -1.824940338101276E+001 -1.822827488816572E+001 
-1.820609984099654E+001 -1.818282849928954E+001 -1.815840890782419E+001 -1.813278681445044E+001 
-1.810590558801280E+001 -1.807770614037358E+001 -1.804812685111935E+001 -1.801710349638284E+001 
-1.798456918272876E+001 -1.795045428527161E+001 -1.791468639092754E+001 -1.787719024705009E+001 
-1.783788771329501E+001 -1.779669772049723E+001 -1.775353623221721E+001 -1.770831621387947E+001 
-1.766094760678453E+001 -1.761133731055703E+001 -1.755938917312863E+001 -1.750500399216601E+001 
-1.744807952750514E+001 -1.738851052857774E+001 -1.732618877638841E+001 -1.726100314474457E+001 
-1.719283968155921E+001 -1.712158171264033E+001 -1.704710997016418E+001 -1.696930274907591E+001 
-1.688803609251062E+001 -1.680318400984073E+001 -1.671461872863745E+001 -1.662221098309542E+001 
-1.652583034066927E+001 -1.642534556993327E+001 -1.632062504866590E+001 -1.621153721577551E+001 
-1.609795106542163E+001 -1.597973668441101E+001 -1.585676583048066E+001 -1.572891255038371E+001 
-1.559605383300249E+001 -1.545807029311320E+001 -1.531484687887977E+001 -1.516627359422512E+001 
-1.501224622666525E+001 -1.485266706790581E+001 -1.468744561428635E+001 -1.451649923597902E+001 
-1.433975380281466E+001 -1.415714426258035E+001 -1.396861517863878E+001 -1.377412125126217E+001 
-1.357362788114559E+001 -1.336711188258632E+001 -1.315456253440494E+001 -1.293598326870968E+001 
-1.271139447267278E+001 -1.248083811023289E+001 -1.224438519575616E+001 -1.200214755883764E+001 
-1.175429581705324E+001 -1.150108591762845E+001 -1.124289678797648E+001 -1.098028099136082E+001 
-1.071402763971646E+001 -1.044522979442486E+001 -1.017533247654640E+001 -9.906103077102239E+000 
-9.639395997489380E+000 -9.376444848931923E+000 -9.116265700590001E+000 -8.857026981060001E+000 
-8.599167923800000E+000 -8.343325554000000E+000 -8.090141821380000E+000 -7.840256984500000E+000 
-7.594302442200000E+000 -7.352893103300000E+000 -7.116619411930000E+000 -6.886039172880000E+000 
-6.661669348160000E+000 -6.443978020230000E+000 -6.233376739010000E+000 -6.030213486020000E+000 