
     Program PHONON v.6.3 starts on 17Jan2019 at 17:38:53 

     This program is part of the open-source Quantum ESPRESSO suite
     for quantum simulation of materials; please cite
         "P. Giannozzi et al., J. Phys.:Condens. Matter 21 395502 (2009);
         "P. Giannozzi et al., J. Phys.:Condens. Matter 29 465901 (2017);
          URL http://www.quantum-espresso.org", 
     in publications or presentations arising from this work. More details at
     http://www.quantum-espresso.org/quote

     Parallel version (MPI), running on     1 processors

     MPI processes distributed on     1 nodes

     Reading data from directory:
     ./sic.save/

     IMPORTANT: XC functional enforced from input :
     Exchange-correlation      = PBE ( 1  4  3  4 0 0)
     Any further DFT definition will be discarded
     Please, verify this is what you really want

               file C.pbe-rrkjus.UPF: wavefunction(s)  2S 2P renormalized

     G-vector sticks info
     --------------------
     sticks:   dense  smooth     PW     G-vecs:    dense   smooth      PW
     Sum         559     283     91                 8801     3119     609



     Dynamical matrices for ( 3, 3, 3)  uniform grid of q-points
     (   4 q-points):
       N         xq(1)         xq(2)         xq(3) 
       1   0.000000000   0.000000000   0.000000000
       2  -0.333333333   0.333333333  -0.333333333
       3   0.000000000   0.666666667   0.000000000
       4   0.666666667  -0.000000000   0.666666667

     Calculation of q =    0.0000000   0.0000000   0.0000000

     --                                                                         

     bravais-lattice index     =            2
     lattice parameter (alat)  =       8.2370  a.u.
     unit-cell volume          =     139.7163 (a.u.)^3
     number of atoms/cell      =            2
     number of atomic types    =            2
     kinetic-energy cut-off    =      30.0000  Ry
     charge density cut-off    =     240.0000  Ry
     convergence threshold     =      1.0E-14
     beta                      =       0.7000
     number of iterations used =            4
     Exchange-correlation      = PBE ( 1  4  3  4 0 0)


     celldm(1)=    8.23700  celldm(2)=    0.00000  celldm(3)=    0.00000
     celldm(4)=    0.00000  celldm(5)=    0.00000  celldm(6)=    0.00000

     crystal axes: (cart. coord. in units of alat)
               a(1) = ( -0.5000  0.0000  0.5000 )  
               a(2) = (  0.0000  0.5000  0.5000 )  
               a(3) = ( -0.5000  0.5000  0.0000 )  

     reciprocal axes: (cart. coord. in units 2 pi/alat)
               b(1) = ( -1.0000 -1.0000  1.0000 )  
               b(2) = (  1.0000  1.0000  1.0000 )  
               b(3) = ( -1.0000  1.0000 -1.0000 )  


     Atoms inside the unit cell: 

     Cartesian axes

     site n.  atom      mass           positions (alat units)
        1     Si  28.0855   tau(    1) = (    0.00000    0.00000    0.00000  )
        2     C   12.0108   tau(    2) = (    0.25000    0.25000    0.25000  )

     Computing dynamical matrix for 
                    q = (   0.0000000   0.0000000   0.0000000 )

     25 Sym.Ops. (with q -> -q+G )


     G cutoff =  412.4674  (   8801 G-vectors)     FFT grid: ( 30, 30, 30)
     G cutoff =  206.2337  (   3119 G-vectors)  smooth grid: ( 24, 24, 24)
     number of k points=    16

     PseudoPot. # 1 for Si read from file:
     ../../pseudo/Si.pbe-rrkj.UPF
     MD5 check sum: 8af8e7039d270e0118f3b3651cf51d3d
     Pseudo is Norm-conserving, Zval =  4.0
     Generated by new atomic code, or converted to UPF format
     Using radial grid of  883 points,  3 beta functions with: 
                l(1) =   0
                l(2) =   0
                l(3) =   1

     PseudoPot. # 2 for C  read from file:
     ../../pseudo/C.pbe-rrkjus.UPF
     MD5 check sum: c9ac5a99bc85b198593446162950cd17
     Pseudo is Ultrasoft, Zval =  4.0
     Generated by new atomic code, or converted to UPF format
     Using radial grid of  627 points,  4 beta functions with: 
                l(1) =   0
                l(2) =   0
                l(3) =   1
                l(4) =   1
     Q(r) pseudized with 0 coefficients 


     Mode symmetry, T_d (-43m)  point group:


     Electric field:
     Dielectric constant
     Born effective charges in two ways 


     Atomic displacements:
     There are   2 irreducible representations

     Representation     1      3 modes -T_2  G_15 P_4  To be done

     Representation     2      3 modes -T_2  G_15 P_4  To be done



     Alpha used in Ewald sum =   2.5000
     PHONON       :      0.60s CPU      0.62s WALL


     Electric Fields Calculation

      iter #   1 total cpu time :     1.8 secs   av.it.:   5.6
      thresh= 1.000E-02 alpha_mix =  0.700 |ddv_scf|^2 =  6.113E-08

      iter #   2 total cpu time :     2.5 secs   av.it.:   9.5
      thresh= 2.472E-05 alpha_mix =  0.700 |ddv_scf|^2 =  1.737E-09

      iter #   3 total cpu time :     3.1 secs   av.it.:   9.5
      thresh= 4.168E-06 alpha_mix =  0.700 |ddv_scf|^2 =  1.696E-10

      iter #   4 total cpu time :     3.7 secs   av.it.:   9.3
      thresh= 1.302E-06 alpha_mix =  0.700 |ddv_scf|^2 =  9.032E-13

      iter #   5 total cpu time :     4.3 secs   av.it.:   9.6
      thresh= 9.504E-08 alpha_mix =  0.700 |ddv_scf|^2 =  8.238E-15

     End of electric fields calculation

          Dielectric constant in cartesian axis 

          (       7.445069317      -0.000000000      -0.000000000 )
          (      -0.000000000       7.445069317      -0.000000000 )
          (       0.000000000      -0.000000000       7.445069317 )

          Effective charges (d Force / dE) in cartesian axis

           atom      1   Si 
      Ex  (        2.65038        0.00000        0.00000 )
      Ey  (        0.00000        2.65038       -0.00000 )
      Ez  (        0.00000       -0.00000        2.65038 )
           atom      2   C  
      Ex  (       -2.82976       -0.00000        0.00000 )
      Ey  (       -0.00000       -2.82976        0.00000 )
      Ez  (        0.00000        0.00000       -2.82976 )


     Representation #  1 modes #   1  2  3

     Self-consistent Calculation

      iter #   1 total cpu time :     5.0 secs   av.it.:   6.0
      thresh= 1.000E-02 alpha_mix =  0.700 |ddv_scf|^2 =  4.064E-07

      iter #   2 total cpu time :     5.7 secs   av.it.:  10.1
      thresh= 6.375E-05 alpha_mix =  0.700 |ddv_scf|^2 =  4.777E-09

      iter #   3 total cpu time :     6.3 secs   av.it.:   9.9
      thresh= 6.912E-06 alpha_mix =  0.700 |ddv_scf|^2 =  1.602E-10

      iter #   4 total cpu time :     6.9 secs   av.it.:   8.5
      thresh= 1.266E-06 alpha_mix =  0.700 |ddv_scf|^2 =  6.913E-14

      iter #   5 total cpu time :     7.5 secs   av.it.:   9.4
      thresh= 2.629E-08 alpha_mix =  0.700 |ddv_scf|^2 =  3.297E-15

     End of self-consistent calculation

     Convergence has been achieved 


     Representation #  2 modes #   4  5  6

     Self-consistent Calculation

      iter #   1 total cpu time :     8.0 secs   av.it.:   5.2
      thresh= 1.000E-02 alpha_mix =  0.700 |ddv_scf|^2 =  2.116E-08

      iter #   2 total cpu time :     8.6 secs   av.it.:   9.8
      thresh= 1.454E-05 alpha_mix =  0.700 |ddv_scf|^2 =  8.360E-10

      iter #   3 total cpu time :     9.2 secs   av.it.:   9.0
      thresh= 2.891E-06 alpha_mix =  0.700 |ddv_scf|^2 =  6.964E-11

      iter #   4 total cpu time :     9.8 secs   av.it.:   9.0
      thresh= 8.345E-07 alpha_mix =  0.700 |ddv_scf|^2 =  2.357E-13

      iter #   5 total cpu time :    10.4 secs   av.it.:   9.6
      thresh= 4.855E-08 alpha_mix =  0.700 |ddv_scf|^2 =  3.124E-15

     End of self-consistent calculation

     Convergence has been achieved 

     Number of q in the star =    1
     List of q in the star:
          1   0.000000000   0.000000000   0.000000000

          Dielectric constant in cartesian axis 

          (       7.445069317      -0.000000000      -0.000000000 )
          (      -0.000000000       7.445069317      -0.000000000 )
          (       0.000000000      -0.000000000       7.445069317 )

          Effective charges (d Force / dE) in cartesian axis

           atom      1   Si 
      Ex  (        2.65038        0.00000        0.00000 )
      Ey  (        0.00000        2.65038       -0.00000 )
      Ez  (        0.00000       -0.00000        2.65038 )
           atom      2   C  
      Ex  (       -2.82976       -0.00000        0.00000 )
      Ey  (       -0.00000       -2.82976        0.00000 )
      Ez  (        0.00000        0.00000       -2.82976 )

          Effective charges (d P / du) in cartesian axis 

           atom      1   Si 
      Px  (        2.65046       -0.00000       -0.00000 )
      Py  (        0.00000        2.65046       -0.00000 )
      Pz  (        0.00000       -0.00000        2.65046 )
           atom      2   C  
      Px  (       -2.82981        0.00000        0.00000 )
      Py  (        0.00000       -2.82981        0.00000 )
      Pz  (       -0.00000        0.00000       -2.82981 )

     Diagonalizing the dynamical matrix

     q = (    0.000000000   0.000000000   0.000000000 ) 

 **************************************************************************
     freq (    1) =       0.175042 [THz] =       5.838768 [cm-1]
     freq (    2) =       0.175042 [THz] =       5.838768 [cm-1]
     freq (    3) =       0.175042 [THz] =       5.838768 [cm-1]
     freq (    4) =      23.383166 [THz] =     779.978467 [cm-1]
     freq (    5) =      23.383166 [THz] =     779.978467 [cm-1]
     freq (    6) =      23.383166 [THz] =     779.978467 [cm-1]
 **************************************************************************

     Mode symmetry, T_d (-43m)  point group:

     freq (  1 -  3) =          5.8  [cm-1]   --> T_2  G_15 P_4   I+R
     freq (  4 -  6) =        780.0  [cm-1]   --> T_2  G_15 P_4   I+R

     Calculation of q =   -0.3333333   0.3333333  -0.3333333

     Subspace diagonalization in iterative solution of the eigenvalue problem:
     a serial algorithm will be used


     G-vector sticks info
     --------------------
     sticks:   dense  smooth     PW     G-vecs:    dense   smooth      PW
     Sum         559     283    109                 8801     3119     725


     Title: 
     --                                                                         


     bravais-lattice index     =            2
     lattice parameter (alat)  =       8.2370  a.u.
     unit-cell volume          =     139.7163 (a.u.)^3
     number of atoms/cell      =            2
     number of atomic types    =            2
     number of electrons       =         8.00
     number of Kohn-Sham states=            4
     kinetic-energy cutoff     =      30.0000  Ry
     charge density cutoff     =     240.0000  Ry
     Exchange-correlation      = PBE ( 1  4  3  4 0 0)

     celldm(1)=   8.237000  celldm(2)=   0.000000  celldm(3)=   0.000000
     celldm(4)=   0.000000  celldm(5)=   0.000000  celldm(6)=   0.000000

     crystal axes: (cart. coord. in units of alat)
               a(1) = (  -0.500000   0.000000   0.500000 )  
               a(2) = (   0.000000   0.500000   0.500000 )  
               a(3) = (  -0.500000   0.500000   0.000000 )  

     reciprocal axes: (cart. coord. in units 2 pi/alat)
               b(1) = ( -1.000000 -1.000000  1.000000 )  
               b(2) = (  1.000000  1.000000  1.000000 )  
               b(3) = ( -1.000000  1.000000 -1.000000 )  


     PseudoPot. # 1 for Si read from file:
     ../../pseudo/Si.pbe-rrkj.UPF
     MD5 check sum: 8af8e7039d270e0118f3b3651cf51d3d
     Pseudo is Norm-conserving, Zval =  4.0
     Generated by new atomic code, or converted to UPF format
     Using radial grid of  883 points,  3 beta functions with: 
                l(1) =   0
                l(2) =   0
                l(3) =   1

     PseudoPot. # 2 for C  read from file:
     ../../pseudo/C.pbe-rrkjus.UPF
     MD5 check sum: c9ac5a99bc85b198593446162950cd17
     Pseudo is Ultrasoft, Zval =  4.0
     Generated by new atomic code, or converted to UPF format
     Using radial grid of  627 points,  4 beta functions with: 
                l(1) =   0
                l(2) =   0
                l(3) =   1
                l(4) =   1
     Q(r) pseudized with 0 coefficients 


     atomic species   valence    mass     pseudopotential
        Si             4.00    28.08550     Si( 1.00)
        C              4.00    12.01078     C ( 1.00)

     24 Sym. Ops. (no inversion) found



   Cartesian axes

     site n.     atom                  positions (alat units)
         1           Si  tau(   1) = (   0.0000000   0.0000000   0.0000000  )
         2           C   tau(   2) = (   0.2500000   0.2500000   0.2500000  )

     number of k points=   112

     Number of k-points >= 100: set verbosity='high' to print them.

     Dense  grid:     8801 G-vectors     FFT dimensions: (  30,  30,  30)

     Smooth grid:     3119 G-vectors     FFT dimensions: (  24,  24,  24)

     Estimated max dynamical RAM per process >      10.22 MB

     The potential is recalculated from file :
     ./_ph0/sic.q_2/sic.save/charge-density

     Starting wfcs are    8 atomic wfcs

     Band Structure Calculation
     Davidson diagonalization with overlap

     ethr =  1.25E-10,  avg # of iterations = 11.1

     total cpu time spent up to now is        1.7 secs

     End of band structure calculation

     Number of k-points >= 100: set verbosity='high' to print the bands.

     highest occupied level (ev):     9.4871

     Writing output data file sic.save/

     --                                                                         

     bravais-lattice index     =            2
     lattice parameter (alat)  =       8.2370  a.u.
     unit-cell volume          =     139.7163 (a.u.)^3
     number of atoms/cell      =            2
     number of atomic types    =            2
     kinetic-energy cut-off    =      30.0000  Ry
     charge density cut-off    =     240.0000  Ry
     convergence threshold     =      1.0E-14
     beta                      =       0.7000
     number of iterations used =            4
     Exchange-correlation      = PBE ( 1  4  3  4 0 0)


     celldm(1)=    8.23700  celldm(2)=    0.00000  celldm(3)=    0.00000
     celldm(4)=    0.00000  celldm(5)=    0.00000  celldm(6)=    0.00000

     crystal axes: (cart. coord. in units of alat)
               a(1) = ( -0.5000  0.0000  0.5000 )  
               a(2) = (  0.0000  0.5000  0.5000 )  
               a(3) = ( -0.5000  0.5000  0.0000 )  

     reciprocal axes: (cart. coord. in units 2 pi/alat)
               b(1) = ( -1.0000 -1.0000  1.0000 )  
               b(2) = (  1.0000  1.0000  1.0000 )  
               b(3) = ( -1.0000  1.0000 -1.0000 )  


     Atoms inside the unit cell: 

     Cartesian axes

     site n.  atom      mass           positions (alat units)
        1     Si  28.0855   tau(    1) = (    0.00000    0.00000    0.00000  )
        2     C   12.0108   tau(    2) = (    0.25000    0.25000    0.25000  )

     Computing dynamical matrix for 
                    q = (  -0.3333333   0.3333333  -0.3333333 )

      6 Sym.Ops. (no q -> -q+G )


     G cutoff =  412.4674  (   8801 G-vectors)     FFT grid: ( 30, 30, 30)
     G cutoff =  206.2337  (   3119 G-vectors)  smooth grid: ( 24, 24, 24)
     number of k points=   112

     PseudoPot. # 1 for Si read from file:
     ../../pseudo/Si.pbe-rrkj.UPF
     MD5 check sum: 8af8e7039d270e0118f3b3651cf51d3d
     Pseudo is Norm-conserving, Zval =  4.0
     Generated by new atomic code, or converted to UPF format
     Using radial grid of  883 points,  3 beta functions with: 
                l(1) =   0
                l(2) =   0
                l(3) =   1

     PseudoPot. # 2 for C  read from file:
     ../../pseudo/C.pbe-rrkjus.UPF
     MD5 check sum: c9ac5a99bc85b198593446162950cd17
     Pseudo is Ultrasoft, Zval =  4.0
     Generated by new atomic code, or converted to UPF format
     Using radial grid of  627 points,  4 beta functions with: 
                l(1) =   0
                l(2) =   0
                l(3) =   1
                l(4) =   1
     Q(r) pseudized with 0 coefficients 


     Mode symmetry, C_3v (3m)   point group:


     Atomic displacements:
     There are   4 irreducible representations

     Representation     1      1 modes -A_1  L_1  To be done

     Representation     2      1 modes -A_1  L_1  To be done

     Representation     3      2 modes -E    L_3  To be done

     Representation     4      2 modes -E    L_3  To be done



     Alpha used in Ewald sum =   2.5000
     PHONON       :     12.27s CPU     12.67s WALL



     Representation #  1 mode #   1

     Self-consistent Calculation

      iter #   1 total cpu time :    13.2 secs   av.it.:   6.0
      thresh= 1.000E-02 alpha_mix =  0.700 |ddv_scf|^2 =  1.937E-04

      iter #   2 total cpu time :    13.8 secs   av.it.:   8.2
      thresh= 1.392E-03 alpha_mix =  0.700 |ddv_scf|^2 =  6.505E-04

      iter #   3 total cpu time :    14.4 secs   av.it.:   7.2
      thresh= 2.550E-03 alpha_mix =  0.700 |ddv_scf|^2 =  1.508E-07

      iter #   4 total cpu time :    15.0 secs   av.it.:   8.5
      thresh= 3.884E-05 alpha_mix =  0.700 |ddv_scf|^2 =  1.597E-08

      iter #   5 total cpu time :    15.6 secs   av.it.:   8.4
      thresh= 1.264E-05 alpha_mix =  0.700 |ddv_scf|^2 =  2.733E-10

      iter #   6 total cpu time :    16.3 secs   av.it.:   8.4
      thresh= 1.653E-06 alpha_mix =  0.700 |ddv_scf|^2 =  1.208E-11

      iter #   7 total cpu time :    17.0 secs   av.it.:   8.7
      thresh= 3.476E-07 alpha_mix =  0.700 |ddv_scf|^2 =  4.504E-11

      iter #   8 total cpu time :    17.5 secs   av.it.:   7.3
      thresh= 6.711E-07 alpha_mix =  0.700 |ddv_scf|^2 =  2.796E-13

      iter #   9 total cpu time :    18.2 secs   av.it.:   8.0
      thresh= 5.287E-08 alpha_mix =  0.700 |ddv_scf|^2 =  9.455E-15

     End of self-consistent calculation

     Convergence has been achieved 


     Representation #  2 mode #   2

     Self-consistent Calculation

      iter #   1 total cpu time :    18.7 secs   av.it.:   6.2
      thresh= 1.000E-02 alpha_mix =  0.700 |ddv_scf|^2 =  4.296E-04

      iter #   2 total cpu time :    19.4 secs   av.it.:   8.1
      thresh= 2.073E-03 alpha_mix =  0.700 |ddv_scf|^2 =  1.464E-03

      iter #   3 total cpu time :    20.0 secs   av.it.:   7.2
      thresh= 3.826E-03 alpha_mix =  0.700 |ddv_scf|^2 =  8.894E-07

      iter #   4 total cpu time :    20.6 secs   av.it.:   8.5
      thresh= 9.431E-05 alpha_mix =  0.700 |ddv_scf|^2 =  7.418E-08

      iter #   5 total cpu time :    21.3 secs   av.it.:   8.1
      thresh= 2.724E-05 alpha_mix =  0.700 |ddv_scf|^2 =  1.347E-09

      iter #   6 total cpu time :    21.9 secs   av.it.:   8.0
      thresh= 3.670E-06 alpha_mix =  0.700 |ddv_scf|^2 =  5.442E-11

      iter #   7 total cpu time :    22.5 secs   av.it.:   8.2
      thresh= 7.377E-07 alpha_mix =  0.700 |ddv_scf|^2 =  8.869E-11

      iter #   8 total cpu time :    23.1 secs   av.it.:   7.3
      thresh= 9.418E-07 alpha_mix =  0.700 |ddv_scf|^2 =  1.426E-13

      iter #   9 total cpu time :    23.7 secs   av.it.:   8.3
      thresh= 3.776E-08 alpha_mix =  0.700 |ddv_scf|^2 =  1.155E-14

      iter #  10 total cpu time :    24.4 secs   av.it.:   8.4
      thresh= 1.075E-08 alpha_mix =  0.700 |ddv_scf|^2 =  1.022E-15

     End of self-consistent calculation

     Convergence has been achieved 


     Representation #  3 modes #   3  4

     Self-consistent Calculation

      iter #   1 total cpu time :    25.4 secs   av.it.:   6.0
      thresh= 1.000E-02 alpha_mix =  0.700 |ddv_scf|^2 =  1.128E-06

      iter #   2 total cpu time :    26.8 secs   av.it.:   9.6
      thresh= 1.062E-04 alpha_mix =  0.700 |ddv_scf|^2 =  2.192E-08

      iter #   3 total cpu time :    28.2 secs   av.it.:   9.4
      thresh= 1.481E-05 alpha_mix =  0.700 |ddv_scf|^2 =  4.058E-10

      iter #   4 total cpu time :    29.4 secs   av.it.:   8.2
      thresh= 2.014E-06 alpha_mix =  0.700 |ddv_scf|^2 =  6.201E-13

      iter #   5 total cpu time :    30.7 secs   av.it.:   9.1
      thresh= 7.875E-08 alpha_mix =  0.700 |ddv_scf|^2 =  8.762E-15

     End of self-consistent calculation

     Convergence has been achieved 


     Representation #  4 modes #   5  6

     Self-consistent Calculation

      iter #   1 total cpu time :    31.6 secs   av.it.:   5.1
      thresh= 1.000E-02 alpha_mix =  0.700 |ddv_scf|^2 =  8.301E-08

      iter #   2 total cpu time :    33.0 secs   av.it.:   9.4
      thresh= 2.881E-05 alpha_mix =  0.700 |ddv_scf|^2 =  2.590E-09

      iter #   3 total cpu time :    34.3 secs   av.it.:   9.0
      thresh= 5.089E-06 alpha_mix =  0.700 |ddv_scf|^2 =  2.714E-10

      iter #   4 total cpu time :    35.5 secs   av.it.:   8.7
      thresh= 1.648E-06 alpha_mix =  0.700 |ddv_scf|^2 =  2.093E-12

      iter #   5 total cpu time :    36.8 secs   av.it.:   8.8
      thresh= 1.447E-07 alpha_mix =  0.700 |ddv_scf|^2 =  7.577E-15

     End of self-consistent calculation

     Convergence has been achieved 

     Number of q in the star =    4
     List of q in the star:
          1  -0.333333333   0.333333333  -0.333333333
          2   0.333333333   0.333333333   0.333333333
          3   0.333333333  -0.333333333  -0.333333333
          4  -0.333333333  -0.333333333   0.333333333
     In addition there is the -q list: 
          1   0.333333333  -0.333333333   0.333333333
          2  -0.333333333  -0.333333333  -0.333333333
          3  -0.333333333   0.333333333   0.333333333
          4   0.333333333   0.333333333  -0.333333333

     Diagonalizing the dynamical matrix

     q = (   -0.333333333   0.333333333  -0.333333333 ) 

 **************************************************************************
     freq (    1) =       6.909085 [THz] =     230.462260 [cm-1]
     freq (    2) =       6.909085 [THz] =     230.462260 [cm-1]
     freq (    3) =      15.118368 [THz] =     504.294469 [cm-1]
     freq (    4) =      22.761878 [THz] =     759.254521 [cm-1]
     freq (    5) =      22.761878 [THz] =     759.254521 [cm-1]
     freq (    6) =      26.193800 [THz] =     873.731126 [cm-1]
 **************************************************************************

     Mode symmetry, C_3v (3m)   point group:

     freq (  1 -  2) =        230.5  [cm-1]   --> E    L_3           
     freq (  3 -  3) =        504.3  [cm-1]   --> A_1  L_1           
     freq (  4 -  5) =        759.3  [cm-1]   --> E    L_3           
     freq (  6 -  6) =        873.7  [cm-1]   --> A_1  L_1           

     Calculation of q =    0.0000000   0.6666667   0.0000000

     G-vector sticks info
     --------------------
     sticks:   dense  smooth     PW     G-vecs:    dense   smooth      PW
     Sum         559     283    109                 8801     3119     749


     Title: 
     --                                                                         


     bravais-lattice index     =            2
     lattice parameter (alat)  =       8.2370  a.u.
     unit-cell volume          =     139.7163 (a.u.)^3
     number of atoms/cell      =            2
     number of atomic types    =            2
     number of electrons       =         8.00
     number of Kohn-Sham states=            4
     kinetic-energy cutoff     =      30.0000  Ry
     charge density cutoff     =     240.0000  Ry
     Exchange-correlation      = PBE ( 1  4  3  4 0 0)

     celldm(1)=   8.237000  celldm(2)=   0.000000  celldm(3)=   0.000000
     celldm(4)=   0.000000  celldm(5)=   0.000000  celldm(6)=   0.000000

     crystal axes: (cart. coord. in units of alat)
               a(1) = (  -0.500000   0.000000   0.500000 )  
               a(2) = (   0.000000   0.500000   0.500000 )  
               a(3) = (  -0.500000   0.500000   0.000000 )  

     reciprocal axes: (cart. coord. in units 2 pi/alat)
               b(1) = ( -1.000000 -1.000000  1.000000 )  
               b(2) = (  1.000000  1.000000  1.000000 )  
               b(3) = ( -1.000000  1.000000 -1.000000 )  


     PseudoPot. # 1 for Si read from file:
     ../../pseudo/Si.pbe-rrkj.UPF
     MD5 check sum: 8af8e7039d270e0118f3b3651cf51d3d
     Pseudo is Norm-conserving, Zval =  4.0
     Generated by new atomic code, or converted to UPF format
     Using radial grid of  883 points,  3 beta functions with: 
                l(1) =   0
                l(2) =   0
                l(3) =   1

     PseudoPot. # 2 for C  read from file:
     ../../pseudo/C.pbe-rrkjus.UPF
     MD5 check sum: c9ac5a99bc85b198593446162950cd17
     Pseudo is Ultrasoft, Zval =  4.0
     Generated by new atomic code, or converted to UPF format
     Using radial grid of  627 points,  4 beta functions with: 
                l(1) =   0
                l(2) =   0
                l(3) =   1
                l(4) =   1
     Q(r) pseudized with 0 coefficients 


     atomic species   valence    mass     pseudopotential
        Si             4.00    28.08550     Si( 1.00)
        C              4.00    12.01078     C ( 1.00)

     24 Sym. Ops. (no inversion) found



   Cartesian axes

     site n.     atom                  positions (alat units)
         1           Si  tau(   1) = (   0.0000000   0.0000000   0.0000000  )
         2           C   tau(   2) = (   0.2500000   0.2500000   0.2500000  )

     number of k points=   150

     Number of k-points >= 100: set verbosity='high' to print them.

     Dense  grid:     8801 G-vectors     FFT dimensions: (  30,  30,  30)

     Smooth grid:     3119 G-vectors     FFT dimensions: (  24,  24,  24)

     Estimated max dynamical RAM per process >      10.22 MB

     The potential is recalculated from file :
     ./_ph0/sic.q_3/sic.save/charge-density

     Starting wfcs are    8 atomic wfcs

     Band Structure Calculation
     Davidson diagonalization with overlap

     ethr =  1.25E-10,  avg # of iterations = 11.1

     total cpu time spent up to now is        3.8 secs

     End of band structure calculation

     Number of k-points >= 100: set verbosity='high' to print the bands.

     highest occupied level (ev):     9.4871

     Writing output data file sic.save/

     --                                                                         

     bravais-lattice index     =            2
     lattice parameter (alat)  =       8.2370  a.u.
     unit-cell volume          =     139.7163 (a.u.)^3
     number of atoms/cell      =            2
     number of atomic types    =            2
     kinetic-energy cut-off    =      30.0000  Ry
     charge density cut-off    =     240.0000  Ry
     convergence threshold     =      1.0E-14
     beta                      =       0.7000
     number of iterations used =            4
     Exchange-correlation      = PBE ( 1  4  3  4 0 0)


     celldm(1)=    8.23700  celldm(2)=    0.00000  celldm(3)=    0.00000
     celldm(4)=    0.00000  celldm(5)=    0.00000  celldm(6)=    0.00000

     crystal axes: (cart. coord. in units of alat)
               a(1) = ( -0.5000  0.0000  0.5000 )  
               a(2) = (  0.0000  0.5000  0.5000 )  
               a(3) = ( -0.5000  0.5000  0.0000 )  

     reciprocal axes: (cart. coord. in units 2 pi/alat)
               b(1) = ( -1.0000 -1.0000  1.0000 )  
               b(2) = (  1.0000  1.0000  1.0000 )  
               b(3) = ( -1.0000  1.0000 -1.0000 )  


     Atoms inside the unit cell: 

     Cartesian axes

     site n.  atom      mass           positions (alat units)
        1     Si  28.0855   tau(    1) = (    0.00000    0.00000    0.00000  )
        2     C   12.0108   tau(    2) = (    0.25000    0.25000    0.25000  )

     Computing dynamical matrix for 
                    q = (   0.0000000   0.6666667   0.0000000 )

      4 Sym.Ops. (no q -> -q+G )


     G cutoff =  412.4674  (   8801 G-vectors)     FFT grid: ( 30, 30, 30)
     G cutoff =  206.2337  (   3119 G-vectors)  smooth grid: ( 24, 24, 24)
     number of k points=   150

     PseudoPot. # 1 for Si read from file:
     ../../pseudo/Si.pbe-rrkj.UPF
     MD5 check sum: 8af8e7039d270e0118f3b3651cf51d3d
     Pseudo is Norm-conserving, Zval =  4.0
     Generated by new atomic code, or converted to UPF format
     Using radial grid of  883 points,  3 beta functions with: 
                l(1) =   0
                l(2) =   0
                l(3) =   1

     PseudoPot. # 2 for C  read from file:
     ../../pseudo/C.pbe-rrkjus.UPF
     MD5 check sum: c9ac5a99bc85b198593446162950cd17
     Pseudo is Ultrasoft, Zval =  4.0
     Generated by new atomic code, or converted to UPF format
     Using radial grid of  627 points,  4 beta functions with: 
                l(1) =   0
                l(2) =   0
                l(3) =   1
                l(4) =   1
     Q(r) pseudized with 0 coefficients 


     Mode symmetry, C_2v (mm2)  point group:


     Atomic displacements:
     There are   6 irreducible representations

     Representation     1      1 modes -A_1  D_1  S_1  To be done

     Representation     2      1 modes -A_1  D_1  S_1  To be done

     Representation     3      1 modes -B_1  D_3  S_3  To be done

     Representation     4      1 modes -B_1  D_3  S_3  To be done

     Representation     5      1 modes -B_2  D_4  S_4  To be done

     Representation     6      1 modes -B_2  D_4  S_4  To be done



     Alpha used in Ewald sum =   2.5000
     PHONON       :     38.71s CPU     39.61s WALL



     Representation #  1 mode #   1

     Self-consistent Calculation

      iter #   1 total cpu time :    40.3 secs   av.it.:   6.2
      thresh= 1.000E-02 alpha_mix =  0.700 |ddv_scf|^2 =  2.426E-04

      iter #   2 total cpu time :    41.1 secs   av.it.:   8.2
      thresh= 1.557E-03 alpha_mix =  0.700 |ddv_scf|^2 =  6.438E-04

      iter #   3 total cpu time :    41.9 secs   av.it.:   7.4
      thresh= 2.537E-03 alpha_mix =  0.700 |ddv_scf|^2 =  9.730E-07

      iter #   4 total cpu time :    42.7 secs   av.it.:   8.5
      thresh= 9.864E-05 alpha_mix =  0.700 |ddv_scf|^2 =  6.433E-08

      iter #   5 total cpu time :    43.5 secs   av.it.:   8.0
      thresh= 2.536E-05 alpha_mix =  0.700 |ddv_scf|^2 =  4.350E-10

      iter #   6 total cpu time :    44.3 secs   av.it.:   7.9
      thresh= 2.086E-06 alpha_mix =  0.700 |ddv_scf|^2 =  1.733E-12

      iter #   7 total cpu time :    45.2 secs   av.it.:   8.2
      thresh= 1.316E-07 alpha_mix =  0.700 |ddv_scf|^2 =  2.249E-13

      iter #   8 total cpu time :    46.0 secs   av.it.:   8.0
      thresh= 4.742E-08 alpha_mix =  0.700 |ddv_scf|^2 =  1.088E-13

      iter #   9 total cpu time :    46.8 secs   av.it.:   7.8
      thresh= 3.298E-08 alpha_mix =  0.700 |ddv_scf|^2 =  6.246E-15

     End of self-consistent calculation

     Convergence has been achieved 


     Representation #  2 mode #   2

     Self-consistent Calculation

      iter #   1 total cpu time :    47.4 secs   av.it.:   5.9
      thresh= 1.000E-02 alpha_mix =  0.700 |ddv_scf|^2 =  1.037E-04

      iter #   2 total cpu time :    48.3 secs   av.it.:   8.3
      thresh= 1.018E-03 alpha_mix =  0.700 |ddv_scf|^2 =  2.947E-04

      iter #   3 total cpu time :    49.0 secs   av.it.:   7.5
      thresh= 1.717E-03 alpha_mix =  0.700 |ddv_scf|^2 =  9.696E-08

      iter #   4 total cpu time :    49.8 secs   av.it.:   7.7
      thresh= 3.114E-05 alpha_mix =  0.700 |ddv_scf|^2 =  3.446E-09

      iter #   5 total cpu time :    50.7 secs   av.it.:   8.5
      thresh= 5.871E-06 alpha_mix =  0.700 |ddv_scf|^2 =  4.674E-10

      iter #   6 total cpu time :    51.5 secs   av.it.:   8.4
      thresh= 2.162E-06 alpha_mix =  0.700 |ddv_scf|^2 =  1.020E-12

      iter #   7 total cpu time :    52.4 secs   av.it.:   8.4
      thresh= 1.010E-07 alpha_mix =  0.700 |ddv_scf|^2 =  6.531E-14

      iter #   8 total cpu time :    53.2 secs   av.it.:   7.9
      thresh= 2.556E-08 alpha_mix =  0.700 |ddv_scf|^2 =  2.247E-14

      iter #   9 total cpu time :    54.0 secs   av.it.:   7.9
      thresh= 1.499E-08 alpha_mix =  0.700 |ddv_scf|^2 =  7.442E-15

     End of self-consistent calculation

     Convergence has been achieved 


     Representation #  3 mode #   3

     Self-consistent Calculation

      iter #   1 total cpu time :    54.6 secs   av.it.:   5.2
      thresh= 1.000E-02 alpha_mix =  0.700 |ddv_scf|^2 =  9.606E-07

      iter #   2 total cpu time :    55.4 secs   av.it.:   8.5
      thresh= 9.801E-05 alpha_mix =  0.700 |ddv_scf|^2 =  5.107E-08

      iter #   3 total cpu time :    56.3 secs   av.it.:   8.4
      thresh= 2.260E-05 alpha_mix =  0.700 |ddv_scf|^2 =  1.580E-09

      iter #   4 total cpu time :    57.1 secs   av.it.:   7.8
      thresh= 3.975E-06 alpha_mix =  0.700 |ddv_scf|^2 =  2.910E-12

      iter #   5 total cpu time :    57.9 secs   av.it.:   8.4
      thresh= 1.706E-07 alpha_mix =  0.700 |ddv_scf|^2 =  2.805E-14

      iter #   6 total cpu time :    58.7 secs   av.it.:   8.1
      thresh= 1.675E-08 alpha_mix =  0.700 |ddv_scf|^2 =  3.016E-16

     End of self-consistent calculation

     Convergence has been achieved 


     Representation #  4 mode #   4

     Self-consistent Calculation

      iter #   1 total cpu time :    59.4 secs   av.it.:   5.8
      thresh= 1.000E-02 alpha_mix =  0.700 |ddv_scf|^2 =  7.597E-06

      iter #   2 total cpu time :    60.3 secs   av.it.:   8.5
      thresh= 2.756E-04 alpha_mix =  0.700 |ddv_scf|^2 =  4.131E-07

      iter #   3 total cpu time :    61.1 secs   av.it.:   8.4
      thresh= 6.428E-05 alpha_mix =  0.700 |ddv_scf|^2 =  2.105E-09

      iter #   4 total cpu time :    61.9 secs   av.it.:   7.8
      thresh= 4.588E-06 alpha_mix =  0.700 |ddv_scf|^2 =  1.479E-11

      iter #   5 total cpu time :    62.8 secs   av.it.:   8.2
      thresh= 3.846E-07 alpha_mix =  0.700 |ddv_scf|^2 =  3.326E-14

      iter #   6 total cpu time :    63.6 secs   av.it.:   8.0
      thresh= 1.824E-08 alpha_mix =  0.700 |ddv_scf|^2 =  1.360E-15

     End of self-consistent calculation

     Convergence has been achieved 


     Representation #  5 mode #   5

     Self-consistent Calculation

      iter #   1 total cpu time :    64.3 secs   av.it.:   5.8
      thresh= 1.000E-02 alpha_mix =  0.700 |ddv_scf|^2 =  7.597E-06

      iter #   2 total cpu time :    65.1 secs   av.it.:   8.5
      thresh= 2.756E-04 alpha_mix =  0.700 |ddv_scf|^2 =  4.131E-07

      iter #   3 total cpu time :    65.9 secs   av.it.:   8.4
      thresh= 6.427E-05 alpha_mix =  0.700 |ddv_scf|^2 =  2.105E-09

      iter #   4 total cpu time :    66.7 secs   av.it.:   7.7
      thresh= 4.588E-06 alpha_mix =  0.700 |ddv_scf|^2 =  1.478E-11

      iter #   5 total cpu time :    67.6 secs   av.it.:   8.2
      thresh= 3.845E-07 alpha_mix =  0.700 |ddv_scf|^2 =  3.329E-14

      iter #   6 total cpu time :    68.4 secs   av.it.:   8.0
      thresh= 1.824E-08 alpha_mix =  0.700 |ddv_scf|^2 =  1.360E-15

     End of self-consistent calculation

     Convergence has been achieved 


     Representation #  6 mode #   6

     Self-consistent Calculation

      iter #   1 total cpu time :    69.0 secs   av.it.:   5.2
      thresh= 1.000E-02 alpha_mix =  0.700 |ddv_scf|^2 =  9.606E-07

      iter #   2 total cpu time :    69.9 secs   av.it.:   8.5
      thresh= 9.801E-05 alpha_mix =  0.700 |ddv_scf|^2 =  5.106E-08

      iter #   3 total cpu time :    70.7 secs   av.it.:   8.4
      thresh= 2.260E-05 alpha_mix =  0.700 |ddv_scf|^2 =  1.580E-09

      iter #   4 total cpu time :    71.5 secs   av.it.:   7.8
      thresh= 3.975E-06 alpha_mix =  0.700 |ddv_scf|^2 =  2.910E-12

      iter #   5 total cpu time :    72.3 secs   av.it.:   8.4
      thresh= 1.706E-07 alpha_mix =  0.700 |ddv_scf|^2 =  2.808E-14

      iter #   6 total cpu time :    73.1 secs   av.it.:   8.1
      thresh= 1.676E-08 alpha_mix =  0.700 |ddv_scf|^2 =  3.045E-16

     End of self-consistent calculation

     Convergence has been achieved 

     Number of q in the star =    6
     List of q in the star:
          1   0.000000000   0.666666667   0.000000000
          2   0.000000000   0.000000000  -0.666666667
          3  -0.666666667   0.000000000   0.000000000
          4   0.666666667   0.000000000   0.000000000
          5   0.000000000  -0.666666667   0.000000000
          6   0.000000000   0.000000000   0.666666667

     Diagonalizing the dynamical matrix

     q = (    0.000000000   0.666666667   0.000000000 ) 

 **************************************************************************
     freq (    1) =       9.687377 [THz] =     323.136110 [cm-1]
     freq (    2) =       9.687377 [THz] =     323.136110 [cm-1]
     freq (    3) =      15.198566 [THz] =     506.969600 [cm-1]
     freq (    4) =      22.687755 [THz] =     756.782031 [cm-1]
     freq (    5) =      22.687755 [THz] =     756.782031 [cm-1]
     freq (    6) =      26.232553 [THz] =     875.023782 [cm-1]
 **************************************************************************

     Mode symmetry, C_2v (mm2)  point group:

     freq (  1 -  1) =        323.1  [cm-1]   --> B_1  D_3  S_3      
     freq (  2 -  2) =        323.1  [cm-1]   --> B_2  D_4  S_4      
     freq (  3 -  3) =        507.0  [cm-1]   --> A_1  D_1  S_1      
     freq (  4 -  4) =        756.8  [cm-1]   --> B_1  D_3  S_3      
     freq (  5 -  5) =        756.8  [cm-1]   --> B_2  D_4  S_4      
     freq (  6 -  6) =        875.0  [cm-1]   --> A_1  D_1  S_1      

     Calculation of q =    0.6666667  -0.0000000   0.6666667

     G-vector sticks info
     --------------------
     sticks:   dense  smooth     PW     G-vecs:    dense   smooth      PW
     Sum         559     283    121                 8801     3119     869


     Title: 
     --                                                                         


     bravais-lattice index     =            2
     lattice parameter (alat)  =       8.2370  a.u.
     unit-cell volume          =     139.7163 (a.u.)^3
     number of atoms/cell      =            2
     number of atomic types    =            2
     number of electrons       =         8.00
     number of Kohn-Sham states=            4
     kinetic-energy cutoff     =      30.0000  Ry
     charge density cutoff     =     240.0000  Ry
     Exchange-correlation      = PBE ( 1  4  3  4 0 0)

     celldm(1)=   8.237000  celldm(2)=   0.000000  celldm(3)=   0.000000
     celldm(4)=   0.000000  celldm(5)=   0.000000  celldm(6)=   0.000000

     crystal axes: (cart. coord. in units of alat)
               a(1) = (  -0.500000   0.000000   0.500000 )  
               a(2) = (   0.000000   0.500000   0.500000 )  
               a(3) = (  -0.500000   0.500000   0.000000 )  

     reciprocal axes: (cart. coord. in units 2 pi/alat)
               b(1) = ( -1.000000 -1.000000  1.000000 )  
               b(2) = (  1.000000  1.000000  1.000000 )  
               b(3) = ( -1.000000  1.000000 -1.000000 )  


     PseudoPot. # 1 for Si read from file:
     ../../pseudo/Si.pbe-rrkj.UPF
     MD5 check sum: 8af8e7039d270e0118f3b3651cf51d3d
     Pseudo is Norm-conserving, Zval =  4.0
     Generated by new atomic code, or converted to UPF format
     Using radial grid of  883 points,  3 beta functions with: 
                l(1) =   0
                l(2) =   0
                l(3) =   1

     PseudoPot. # 2 for C  read from file:
     ../../pseudo/C.pbe-rrkjus.UPF
     MD5 check sum: c9ac5a99bc85b198593446162950cd17
     Pseudo is Ultrasoft, Zval =  4.0
     Generated by new atomic code, or converted to UPF format
     Using radial grid of  627 points,  4 beta functions with: 
                l(1) =   0
                l(2) =   0
                l(3) =   1
                l(4) =   1
     Q(r) pseudized with 0 coefficients 


     atomic species   valence    mass     pseudopotential
        Si             4.00    28.08550     Si( 1.00)
        C              4.00    12.01078     C ( 1.00)

     24 Sym. Ops. (no inversion) found



   Cartesian axes

     site n.     atom                  positions (alat units)
         1           Si  tau(   1) = (   0.0000000   0.0000000   0.0000000  )
         2           C   tau(   2) = (   0.2500000   0.2500000   0.2500000  )

     number of k points=   252

     Number of k-points >= 100: set verbosity='high' to print them.

     Dense  grid:     8801 G-vectors     FFT dimensions: (  30,  30,  30)

     Smooth grid:     3119 G-vectors     FFT dimensions: (  24,  24,  24)

     Estimated max dynamical RAM per process >      10.24 MB

     The potential is recalculated from file :
     ./_ph0/sic.q_4/sic.save/charge-density

     Starting wfcs are    8 atomic wfcs

     Band Structure Calculation
     Davidson diagonalization with overlap

     ethr =  1.25E-10,  avg # of iterations = 11.0

     total cpu time spent up to now is        7.4 secs

     End of band structure calculation

     Number of k-points >= 100: set verbosity='high' to print the bands.

     highest occupied level (ev):     9.4871

     Writing output data file sic.save/

     --                                                                         

     bravais-lattice index     =            2
     lattice parameter (alat)  =       8.2370  a.u.
     unit-cell volume          =     139.7163 (a.u.)^3
     number of atoms/cell      =            2
     number of atomic types    =            2
     kinetic-energy cut-off    =      30.0000  Ry
     charge density cut-off    =     240.0000  Ry
     convergence threshold     =      1.0E-14
     beta                      =       0.7000
     number of iterations used =            4
     Exchange-correlation      = PBE ( 1  4  3  4 0 0)


     celldm(1)=    8.23700  celldm(2)=    0.00000  celldm(3)=    0.00000
     celldm(4)=    0.00000  celldm(5)=    0.00000  celldm(6)=    0.00000

     crystal axes: (cart. coord. in units of alat)
               a(1) = ( -0.5000  0.0000  0.5000 )  
               a(2) = (  0.0000  0.5000  0.5000 )  
               a(3) = ( -0.5000  0.5000  0.0000 )  

     reciprocal axes: (cart. coord. in units 2 pi/alat)
               b(1) = ( -1.0000 -1.0000  1.0000 )  
               b(2) = (  1.0000  1.0000  1.0000 )  
               b(3) = ( -1.0000  1.0000 -1.0000 )  


     Atoms inside the unit cell: 

     Cartesian axes

     site n.  atom      mass           positions (alat units)
        1     Si  28.0855   tau(    1) = (    0.00000    0.00000    0.00000  )
        2     C   12.0108   tau(    2) = (    0.25000    0.25000    0.25000  )

     Computing dynamical matrix for 
                    q = (   0.6666667  -0.0000000   0.6666667 )

      2 Sym.Ops. (no q -> -q+G )


     G cutoff =  412.4674  (   8801 G-vectors)     FFT grid: ( 30, 30, 30)
     G cutoff =  206.2337  (   3119 G-vectors)  smooth grid: ( 24, 24, 24)
     number of k points=   252

     PseudoPot. # 1 for Si read from file:
     ../../pseudo/Si.pbe-rrkj.UPF
     MD5 check sum: 8af8e7039d270e0118f3b3651cf51d3d
     Pseudo is Norm-conserving, Zval =  4.0
     Generated by new atomic code, or converted to UPF format
     Using radial grid of  883 points,  3 beta functions with: 
                l(1) =   0
                l(2) =   0
                l(3) =   1

     PseudoPot. # 2 for C  read from file:
     ../../pseudo/C.pbe-rrkjus.UPF
     MD5 check sum: c9ac5a99bc85b198593446162950cd17
     Pseudo is Ultrasoft, Zval =  4.0
     Generated by new atomic code, or converted to UPF format
     Using radial grid of  627 points,  4 beta functions with: 
                l(1) =   0
                l(2) =   0
                l(3) =   1
                l(4) =   1
     Q(r) pseudized with 0 coefficients 


     Mode symmetry, C_s (m)     point group:


     Atomic displacements:
     There are   6 irreducible representations

     Representation     1      1 modes -A'  To be done

     Representation     2      1 modes -A'  To be done

     Representation     3      1 modes -A'  To be done

     Representation     4      1 modes -A'  To be done

     Representation     5      1 modes -A''  To be done

     Representation     6      1 modes -A''  To be done



     Alpha used in Ewald sum =   2.5000
     PHONON       :   1m15.74s CPU   1m17.54s WALL



     Representation #  1 mode #   1

     Self-consistent Calculation

      iter #   1 total cpu time :    78.6 secs   av.it.:   5.9
      thresh= 1.000E-02 alpha_mix =  0.700 |ddv_scf|^2 =  1.417E-05

      iter #   2 total cpu time :    80.1 secs   av.it.:   8.9
      thresh= 3.764E-04 alpha_mix =  0.700 |ddv_scf|^2 =  1.438E-05

      iter #   3 total cpu time :    81.5 secs   av.it.:   8.3
      thresh= 3.792E-04 alpha_mix =  0.700 |ddv_scf|^2 =  2.600E-07

      iter #   4 total cpu time :    82.9 secs   av.it.:   8.3
      thresh= 5.099E-05 alpha_mix =  0.700 |ddv_scf|^2 =  3.632E-09

      iter #   5 total cpu time :    84.4 secs   av.it.:   8.4
      thresh= 6.026E-06 alpha_mix =  0.700 |ddv_scf|^2 =  4.614E-10

      iter #   6 total cpu time :    85.8 secs   av.it.:   8.5
      thresh= 2.148E-06 alpha_mix =  0.700 |ddv_scf|^2 =  4.045E-11

      iter #   7 total cpu time :    87.2 secs   av.it.:   8.4
      thresh= 6.360E-07 alpha_mix =  0.700 |ddv_scf|^2 =  5.141E-14

      iter #   8 total cpu time :    88.6 secs   av.it.:   9.0
      thresh= 2.267E-08 alpha_mix =  0.700 |ddv_scf|^2 =  6.918E-15

     End of self-consistent calculation

     Convergence has been achieved 


     Representation #  2 mode #   2

     Self-consistent Calculation

      iter #   1 total cpu time :    89.8 secs   av.it.:   6.2
      thresh= 1.000E-02 alpha_mix =  0.700 |ddv_scf|^2 =  3.299E-05

      iter #   2 total cpu time :    91.3 secs   av.it.:   8.8
      thresh= 5.744E-04 alpha_mix =  0.700 |ddv_scf|^2 =  1.339E-05

      iter #   3 total cpu time :    92.7 secs   av.it.:   8.5
      thresh= 3.659E-04 alpha_mix =  0.700 |ddv_scf|^2 =  3.793E-07

      iter #   4 total cpu time :    94.1 secs   av.it.:   8.3
      thresh= 6.159E-05 alpha_mix =  0.700 |ddv_scf|^2 =  5.930E-09

      iter #   5 total cpu time :    95.5 secs   av.it.:   8.4
      thresh= 7.700E-06 alpha_mix =  0.700 |ddv_scf|^2 =  4.230E-10

      iter #   6 total cpu time :    96.9 secs   av.it.:   8.6
      thresh= 2.057E-06 alpha_mix =  0.700 |ddv_scf|^2 =  4.342E-11

      iter #   7 total cpu time :    98.3 secs   av.it.:   8.6
      thresh= 6.589E-07 alpha_mix =  0.700 |ddv_scf|^2 =  1.595E-12

      iter #   8 total cpu time :    99.8 secs   av.it.:   8.5
      thresh= 1.263E-07 alpha_mix =  0.700 |ddv_scf|^2 =  5.105E-14

      iter #   9 total cpu time :   101.2 secs   av.it.:   8.5
      thresh= 2.259E-08 alpha_mix =  0.700 |ddv_scf|^2 =  3.245E-15

     End of self-consistent calculation

     Convergence has been achieved 


     Representation #  3 mode #   3

     Self-consistent Calculation

      iter #   1 total cpu time :   102.3 secs   av.it.:   6.2
      thresh= 1.000E-02 alpha_mix =  0.700 |ddv_scf|^2 =  5.087E-05

      iter #   2 total cpu time :   103.8 secs   av.it.:   8.7
      thresh= 7.132E-04 alpha_mix =  0.700 |ddv_scf|^2 =  3.518E-05

      iter #   3 total cpu time :   105.2 secs   av.it.:   8.2
      thresh= 5.931E-04 alpha_mix =  0.700 |ddv_scf|^2 =  2.690E-07

      iter #   4 total cpu time :   106.6 secs   av.it.:   8.6
      thresh= 5.187E-05 alpha_mix =  0.700 |ddv_scf|^2 =  1.446E-08

      iter #   5 total cpu time :   108.0 secs   av.it.:   8.4
      thresh= 1.202E-05 alpha_mix =  0.700 |ddv_scf|^2 =  2.964E-10

      iter #   6 total cpu time :   109.4 secs   av.it.:   8.6
      thresh= 1.722E-06 alpha_mix =  0.700 |ddv_scf|^2 =  3.123E-11

      iter #   7 total cpu time :   110.8 secs   av.it.:   8.5
      thresh= 5.589E-07 alpha_mix =  0.700 |ddv_scf|^2 =  1.850E-13

      iter #   8 total cpu time :   112.3 secs   av.it.:   8.7
      thresh= 4.301E-08 alpha_mix =  0.700 |ddv_scf|^2 =  4.664E-15

     End of self-consistent calculation

     Convergence has been achieved 


     Representation #  4 mode #   4

     Self-consistent Calculation

      iter #   1 total cpu time :   113.4 secs   av.it.:   5.9
      thresh= 1.000E-02 alpha_mix =  0.700 |ddv_scf|^2 =  1.412E-05

      iter #   2 total cpu time :   114.9 secs   av.it.:   8.9
      thresh= 3.758E-04 alpha_mix =  0.700 |ddv_scf|^2 =  1.458E-05

      iter #   3 total cpu time :   116.3 secs   av.it.:   8.3
      thresh= 3.819E-04 alpha_mix =  0.700 |ddv_scf|^2 =  2.537E-07

      iter #   4 total cpu time :   117.7 secs   av.it.:   8.3
      thresh= 5.037E-05 alpha_mix =  0.700 |ddv_scf|^2 =  3.838E-09

      iter #   5 total cpu time :   119.1 secs   av.it.:   8.4
      thresh= 6.195E-06 alpha_mix =  0.700 |ddv_scf|^2 =  4.458E-10

      iter #   6 total cpu time :   120.6 secs   av.it.:   8.5
      thresh= 2.111E-06 alpha_mix =  0.700 |ddv_scf|^2 =  4.221E-11

      iter #   7 total cpu time :   122.0 secs   av.it.:   8.4
      thresh= 6.497E-07 alpha_mix =  0.700 |ddv_scf|^2 =  5.757E-14

      iter #   8 total cpu time :   123.4 secs   av.it.:   9.0
      thresh= 2.399E-08 alpha_mix =  0.700 |ddv_scf|^2 =  7.326E-15

     End of self-consistent calculation

     Convergence has been achieved 


     Representation #  5 mode #   5

     Self-consistent Calculation

      iter #   1 total cpu time :   124.6 secs   av.it.:   5.9
      thresh= 1.000E-02 alpha_mix =  0.700 |ddv_scf|^2 =  6.607E-06

      iter #   2 total cpu time :   126.0 secs   av.it.:   8.7
      thresh= 2.570E-04 alpha_mix =  0.700 |ddv_scf|^2 =  2.912E-07

      iter #   3 total cpu time :   127.4 secs   av.it.:   8.5
      thresh= 5.397E-05 alpha_mix =  0.700 |ddv_scf|^2 =  1.999E-09

      iter #   4 total cpu time :   128.7 secs   av.it.:   7.8
      thresh= 4.471E-06 alpha_mix =  0.700 |ddv_scf|^2 =  1.385E-11

      iter #   5 total cpu time :   130.1 secs   av.it.:   8.1
      thresh= 3.722E-07 alpha_mix =  0.700 |ddv_scf|^2 =  3.086E-14

      iter #   6 total cpu time :   131.4 secs   av.it.:   8.0
      thresh= 1.757E-08 alpha_mix =  0.700 |ddv_scf|^2 =  1.075E-15

     End of self-consistent calculation

     Convergence has been achieved 


     Representation #  6 mode #   6

     Self-consistent Calculation

      iter #   1 total cpu time :   132.5 secs   av.it.:   5.0
      thresh= 1.000E-02 alpha_mix =  0.700 |ddv_scf|^2 =  7.399E-07

      iter #   2 total cpu time :   133.9 secs   av.it.:   8.6
      thresh= 8.602E-05 alpha_mix =  0.700 |ddv_scf|^2 =  3.325E-08

      iter #   3 total cpu time :   135.3 secs   av.it.:   8.5
      thresh= 1.824E-05 alpha_mix =  0.700 |ddv_scf|^2 =  1.486E-09

      iter #   4 total cpu time :   136.6 secs   av.it.:   7.7
      thresh= 3.856E-06 alpha_mix =  0.700 |ddv_scf|^2 =  3.331E-12

      iter #   5 total cpu time :   138.0 secs   av.it.:   8.4
      thresh= 1.825E-07 alpha_mix =  0.700 |ddv_scf|^2 =  2.883E-14

      iter #   6 total cpu time :   139.3 secs   av.it.:   8.2
      thresh= 1.698E-08 alpha_mix =  0.700 |ddv_scf|^2 =  3.901E-16

     End of self-consistent calculation

     Convergence has been achieved 

     Number of q in the star =   12
     List of q in the star:
          1   0.666666667   0.000000000   0.666666667
          2  -0.666666667   0.000000000  -0.666666667
          3   0.666666667  -0.666666667   0.000000000
          4   0.000000000  -0.666666667   0.666666667
          5   0.000000000  -0.666666667  -0.666666667
          6  -0.666666667   0.000000000   0.666666667
          7   0.666666667   0.666666667   0.000000000
          8  -0.666666667  -0.666666667   0.000000000
          9  -0.666666667   0.666666667   0.000000000
         10   0.666666667   0.000000000  -0.666666667
         11   0.000000000   0.666666667   0.666666667
         12   0.000000000   0.666666667  -0.666666667

     Diagonalizing the dynamical matrix

     q = (    0.666666667  -0.000000000   0.666666667 ) 

 **************************************************************************
     freq (    1) =      10.003853 [THz] =     333.692624 [cm-1]
     freq (    2) =      13.731180 [THz] =     458.022877 [cm-1]
     freq (    3) =      16.020875 [THz] =     534.398881 [cm-1]
     freq (    4) =      22.269540 [THz] =     742.831882 [cm-1]
     freq (    5) =      22.360444 [THz] =     745.864142 [cm-1]
     freq (    6) =      25.328291 [THz] =     844.860853 [cm-1]
 **************************************************************************

     Mode symmetry, C_s (m)     point group:

     freq (  1 -  1) =        333.7  [cm-1]   --> A''                
     freq (  2 -  2) =        458.0  [cm-1]   --> A'                 
     freq (  3 -  3) =        534.4  [cm-1]   --> A'                 
     freq (  4 -  4) =        742.8  [cm-1]   --> A''                
     freq (  5 -  5) =        745.9  [cm-1]   --> A'                 
     freq (  6 -  6) =        844.9  [cm-1]   --> A'                 

     init_run     :      0.43s CPU      0.44s WALL (       3 calls)
     electrons    :      6.77s CPU      6.91s WALL (       3 calls)

     Called by init_run:
     wfcinit      :      0.00s CPU      0.00s WALL (       3 calls)
     potinit      :      0.04s CPU      0.04s WALL (       3 calls)
     hinit0       :      0.37s CPU      0.38s WALL (       3 calls)

     Called by electrons:
     c_bands      :      6.77s CPU      6.91s WALL (       3 calls)
     v_of_rho     :      0.04s CPU      0.05s WALL (       4 calls)
     newd         :      0.01s CPU      0.02s WALL (       4 calls)

     Called by c_bands:
     init_us_2    :      0.94s CPU      0.98s WALL (   13848 calls)
     cegterg      :      5.71s CPU      5.81s WALL (     514 calls)

     Called by sum_band:

     Called by *egterg:
     h_psi        :     97.14s CPU     99.16s WALL (  119476 calls)
     s_psi        :      2.65s CPU      2.71s WALL (  244062 calls)
     g_psi        :      0.03s CPU      0.03s WALL (    5682 calls)
     cdiaghg      :      0.21s CPU      0.21s WALL (    6196 calls)

     Called by h_psi:
     h_psi:pot    :     96.88s CPU     98.89s WALL (  119476 calls)
     h_psi:calbec :      2.26s CPU      2.31s WALL (  119476 calls)
     vloc_psi     :     92.92s CPU     94.86s WALL (  119476 calls)
     add_vuspsi   :      1.45s CPU      1.49s WALL (  119476 calls)

     General routines
     calbec       :      3.99s CPU      4.09s WALL (  272438 calls)
     fft          :      0.97s CPU      1.00s WALL (    2724 calls)
     ffts         :      0.35s CPU      0.36s WALL (    2242 calls)
     fftw         :    104.42s CPU    106.68s WALL ( 1047142 calls)
     interpolate  :      0.20s CPU      0.22s WALL (     376 calls)
     davcio       :      0.48s CPU      0.58s WALL (   61888 calls)

     Parallel routines

     PHONON       :   2m16.25s CPU   2m19.35s WALL

     INITIALIZATION: 
     phq_setup    :      0.16s CPU      0.16s WALL (       4 calls)
     phq_init     :      2.09s CPU      2.11s WALL (       4 calls)

     phq_init     :      2.09s CPU      2.11s WALL (       4 calls)
     init_vloc    :      0.01s CPU      0.01s WALL (       4 calls)
     init_us_1    :      0.37s CPU      0.37s WALL (       4 calls)
     newd         :      0.01s CPU      0.02s WALL (       4 calls)
     dvanqq       :      0.10s CPU      0.10s WALL (       4 calls)
     drho         :      1.20s CPU      1.22s WALL (       4 calls)

     DYNAMICAL MATRIX:
     dynmat0      :      0.19s CPU      0.19s WALL (       4 calls)
     phqscf       :    122.64s CPU    125.43s WALL (       4 calls)
     dynmatrix    :      0.00s CPU      0.01s WALL (       4 calls)

     phqscf       :    122.64s CPU    125.43s WALL (       4 calls)
     solve_linter :    122.29s CPU    125.04s WALL (      18 calls)
     drhodv       :      0.24s CPU      0.27s WALL (      18 calls)

     dynmat0      :      0.19s CPU      0.19s WALL (       4 calls)
     dynmat_us    :      0.16s CPU      0.17s WALL (       4 calls)
     d2ionq       :      0.02s CPU      0.02s WALL (       4 calls)

     dynmat_us    :      0.16s CPU      0.17s WALL (       4 calls)
     addusdynmat  :      0.00s CPU      0.00s WALL (       4 calls)

     phqscf       :    122.64s CPU    125.43s WALL (       4 calls)
     solve_linter :    122.29s CPU    125.04s WALL (      18 calls)

     solve_linter :    122.29s CPU    125.04s WALL (      18 calls)
     dvqpsi_us    :      1.96s CPU      2.02s WALL (    1734 calls)
     ortho        :      0.47s CPU      0.49s WALL (   11772 calls)
     cgsolve      :     98.21s CPU    100.25s WALL (   11772 calls)
     incdrhoscf   :     10.95s CPU     11.20s WALL (   11772 calls)
     addusddens   :      0.91s CPU      0.92s WALL (     144 calls)
     vpsifft      :      8.85s CPU      9.09s WALL (    9846 calls)
     dv_of_drho   :      0.94s CPU      0.95s WALL (     174 calls)
     mix_pot      :      0.15s CPU      0.18s WALL (     131 calls)
     psymdvscf    :      0.81s CPU      0.82s WALL (     126 calls)
     newdq        :      0.84s CPU      0.90s WALL (     131 calls)
     adddvscf     :      0.08s CPU      0.08s WALL (   10038 calls)
     drhodvus     :      0.00s CPU      0.01s WALL (      18 calls)

     dvqpsi_us    :      1.96s CPU      2.02s WALL (    1734 calls)
     dvqpsi_us_on :      0.11s CPU      0.11s WALL (    1734 calls)

     cgsolve      :     98.21s CPU    100.25s WALL (   11772 calls)
     ch_psi       :     97.33s CPU     99.35s WALL (  112766 calls)

     ch_psi       :     97.33s CPU     99.35s WALL (  112766 calls)
     h_psi        :     97.14s CPU     99.16s WALL (  119476 calls)
     last         :      4.30s CPU      4.39s WALL (  112766 calls)

     h_psi        :     97.14s CPU     99.16s WALL (  119476 calls)
     add_vuspsi   :      1.45s CPU      1.49s WALL (  119476 calls)

     incdrhoscf   :     10.95s CPU     11.20s WALL (   11772 calls)
     addusdbec    :      0.22s CPU      0.22s WALL (   13410 calls)

     drhodvus     :      0.00s CPU      0.01s WALL (      18 calls)

      General routines
     calbec       :      3.99s CPU      4.09s WALL (  272438 calls)
     fft          :      0.97s CPU      1.00s WALL (    2724 calls)
     ffts         :      0.35s CPU      0.36s WALL (    2242 calls)
     fftw         :    104.42s CPU    106.68s WALL ( 1047142 calls)
     davcio       :      0.48s CPU      0.58s WALL (   61888 calls)
     write_rec    :      0.13s CPU      0.15s WALL (     149 calls)


     PHONON       :   2m16.25s CPU   2m19.35s WALL


   This run was terminated on:  17:41:13  17Jan2019            

=------------------------------------------------------------------------------=
   JOB DONE.
=------------------------------------------------------------------------------=
