                                                                                      
                                       ``:oss/                                        
                           `.+s+.     .+ys--yh+     `./ss+.                           
                          -sh//yy+`   +yy   +yy    -+h+-oyy                           
                          -yh- .oyy/.-sh.   .syo-.:sy-  /yh                           
                 `.-.`    `yh+   -oyyyo.     `/syys:    oys      `.`                  
               `/+ssys+-` `sh+      `                   oys`   .:osyo`                
               -yh- ./syyooyo`                          .sys+/oyo--yh/                
               `yy+    .-:-.                             `-/+/:`  -sh-                
                /yh.                                              oys                 
          ``..---hho---------`   .---------..`      `.-----.`    -hd+---.             
       `./osmNMMMMMMMMMMMMMMMs. +NNMMMMMMMMNNmh+.   yNMMMMMNm-  oNMMMMMNmo++:`        
       +sy--/sdMMMhyyyyyyyNMMh- .oyNMMmyyyyyhNMMm+` -yMMMdyyo:` .oyyNMMNhs+syy`       
       -yy/   /MMM+.`-+/``mMMy-   `mMMh:`````.dMMN:` `MMMy-`-dhhy```mMMy:``+hs        
        -yy+` /MMMo:-mMM+`-oo/.    mMMh:     `dMMN/`  dMMm:`dMMMMy..MMMo-.+yo`        
         .sys`/MMMMNNMMMs-         mMMmyooooymMMNo:   oMMM/sMMMMMM++MMN//oh:          
          `sh+/MMMhyyMMMs- `-`     mMMMMMMMMMNmy+-`   -MMMhMMMsmMMmdMMd/yy+           
    `-/+++oyy-/MMM+.`/hh/.`mNm:`   mMMd+/////:-.`      NMMMMMd/:NMMMMMy:/yyo/:.`      
   +os+//:-..-oMMMo:--:::-/MMMo. .-mMMd+---`           hMMMMN+. oMMMMMo. `-+osyso:`   
   syo     `mNMMMMMNNNNNNNNMMMo.oNNMMMMMNNNN:`         +MMMMs:`  dMMMN/`     ``:syo   
   /yh`     :syyyyyyyyyyyyyyyy+.`+syyyyyyyyo:`         .oyys:`   .oyys:`        +yh   
   -yh-        ````````````````    `````````              ``        ``          oys   
   -+h/------------------------::::::::://////++++++++++++++++++++++///////::::/yd:   
   shdddddddddddddddddddddddddddddhhhhhhhhyyyyyssssssssssssssssyyyyyyyhhhhhhhddddh`   
                                                                                      
  S. Ponce, E. R. Margine, C. Verdi, and F. Giustino,                                 
                                                Comput. Phys. Commun. 209, 116 (2016) 
                                                                                      

     Program EPW v.5.3.1 starts on 27May2021 at 12:13:21 

     This program is part of the open-source Quantum ESPRESSO suite
     for quantum simulation of materials; please cite
         "P. Giannozzi et al., J. Phys.:Condens. Matter 21 395502 (2009);
         "P. Giannozzi et al., J. Phys.:Condens. Matter 29 465901 (2017);
         "P. Giannozzi et al., J. Chem. Phys. 152 154105 (2020);
          URL http://www.quantum-espresso.org", 
     in publications or presentations arising from this work. More details at
     http://www.quantum-espresso.org/quote

     Parallel version (MPI), running on     1 processors

     MPI processes distributed on     1 nodes
     Reading input from epw1.in

     Reading supplied temperature list.

     Reading xml data from directory:

     ./sic.save/
     file C.pbe-rrkjus.UPF: wavefunction(s)  2S 2P renormalized

     IMPORTANT: XC functional enforced from input :
     Exchange-correlation= PBE
                           (   1   4   3   4   0   0   0)
     Any further DFT definition will be discarded
     Please, verify this is what you really want


     G-vector sticks info
     --------------------
     sticks:   dense  smooth     PW     G-vecs:    dense   smooth      PW
     Sum         283     283     97                 3119     3119     645

     Using Slab Decomposition


     Check: negative core charge=   -0.000002
     Reading collected, re-writing distributed wavefunctions

     --                                                                         

     bravais-lattice index     =            2
     lattice parameter (a_0)   =       8.2370  a.u.
     unit-cell volume          =     139.7163 (a.u.)^3
     number of atoms/cell      =            2
     number of atomic types    =            2
     kinetic-energy cut-off    =      30.0000  Ry
     charge density cut-off    =     120.0000  Ry
     Exchange-correlation= PBE
                           (   1   4   3   4   0   0   0)


     celldm(1)=    8.23700  celldm(2)=    0.00000  celldm(3)=    0.00000
     celldm(4)=    0.00000  celldm(5)=    0.00000  celldm(6)=    0.00000

     crystal axes: (cart. coord. in units of a_0)
               a(1) = ( -0.5000  0.0000  0.5000 )  
               a(2) = (  0.0000  0.5000  0.5000 )  
               a(3) = ( -0.5000  0.5000  0.0000 )  

     reciprocal axes: (cart. coord. in units 2 pi/a_0)
               b(1) = ( -1.0000 -1.0000  1.0000 )  
               b(2) = (  1.0000  1.0000  1.0000 )  
               b(3) = ( -1.0000  1.0000 -1.0000 )  


     Atoms inside the unit cell: 

   Cartesian axes

     site n.  atom      mass           positions (a_0 units)
        1        Si  28.0855   tau( 1) = (    0.00000    0.00000    0.00000  )
        2        C   12.0108   tau( 2) = (    0.25000    0.25000    0.25000  )

     25 Sym.Ops. (with q -> -q+G )


     G cutoff =  206.2337  (   3119 G-vectors)     FFT grid: ( 24, 24, 24)
     number of k points=   27
                       cart. coord. in units 2pi/a_0
        k(    1) = (   0.0000000   0.0000000   0.0000000), wk =   0.0740741
        k(    2) = (  -0.3333333   0.3333333  -0.3333333), wk =   0.0740741
        k(    3) = (  -0.6666667   0.6666667  -0.6666667), wk =   0.0740741
        k(    4) = (   0.3333333   0.3333333   0.3333333), wk =   0.0740741
        k(    5) = (   0.0000000   0.6666667   0.0000000), wk =   0.0740741
        k(    6) = (  -0.3333333   1.0000000  -0.3333333), wk =   0.0740741
        k(    7) = (   0.6666667   0.6666667   0.6666667), wk =   0.0740741
        k(    8) = (   0.3333333   1.0000000   0.3333333), wk =   0.0740741
        k(    9) = (   0.0000000   1.3333333   0.0000000), wk =   0.0740741
        k(   10) = (  -0.3333333  -0.3333333   0.3333333), wk =   0.0740741
        k(   11) = (  -0.6666667   0.0000000   0.0000000), wk =   0.0740741
        k(   12) = (  -1.0000000   0.3333333  -0.3333333), wk =   0.0740741
        k(   13) = (   0.0000000   0.0000000   0.6666667), wk =   0.0740741
        k(   14) = (  -0.3333333   0.3333333   0.3333333), wk =   0.0740741
        k(   15) = (  -0.6666667   0.6666667  -0.0000000), wk =   0.0740741
        k(   16) = (   0.3333333   0.3333333   1.0000000), wk =   0.0740741
        k(   17) = (   0.0000000   0.6666667   0.6666667), wk =   0.0740741
        k(   18) = (  -0.3333333   1.0000000   0.3333333), wk =   0.0740741
        k(   19) = (  -0.6666667  -0.6666667   0.6666667), wk =   0.0740741
        k(   20) = (  -1.0000000  -0.3333333   0.3333333), wk =   0.0740741
        k(   21) = (  -1.3333333   0.0000000   0.0000000), wk =   0.0740741
        k(   22) = (  -0.3333333  -0.3333333   1.0000000), wk =   0.0740741
        k(   23) = (  -0.6666667  -0.0000000   0.6666667), wk =   0.0740741
        k(   24) = (  -1.0000000   0.3333333   0.3333333), wk =   0.0740741
        k(   25) = (   0.0000000   0.0000000   1.3333333), wk =   0.0740741
        k(   26) = (  -0.3333333   0.3333333   1.0000000), wk =   0.0740741
        k(   27) = (  -0.6666667   0.6666667   0.6666667), wk =   0.0740741

     PseudoPot. # 1 for Si read from file:
     ../../pseudo/Si.pbe-nl-rrkjus_psl.1.0.0.UPF
     MD5 check sum: 78279d3766ecb5dbdc0623f3e93c9a23
     Pseudo is Ultrasoft + core correction, Zval =  4.0
     Generated using &quot;atomic&quot; code by A. Dal Corso  v.6.3
     Using radial grid of 1141 points,  4 beta functions with: 
                l(1) =   0
                l(2) =   0
                l(3) =   1
                l(4) =   1
     Q(r) pseudized with 0 coefficients 


     PseudoPot. # 2 for C  read from file:
     ../../pseudo/C.pbe-rrkjus.UPF
     MD5 check sum: c9ac5a99bc85b198593446162950cd17
     Pseudo is Ultrasoft, Zval =  4.0
     Generated by new atomic code, or converted to UPF format
     Using radial grid of  627 points,  4 beta functions with: 
                l(1) =   0
                l(2) =   0
                l(3) =   1
                l(4) =   1
     Q(r) pseudized with 0 coefficients 

     EPW          :      0.25s CPU      0.25s WALL

     EPW          :      0.32s CPU      0.33s WALL

     -------------------------------------------------------------------
     Wannierization on  3 x  3 x  3 electronic grid
     -------------------------------------------------------------------

     Spin CASE ( default = unpolarized )

     Initializing Wannier90


     Initial Wannier projections

     (   0.00000   0.00000   0.00000) :  l =  -3 mr =   1
     (   0.00000   0.00000   0.00000) :  l =  -3 mr =   2
     (   0.00000   0.00000   0.00000) :  l =  -3 mr =   3
     (   0.00000   0.00000   0.00000) :  l =  -3 mr =   4

      - Number of bands is (  4)
      - Number of total bands is (  4)
      - Number of excluded bands is (  0)
      - Number of wannier functions is (  4)
      - All guiding functions are given 

  Reading data about k-point neighbours 

      - All neighbours are found 

     AMN
      k points =    27 in    1 pools
            1 of   27 on ionode
            2 of   27 on ionode
            3 of   27 on ionode
            4 of   27 on ionode
            5 of   27 on ionode
            6 of   27 on ionode
            7 of   27 on ionode
            8 of   27 on ionode
            9 of   27 on ionode
           10 of   27 on ionode
           11 of   27 on ionode
           12 of   27 on ionode
           13 of   27 on ionode
           14 of   27 on ionode
           15 of   27 on ionode
           16 of   27 on ionode
           17 of   27 on ionode
           18 of   27 on ionode
           19 of   27 on ionode
           20 of   27 on ionode
           21 of   27 on ionode
           22 of   27 on ionode
           23 of   27 on ionode
           24 of   27 on ionode
           25 of   27 on ionode
           26 of   27 on ionode
           27 of   27 on ionode

     AMN calculated

     MMN
      k points =    27 in    1 pools
            1 of   27 on ionode
            2 of   27 on ionode
            3 of   27 on ionode
            4 of   27 on ionode
            5 of   27 on ionode
            6 of   27 on ionode
            7 of   27 on ionode
            8 of   27 on ionode
            9 of   27 on ionode
           10 of   27 on ionode
           11 of   27 on ionode
           12 of   27 on ionode
           13 of   27 on ionode
           14 of   27 on ionode
           15 of   27 on ionode
           16 of   27 on ionode
           17 of   27 on ionode
           18 of   27 on ionode
           19 of   27 on ionode
           20 of   27 on ionode
           21 of   27 on ionode
           22 of   27 on ionode
           23 of   27 on ionode
           24 of   27 on ionode
           25 of   27 on ionode
           26 of   27 on ionode
           27 of   27 on ionode
     MMN calculated

     Running Wannier90

     Wannier Function centers (cartesian, alat) and spreads (ang):

     (   0.16207   0.16207   0.16207) :   0.87436
     (   0.16207  -0.16207  -0.16207) :   0.87436
     (  -0.16207   0.16207  -0.16207) :   0.87436
     (  -0.16207  -0.16207   0.16207) :   0.87436

     -------------------------------------------------------------------
     WANNIER      :      1.75s CPU      1.76s WALL (       1 calls)
     -------------------------------------------------------------------

     Calculating kgmap

     Progress kgmap: ########################################
     kmaps        :      0.01s CPU      0.01s WALL (       1 calls)
     Symmetries of Bravais lattice:  48
     Symmetries of crystal:          24


     ===================================================================
     irreducible q point #    1
     ===================================================================

     Symmetries of small group of q: 24
          in addition sym. q -> -q+G:

     Number of q in the star =    1
     List of q in the star:
          1   0.000000000   0.000000000   0.000000000
     Imposing acoustic sum rule on the dynamical matrix
     Read dielectric tensor and effective charges

        q(    1 ) = (   0.0000000   0.0000000   0.0000000 )


     ===================================================================
     irreducible q point #    2
     ===================================================================

     Symmetries of small group of q:  6

     Number of q in the star =    4
     List of q in the star:
          1  -0.333333333   0.333333333  -0.333333333
          2   0.333333333   0.333333333   0.333333333
          3   0.333333333  -0.333333333  -0.333333333
          4  -0.333333333  -0.333333333   0.333333333
     In addition there is the -q list: 
          1   0.333333333  -0.333333333   0.333333333
          2  -0.333333333  -0.333333333  -0.333333333
          3  -0.333333333   0.333333333   0.333333333
          4   0.333333333   0.333333333  -0.333333333

        q(    2 ) = (  -0.3333333   0.3333333  -0.3333333 )

        q(    3 ) = (   0.3333333  -0.3333333   0.3333333 )
        q(    4 ) = (   0.3333333   0.3333333   0.3333333 )
        q(    5 ) = (  -0.3333333  -0.3333333  -0.3333333 )
        q(    6 ) = (   0.3333333  -0.3333333  -0.3333333 )
        q(    7 ) = (  -0.3333333   0.3333333   0.3333333 )
        q(    8 ) = (  -0.3333333  -0.3333333   0.3333333 )
        q(    9 ) = (   0.3333333   0.3333333  -0.3333333 )


     ===================================================================
     irreducible q point #    3
     ===================================================================

     Symmetries of small group of q:  4

     Number of q in the star =    6
     List of q in the star:
          1   0.000000000   0.666666667   0.000000000
          2   0.000000000   0.000000000  -0.666666667
          3  -0.666666667   0.000000000   0.000000000
          4   0.666666667   0.000000000   0.000000000
          5   0.000000000  -0.666666667   0.000000000
          6   0.000000000   0.000000000   0.666666667

        q(   10 ) = (   0.0000000   0.6666667   0.0000000 )
        q(   11 ) = (   0.0000000   0.0000000  -0.6666667 )
        q(   12 ) = (  -0.6666667   0.0000000   0.0000000 )
        q(   13 ) = (   0.6666667   0.0000000   0.0000000 )
        q(   14 ) = (   0.0000000  -0.6666667   0.0000000 )
        q(   15 ) = (   0.0000000   0.0000000   0.6666667 )


     ===================================================================
     irreducible q point #    4
     ===================================================================

     Symmetries of small group of q:  2

     Number of q in the star =   12
     List of q in the star:
          1   0.666666667   0.000000000   0.666666667
          2  -0.666666667   0.000000000  -0.666666667
          3   0.666666667  -0.666666667   0.000000000
          4   0.000000000  -0.666666667   0.666666667
          5   0.000000000  -0.666666667  -0.666666667
          6  -0.666666667   0.000000000   0.666666667
          7   0.666666667   0.666666667   0.000000000
          8  -0.666666667  -0.666666667   0.000000000
          9  -0.666666667   0.666666667   0.000000000
         10   0.666666667   0.000000000  -0.666666667
         11   0.000000000   0.666666667   0.666666667
         12   0.000000000   0.666666667  -0.666666667

        q(   16 ) = (   0.6666667   0.0000000   0.6666667 )
        q(   17 ) = (  -0.6666667   0.0000000  -0.6666667 )
        q(   18 ) = (   0.6666667  -0.6666667   0.0000000 )
        q(   19 ) = (   0.0000000  -0.6666667   0.6666667 )
        q(   20 ) = (  -0.0000000  -0.6666667  -0.6666667 )
        q(   21 ) = (  -0.6666667  -0.0000000   0.6666667 )
        q(   22 ) = (   0.6666667   0.6666667   0.0000000 )
        q(   23 ) = (  -0.6666667  -0.6666667   0.0000000 )
        q(   24 ) = (  -0.6666667   0.6666667   0.0000000 )
        q(   25 ) = (   0.6666667   0.0000000  -0.6666667 )
        q(   26 ) = (   0.0000000   0.6666667   0.6666667 )
        q(   27 ) = (   0.0000000   0.6666667  -0.6666667 )

     Writing epmatq on .epb files


     The .epb files have been correctly written


     Computes the analytic long-range interaction for polar materials [lpolar]
      
     Construct the Wigner-Seitz cell using Wannier centers and atomic positions 
     Number of WS vectors for electrons       79
     Number of WS vectors for phonons       63
     Number of WS vectors for electron-phonon       53
     Maximum number of cores for efficient parallelization      106

     Velocity matrix elements calculated
 
 
     Bloch2wane:          1 /         27
     Bloch2wane:          2 /         27
     Bloch2wane:          3 /         27
     Bloch2wane:          4 /         27
     Bloch2wane:          5 /         27
     Bloch2wane:          6 /         27
     Bloch2wane:          7 /         27
     Bloch2wane:          8 /         27
     Bloch2wane:          9 /         27
     Bloch2wane:         10 /         27
     Bloch2wane:         11 /         27
     Bloch2wane:         12 /         27
     Bloch2wane:         13 /         27
     Bloch2wane:         14 /         27
     Bloch2wane:         15 /         27
     Bloch2wane:         16 /         27
     Bloch2wane:         17 /         27
     Bloch2wane:         18 /         27
     Bloch2wane:         19 /         27
     Bloch2wane:         20 /         27
     Bloch2wane:         21 /         27
     Bloch2wane:         22 /         27
     Bloch2wane:         23 /         27
     Bloch2wane:         24 /         27
     Bloch2wane:         25 /         27
     Bloch2wane:         26 /         27
     Bloch2wane:         27 /         27
 
     Bloch2wanp:          1 /         53
     Bloch2wanp:          2 /         53
     Bloch2wanp:          3 /         53
     Bloch2wanp:          4 /         53
     Bloch2wanp:          5 /         53
     Bloch2wanp:          6 /         53
     Bloch2wanp:          7 /         53
     Bloch2wanp:          8 /         53
     Bloch2wanp:          9 /         53
     Bloch2wanp:         10 /         53
     Bloch2wanp:         11 /         53
     Bloch2wanp:         12 /         53
     Bloch2wanp:         13 /         53
     Bloch2wanp:         14 /         53
     Bloch2wanp:         15 /         53
     Bloch2wanp:         16 /         53
     Bloch2wanp:         17 /         53
     Bloch2wanp:         18 /         53
     Bloch2wanp:         19 /         53
     Bloch2wanp:         20 /         53
     Bloch2wanp:         21 /         53
     Bloch2wanp:         22 /         53
     Bloch2wanp:         23 /         53
     Bloch2wanp:         24 /         53
     Bloch2wanp:         25 /         53
     Bloch2wanp:         26 /         53
     Bloch2wanp:         27 /         53
     Bloch2wanp:         28 /         53
     Bloch2wanp:         29 /         53
     Bloch2wanp:         30 /         53
     Bloch2wanp:         31 /         53
     Bloch2wanp:         32 /         53
     Bloch2wanp:         33 /         53
     Bloch2wanp:         34 /         53
     Bloch2wanp:         35 /         53
     Bloch2wanp:         36 /         53
     Bloch2wanp:         37 /         53
     Bloch2wanp:         38 /         53
     Bloch2wanp:         39 /         53
     Bloch2wanp:         40 /         53
     Bloch2wanp:         41 /         53
     Bloch2wanp:         42 /         53
     Bloch2wanp:         43 /         53
     Bloch2wanp:         44 /         53
     Bloch2wanp:         45 /         53
     Bloch2wanp:         46 /         53
     Bloch2wanp:         47 /         53
     Bloch2wanp:         48 /         53
     Bloch2wanp:         49 /         53
     Bloch2wanp:         50 /         53
     Bloch2wanp:         51 /         53
     Bloch2wanp:         52 /         53
     Bloch2wanp:         53 /         53

     Writing Hamiltonian, Dynamical matrix and EP vertex in Wann rep to file

     ===================================================================
     Memory usage:  VmHWM =        34Mb
                   VmPeak =       362Mb
     ===================================================================
     
     Using q-mesh file: pathq.dat
     WARNING: q-point weigths do not add up to 1 [loadqmesh_serial]
     Size of q point mesh for interpolation:          4
     Using k-mesh file: path.dat
     Size of k point mesh for interpolation:          2
     Max number of k points per pool:                2

     Fermi energy coarse grid =   9.515984 eV

     Fermi energy is calculated from the fine k-mesh: Ef =   9.759499 eV

     ===================================================================

              ibndmin =     2  ebndmin =     9.516 eV
              ibndmax =     4  ebndmax =     9.516 eV


     Number of ep-matrix elements per pool :           54 ~=    0.42 Kb (@ 8 bytes/ DP)
     We only need to compute        4 q-points
      
      Electron-phonon vertex |g| (meV)

     iq =       1 coord.:    0.0000000   0.0000000   0.0000000
     ik =       1 coord.:    0.0000000   0.0000000   0.0000000
      ibnd     jbnd     imode   enk[eV]    enk+q[eV]  omega(q)[meV]   |g|[meV]
     ------------------------------------------------------------------------------
        2        2        1      9.5160      9.5160        0.0000023759    0.1799633260E+03
        2        2        2      9.5160      9.5160        0.0000015027    0.1799633260E+03
        2        2        3      9.5160      9.5160        0.0000002509    0.1799633260E+03
        2        2        4      9.5160      9.5160       97.7199812256    0.1133833120E+03
        2        2        5      9.5160      9.5160       97.7199812256    0.1133833120E+03
        2        2        6      9.5160      9.5160       97.7199812256    0.1133833120E+03
        2        3        1      9.5160      9.5160        0.0000023759    0.1799633260E+03
        2        3        2      9.5160      9.5160        0.0000015027    0.1799633260E+03
        2        3        3      9.5160      9.5160        0.0000002509    0.1799633260E+03
        2        3        4      9.5160      9.5160       97.7199812256    0.1133833120E+03
        2        3        5      9.5160      9.5160       97.7199812256    0.1133833120E+03
        2        3        6      9.5160      9.5160       97.7199812256    0.1133833120E+03
        2        4        1      9.5160      9.5160        0.0000023759    0.1799633260E+03
        2        4        2      9.5160      9.5160        0.0000015027    0.1799633260E+03
        2        4        3      9.5160      9.5160        0.0000002509    0.1799633260E+03
        2        4        4      9.5160      9.5160       97.7199812256    0.1133833120E+03
        2        4        5      9.5160      9.5160       97.7199812256    0.1133833120E+03
        2        4        6      9.5160      9.5160       97.7199812256    0.1133833120E+03
        3        2        1      9.5160      9.5160        0.0000023759    0.1799633260E+03
        3        2        2      9.5160      9.5160        0.0000015027    0.1799633260E+03
        3        2        3      9.5160      9.5160        0.0000002509    0.1799633260E+03
        3        2        4      9.5160      9.5160       97.7199812256    0.1133833120E+03
        3        2        5      9.5160      9.5160       97.7199812256    0.1133833120E+03
        3        2        6      9.5160      9.5160       97.7199812256    0.1133833120E+03
        3        3        1      9.5160      9.5160        0.0000023759    0.1799633260E+03
        3        3        2      9.5160      9.5160        0.0000015027    0.1799633260E+03
        3        3        3      9.5160      9.5160        0.0000002509    0.1799633260E+03
        3        3        4      9.5160      9.5160       97.7199812256    0.1133833120E+03
        3        3        5      9.5160      9.5160       97.7199812256    0.1133833120E+03
        3        3        6      9.5160      9.5160       97.7199812256    0.1133833120E+03
        3        4        1      9.5160      9.5160        0.0000023759    0.1799633260E+03
        3        4        2      9.5160      9.5160        0.0000015027    0.1799633260E+03
        3        4        3      9.5160      9.5160        0.0000002509    0.1799633260E+03
        3        4        4      9.5160      9.5160       97.7199812256    0.1133833120E+03
        3        4        5      9.5160      9.5160       97.7199812256    0.1133833120E+03
        3        4        6      9.5160      9.5160       97.7199812256    0.1133833120E+03
        4        2        1      9.5160      9.5160        0.0000023759    0.1799633260E+03
        4        2        2      9.5160      9.5160        0.0000015027    0.1799633260E+03
        4        2        3      9.5160      9.5160        0.0000002509    0.1799633260E+03
        4        2        4      9.5160      9.5160       97.7199812256    0.1133833120E+03
        4        2        5      9.5160      9.5160       97.7199812256    0.1133833120E+03
        4        2        6      9.5160      9.5160       97.7199812256    0.1133833120E+03
        4        3        1      9.5160      9.5160        0.0000023759    0.1799633260E+03
        4        3        2      9.5160      9.5160        0.0000015027    0.1799633260E+03
        4        3        3      9.5160      9.5160        0.0000002509    0.1799633260E+03
        4        3        4      9.5160      9.5160       97.7199812256    0.1133833120E+03
        4        3        5      9.5160      9.5160       97.7199812256    0.1133833120E+03
        4        3        6      9.5160      9.5160       97.7199812256    0.1133833120E+03
        4        4        1      9.5160      9.5160        0.0000023759    0.1799633260E+03
        4        4        2      9.5160      9.5160        0.0000015027    0.1799633260E+03
        4        4        3      9.5160      9.5160        0.0000002509    0.1799633260E+03
        4        4        4      9.5160      9.5160       97.7199812256    0.1133833120E+03
        4        4        5      9.5160      9.5160       97.7199812256    0.1133833120E+03
        4        4        6      9.5160      9.5160       97.7199812256    0.1133833120E+03
     ------------------------------------------------------------------------------

      Electron-phonon vertex |g| (meV)

     iq =       2 coord.:    0.0000000   0.0000000   0.3333333
     ik =       1 coord.:    0.0000000   0.0000000   0.0000000
      ibnd     jbnd     imode   enk[eV]    enk+q[eV]  omega(q)[meV]   |g|[meV]
     ------------------------------------------------------------------------------
        2        2        1      9.5160      3.3222       29.0821172455    0.3176882288E+02
        2        2        2      9.5160      3.3222       29.0821172455    0.3176882288E+02
        2        2        3      9.5160      3.3222       62.4461601735    0.9144373676E+02
        2        2        4      9.5160      3.3222       94.9623728487    0.7479230643E+02
        2        2        5      9.5160      3.3222       94.9623728487    0.7479230643E+02
        2        2        6      9.5160      3.3222      109.8470857357    0.1238519082E+03
        2        3        1      9.5160      8.6634       29.0821172455    0.2591084855E+02
        2        3        2      9.5160      8.6634       29.0821172455    0.2591084855E+02
        2        3        3      9.5160      8.6634       62.4461601735    0.1262903713E+03
        2        3        4      9.5160      8.6634       94.9623728487    0.1227143391E+03
        2        3        5      9.5160      8.6634       94.9623728487    0.1227143391E+03
        2        3        6      9.5160      8.6634      109.8470857357    0.1448059527E+03
        2        4        1      9.5160      8.6634       29.0821172455    0.2591084855E+02
        2        4        2      9.5160      8.6634       29.0821172455    0.2591084855E+02
        2        4        3      9.5160      8.6634       62.4461601735    0.1262903713E+03
        2        4        4      9.5160      8.6634       94.9623728487    0.1227143391E+03
        2        4        5      9.5160      8.6634       94.9623728487    0.1227143391E+03
        2        4        6      9.5160      8.6634      109.8470857357    0.1448059527E+03
        3        2        1      9.5160      3.3222       29.0821172455    0.3176882288E+02
        3        2        2      9.5160      3.3222       29.0821172455    0.3176882288E+02
        3        2        3      9.5160      3.3222       62.4461601735    0.9144373676E+02
        3        2        4      9.5160      3.3222       94.9623728487    0.7479230643E+02
        3        2        5      9.5160      3.3222       94.9623728487    0.7479230643E+02
        3        2        6      9.5160      3.3222      109.8470857357    0.1238519082E+03
        3        3        1      9.5160      8.6634       29.0821172455    0.2591084855E+02
        3        3        2      9.5160      8.6634       29.0821172455    0.2591084855E+02
        3        3        3      9.5160      8.6634       62.4461601735    0.1262903713E+03
        3        3        4      9.5160      8.6634       94.9623728487    0.1227143391E+03
        3        3        5      9.5160      8.6634       94.9623728487    0.1227143391E+03
        3        3        6      9.5160      8.6634      109.8470857357    0.1448059527E+03
        3        4        1      9.5160      8.6634       29.0821172455    0.2591084855E+02
        3        4        2      9.5160      8.6634       29.0821172455    0.2591084855E+02
        3        4        3      9.5160      8.6634       62.4461601735    0.1262903713E+03
        3        4        4      9.5160      8.6634       94.9623728487    0.1227143391E+03
        3        4        5      9.5160      8.6634       94.9623728487    0.1227143391E+03
        3        4        6      9.5160      8.6634      109.8470857357    0.1448059527E+03
        4        2        1      9.5160      3.3222       29.0821172455    0.3176882288E+02
        4        2        2      9.5160      3.3222       29.0821172455    0.3176882288E+02
        4        2        3      9.5160      3.3222       62.4461601735    0.9144373676E+02
        4        2        4      9.5160      3.3222       94.9623728487    0.7479230643E+02
        4        2        5      9.5160      3.3222       94.9623728487    0.7479230643E+02
        4        2        6      9.5160      3.3222      109.8470857357    0.1238519082E+03
        4        3        1      9.5160      8.6634       29.0821172455    0.2591084855E+02
        4        3        2      9.5160      8.6634       29.0821172455    0.2591084855E+02
        4        3        3      9.5160      8.6634       62.4461601735    0.1262903713E+03
        4        3        4      9.5160      8.6634       94.9623728487    0.1227143391E+03
        4        3        5      9.5160      8.6634       94.9623728487    0.1227143391E+03
        4        3        6      9.5160      8.6634      109.8470857357    0.1448059527E+03
        4        4        1      9.5160      8.6634       29.0821172455    0.2591084855E+02
        4        4        2      9.5160      8.6634       29.0821172455    0.2591084855E+02
        4        4        3      9.5160      8.6634       62.4461601735    0.1262903713E+03
        4        4        4      9.5160      8.6634       94.9623728487    0.1227143391E+03
        4        4        5      9.5160      8.6634       94.9623728487    0.1227143391E+03
        4        4        6      9.5160      8.6634      109.8470857357    0.1448059527E+03
     ------------------------------------------------------------------------------

      Electron-phonon vertex |g| (meV)

     iq =       3 coord.:    0.0000000   0.3333333   0.3333333
     ik =       1 coord.:    0.0000000   0.0000000   0.0000000
      ibnd     jbnd     imode   enk[eV]    enk+q[eV]  omega(q)[meV]   |g|[meV]
     ------------------------------------------------------------------------------
        2        2        1      9.5160      4.4527       40.9400607326    0.4168949805E+02
        2        2        2      9.5160      4.4527       40.9400616253    0.4168949805E+02
        2        2        3      9.5160      4.4527       62.8199947347    0.3083252073E+02
        2        2        4      9.5160      4.4527       94.4488445460    0.1188629195E+03
        2        2        5      9.5160      4.4527       94.4488449330    0.1188629195E+03
        2        2        6      9.5160      4.4527      109.8417905603    0.5101583115E+02
        2        3        1      9.5160      6.8890       40.9400607326    0.1139702525E+02
        2        3        2      9.5160      6.8890       40.9400616253    0.1139702525E+02
        2        3        3      9.5160      6.8890       62.8199947347    0.1314337875E+03
        2        3        4      9.5160      6.8890       94.4488445460    0.7239489202E+02
        2        3        5      9.5160      6.8890       94.4488449330    0.7239489202E+02
        2        3        6      9.5160      6.8890      109.8417905603    0.1625875838E+03
        2        4        1      9.5160      6.8890       40.9400607326    0.1139702525E+02
        2        4        2      9.5160      6.8890       40.9400616253    0.1139702525E+02
        2        4        3      9.5160      6.8890       62.8199947347    0.1314337875E+03
        2        4        4      9.5160      6.8890       94.4488445460    0.7239489202E+02
        2        4        5      9.5160      6.8890       94.4488449330    0.7239489202E+02
        2        4        6      9.5160      6.8890      109.8417905603    0.1625875838E+03
        3        2        1      9.5160      4.4527       40.9400607326    0.4168949805E+02
        3        2        2      9.5160      4.4527       40.9400616253    0.4168949805E+02
        3        2        3      9.5160      4.4527       62.8199947347    0.3083252073E+02
        3        2        4      9.5160      4.4527       94.4488445460    0.1188629195E+03
        3        2        5      9.5160      4.4527       94.4488449330    0.1188629195E+03
        3        2        6      9.5160      4.4527      109.8417905603    0.5101583115E+02
        3        3        1      9.5160      6.8890       40.9400607326    0.1139702525E+02
        3        3        2      9.5160      6.8890       40.9400616253    0.1139702525E+02
        3        3        3      9.5160      6.8890       62.8199947347    0.1314337875E+03
        3        3        4      9.5160      6.8890       94.4488445460    0.7239489202E+02
        3        3        5      9.5160      6.8890       94.4488449330    0.7239489202E+02
        3        3        6      9.5160      6.8890      109.8417905603    0.1625875838E+03
        3        4        1      9.5160      6.8890       40.9400607326    0.1139702525E+02
        3        4        2      9.5160      6.8890       40.9400616253    0.1139702525E+02
        3        4        3      9.5160      6.8890       62.8199947347    0.1314337875E+03
        3        4        4      9.5160      6.8890       94.4488445460    0.7239489202E+02
        3        4        5      9.5160      6.8890       94.4488449330    0.7239489202E+02
        3        4        6      9.5160      6.8890      109.8417905603    0.1625875838E+03
        4        2        1      9.5160      4.4527       40.9400607326    0.4168949805E+02
        4        2        2      9.5160      4.4527       40.9400616253    0.4168949805E+02
        4        2        3      9.5160      4.4527       62.8199947347    0.3083252073E+02
        4        2        4      9.5160      4.4527       94.4488445460    0.1188629195E+03
        4        2        5      9.5160      4.4527       94.4488449330    0.1188629195E+03
        4        2        6      9.5160      4.4527      109.8417905603    0.5101583115E+02
        4        3        1      9.5160      6.8890       40.9400607326    0.1139702525E+02
        4        3        2      9.5160      6.8890       40.9400616253    0.1139702525E+02
        4        3        3      9.5160      6.8890       62.8199947347    0.1314337875E+03
        4        3        4      9.5160      6.8890       94.4488445460    0.7239489202E+02
        4        3        5      9.5160      6.8890       94.4488449330    0.7239489202E+02
        4        3        6      9.5160      6.8890      109.8417905603    0.1625875838E+03
        4        4        1      9.5160      6.8890       40.9400607326    0.1139702525E+02
        4        4        2      9.5160      6.8890       40.9400616253    0.1139702525E+02
        4        4        3      9.5160      6.8890       62.8199947347    0.1314337875E+03
        4        4        4      9.5160      6.8890       94.4488445460    0.7239489202E+02
        4        4        5      9.5160      6.8890       94.4488449330    0.7239489202E+02
        4        4        6      9.5160      6.8890      109.8417905603    0.1625875838E+03
     ------------------------------------------------------------------------------

      Electron-phonon vertex |g| (meV)

     iq =       4 coord.:    0.0000000   0.3333333  -0.3333333
     ik =       1 coord.:    0.0000000   0.0000000   0.0000000
      ibnd     jbnd     imode   enk[eV]    enk+q[eV]  omega(q)[meV]   |g|[meV]
     ------------------------------------------------------------------------------
        2        2        1      9.5160      2.4493       42.3929052185    0.6096254965E+02
        2        2        2      9.5160      2.4493       58.0375842801    0.5377687607E+02
        2        2        3      9.5160      2.4493       65.7513090719    0.1065818765E+03
        2        2        4      9.5160      2.4493       92.7014918401    0.5488927440E+01
        2        2        5      9.5160      2.4493       92.9893836939    0.4967654161E+02
        2        2        6      9.5160      2.4493      106.3389285431    0.1326056248E+03
        2        3        1      9.5160      3.8572       42.3929052185    0.2213810772E+02
        2        3        2      9.5160      3.8572       58.0375842801    0.4805962396E+02
        2        3        3      9.5160      3.8572       65.7513090719    0.1111625259E+03
        2        3        4      9.5160      3.8572       92.7014918401    0.8970536369E+02
        2        3        5      9.5160      3.8572       92.9893836939    0.5118126821E+02
        2        3        6      9.5160      3.8572      106.3389285431    0.3496256682E+02
        2        4        1      9.5160      7.3262       42.3929052185    0.5003363545E+02
        2        4        2      9.5160      7.3262       58.0375842801    0.2901962222E+02
        2        4        3      9.5160      7.3262       65.7513090719    0.1475866857E+03
        2        4        4      9.5160      7.3262       92.7014918401    0.1062557255E+03
        2        4        5      9.5160      7.3262       92.9893836939    0.1756518490E+02
        2        4        6      9.5160      7.3262      106.3389285431    0.1264584922E+03
        3        2        1      9.5160      2.4493       42.3929052185    0.6096254965E+02
        3        2        2      9.5160      2.4493       58.0375842801    0.5377687607E+02
        3        2        3      9.5160      2.4493       65.7513090719    0.1065818765E+03
        3        2        4      9.5160      2.4493       92.7014918401    0.5488927440E+01
        3        2        5      9.5160      2.4493       92.9893836939    0.4967654161E+02
        3        2        6      9.5160      2.4493      106.3389285431    0.1326056248E+03
        3        3        1      9.5160      3.8572       42.3929052185    0.2213810772E+02
        3        3        2      9.5160      3.8572       58.0375842801    0.4805962396E+02
        3        3        3      9.5160      3.8572       65.7513090719    0.1111625259E+03
        3        3        4      9.5160      3.8572       92.7014918401    0.8970536369E+02
        3        3        5      9.5160      3.8572       92.9893836939    0.5118126821E+02
        3        3        6      9.5160      3.8572      106.3389285431    0.3496256682E+02
        3        4        1      9.5160      7.3262       42.3929052185    0.5003363545E+02
        3        4        2      9.5160      7.3262       58.0375842801    0.2901962222E+02
        3        4        3      9.5160      7.3262       65.7513090719    0.1475866857E+03
        3        4        4      9.5160      7.3262       92.7014918401    0.1062557255E+03
        3        4        5      9.5160      7.3262       92.9893836939    0.1756518490E+02
        3        4        6      9.5160      7.3262      106.3389285431    0.1264584922E+03
        4        2        1      9.5160      2.4493       42.3929052185    0.6096254965E+02
        4        2        2      9.5160      2.4493       58.0375842801    0.5377687607E+02
        4        2        3      9.5160      2.4493       65.7513090719    0.1065818765E+03
        4        2        4      9.5160      2.4493       92.7014918401    0.5488927440E+01
        4        2        5      9.5160      2.4493       92.9893836939    0.4967654161E+02
        4        2        6      9.5160      2.4493      106.3389285431    0.1326056248E+03
        4        3        1      9.5160      3.8572       42.3929052185    0.2213810772E+02
        4        3        2      9.5160      3.8572       58.0375842801    0.4805962396E+02
        4        3        3      9.5160      3.8572       65.7513090719    0.1111625259E+03
        4        3        4      9.5160      3.8572       92.7014918401    0.8970536369E+02
        4        3        5      9.5160      3.8572       92.9893836939    0.5118126821E+02
        4        3        6      9.5160      3.8572      106.3389285431    0.3496256682E+02
        4        4        1      9.5160      7.3262       42.3929052185    0.5003363545E+02
        4        4        2      9.5160      7.3262       58.0375842801    0.2901962222E+02
        4        4        3      9.5160      7.3262       65.7513090719    0.1475866857E+03
        4        4        4      9.5160      7.3262       92.7014918401    0.1062557255E+03
        4        4        5      9.5160      7.3262       92.9893836939    0.1756518490E+02
        4        4        6      9.5160      7.3262      106.3389285431    0.1264584922E+03
     ------------------------------------------------------------------------------

     ===================================================================
     Memory usage:  VmHWM =        34Mb
                   VmPeak =       362Mb
     ===================================================================


     Unfolding on the coarse grid
     dvanqq2      :      0.84s CPU      0.84s WALL (      27 calls)
     elphon_wrap  :     15.89s CPU     16.06s WALL (       1 calls)

     INITIALIZATION: 

     set_drhoc    :      0.88s CPU      0.88s WALL (      28 calls)
     init_vloc    :      0.00s CPU      0.00s WALL (       1 calls)
     init_us_1    :      0.22s CPU      0.22s WALL (       2 calls)
     newdq2       :      1.05s CPU      1.05s WALL (     142 calls)
     dvanqq2      :      0.84s CPU      0.84s WALL (      27 calls)



     Electron-Phonon interpolation
     ephwann      :      1.36s CPU      1.38s WALL (       1 calls)
     ep-interp    :      0.02s CPU      0.02s WALL (       4 calls)

     Ham: step 1  :      0.00s CPU      0.00s WALL (       1 calls)
     Ham: step 2  :      0.00s CPU      0.00s WALL (       1 calls)
     ep: step 1   :      0.00s CPU      0.00s WALL (     162 calls)
     ep: step 2   :      0.15s CPU      0.17s WALL (       1 calls)
     DynW2B       :      0.00s CPU      0.00s WALL (       4 calls)
     HamW2B       :      0.00s CPU      0.00s WALL (      15 calls)
     ephW2Bp      :      0.02s CPU      0.02s WALL (       4 calls)
     ephW2B       :      0.00s CPU      0.00s WALL (       4 calls)
     vmewan2bloch :      0.00s CPU      0.00s WALL (       8 calls)
     vmewan2bloch :      0.00s CPU      0.00s WALL (       8 calls)


     Total program execution
     EPW          :     19.32s CPU     19.52s WALL

     ===============================================================================
     The functionality-dependent EPW.bib file was created with suggested citations. 
     Please consider citing the papers listed in EPW.bib.                           
     ===============================================================================
                                                                                    
