
     Program PHONON v.4.2       starts on 30May2010 at 17:20:20 

     This program is part of the open-source Quantum ESPRESSO suite
     for quantum simulation of materials; please acknowledge
         "P. Giannozzi et al., J. Phys.:Condens. Matter 21 395502 (2009);
          URL http://www.quantum-espresso.org", 
     in publications or presentations arising from this work. More details at
     http://www.quantum-espresso.org/wiki/index.php/Citing_Quantum-ESPRESSO

     Parallel version (MPI), running on     1 processors

     Ultrasoft (Vanderbilt) Pseudopotentials

     Planes per process (thick) : nr3 =  20 npp =   20 ncplane =   400
 
     Proc/  planes cols     G    planes cols    G      columns  G
     Pool       (dense grid)       (smooth grid)      (wavefct grid)
        1    20    241     2445   20    241     2445     85      459
 


     Dynamical matrices for ( 4, 4, 4,)  uniform grid of q-points
     (   8q-points):
       N         xq(1)         xq(2)         xq(3) 
       1   0.000000000   0.000000000   0.000000000
       2  -0.250000000   0.250000000  -0.250000000
       3   0.500000000  -0.500000000   0.500000000
       4   0.000000000   0.500000000   0.000000000
       5   0.750000000  -0.250000000   0.750000000
       6   0.500000000   0.000000000   0.500000000
       7   0.000000000  -1.000000000   0.000000000
       8  -0.500000000  -1.000000000   0.000000000

     Calculation of q =    0.7500000  -0.2500000   0.7500000

     Planes per process (thick) : nr3 =  20 npp =   20 ncplane =   400
 
     Proc/  planes cols     G    planes cols    G      columns  G
     Pool       (dense grid)       (smooth grid)      (wavefct grid)
        1    20    241     2445   20    241     2445     97      645
 


     bravais-lattice index     =            2
     lattice parameter (a_0)   =      10.5000  a.u.
     unit-cell volume          =     289.4062 (a.u.)^3
     number of atoms/cell      =            2
     number of atomic types    =            2
     number of electrons       =         8.00
     number of Kohn-Sham states=            4
     kinetic-energy cutoff     =      16.0000  Ry
     charge density cutoff     =      64.0000  Ry
     Exchange-correlation      =  SLA  PZ   NOGX NOGC (1100)
     EXX-fraction              =        0.00

     celldm(1)=  10.500000  celldm(2)=   0.000000  celldm(3)=   0.000000
     celldm(4)=   0.000000  celldm(5)=   0.000000  celldm(6)=   0.000000

     crystal axes: (cart. coord. in units of a_0)
               a(1) = ( -0.500000  0.000000  0.500000 )  
               a(2) = (  0.000000  0.500000  0.500000 )  
               a(3) = ( -0.500000  0.500000  0.000000 )  

     reciprocal axes: (cart. coord. in units 2 pi/a_0)
               b(1) = ( -1.000000 -1.000000  1.000000 )  
               b(2) = (  1.000000  1.000000  1.000000 )  
               b(3) = ( -1.000000  1.000000 -1.000000 )  


     PseudoPot. # 1 for Al read from file Al.pz-vbc.UPF
     Pseudo is Norm-conserving, Zval =  3.0
     Generated by new atomic code, or converted to UPF format
     Using radial grid of  171 points,  2 beta functions with: 
                l(1) =   0
                l(2) =   1

     PseudoPot. # 2 for As read from file As.pz-bhs.UPF
     Pseudo is Norm-conserving, Zval =  5.0
     Generated by new atomic code, or converted to UPF format
     Using radial grid of  525 points,  2 beta functions with: 
                l(1) =   0
                l(2) =   1

     atomic species   valence    mass     pseudopotential
        Al             3.00    26.98000     Al( 1.00)
        As             5.00    74.92000     As( 1.00)

     24 Sym.Ops. (no inversion)


   Cartesian axes

     site n.     atom                  positions (a_0 units)
         1           Al  tau(  1) = (   0.0000000   0.0000000   0.0000000  )
         2           As  tau(  2) = (   0.2500000   0.2500000   0.2500000  )

     number of k points=    40
                       cart. coord. in units 2pi/a_0
        k(    1) = (   0.2500000   0.2500000   0.2500000), wk =   0.0625000
        k(    2) = (   1.0000000   0.0000000   1.0000000), wk =   0.0000000
        k(    3) = (   0.2500000   0.2500000   0.7500000), wk =   0.1250000
        k(    4) = (   1.0000000   0.0000000   1.5000000), wk =   0.0000000
        k(    5) = (  -0.2500000  -0.2500000   0.2500000), wk =   0.1250000
        k(    6) = (   0.5000000  -0.5000000   1.0000000), wk =   0.0000000
        k(    7) = (  -0.2500000   0.2500000  -0.2500000), wk =   0.0625000
        k(    8) = (   0.5000000   0.0000000   0.5000000), wk =   0.0000000
        k(    9) = (  -0.2500000  -0.2500000  -0.2500000), wk =   0.0625000
        k(   10) = (   0.5000000  -0.5000000   0.5000000), wk =   0.0000000
        k(   11) = (   0.2500000   0.2500000  -0.2500000), wk =   0.1250000
        k(   12) = (   1.0000000   0.0000000   0.5000000), wk =   0.0000000
        k(   13) = (   0.2500000  -0.2500000   0.2500000), wk =   0.0625000
        k(   14) = (   1.0000000  -0.5000000   1.0000000), wk =   0.0000000
        k(   15) = (  -0.2500000  -0.7500000   0.2500000), wk =   0.1250000
        k(   16) = (   0.5000000  -1.0000000   1.0000000), wk =   0.0000000
        k(   17) = (  -0.2500000   0.7500000  -0.2500000), wk =   0.0625000
        k(   18) = (   0.5000000   0.5000000   0.5000000), wk =   0.0000000
        k(   19) = (  -0.2500000  -0.2500000   0.7500000), wk =   0.1250000
        k(   20) = (   0.5000000  -0.5000000   1.5000000), wk =   0.0000000
        k(   21) = (   0.2500000  -0.2500000  -0.7500000), wk =   0.1250000
        k(   22) = (   1.0000000  -0.5000000   0.0000000), wk =   0.0000000
        k(   23) = (  -0.7500000   0.2500000  -0.2500000), wk =   0.1250000
        k(   24) = (   0.0000000   0.0000000   0.5000000), wk =   0.0000000
        k(   25) = (   0.2500000   0.7500000   0.2500000), wk =   0.0625000
        k(   26) = (   1.0000000   0.5000000   1.0000000), wk =   0.0000000
        k(   27) = (  -0.2500000  -0.2500000  -0.7500000), wk =   0.1250000
        k(   28) = (   0.5000000  -0.5000000   0.0000000), wk =   0.0000000
        k(   29) = (   0.2500000   0.2500000  -0.7500000), wk =   0.1250000
        k(   30) = (   1.0000000   0.0000000   0.0000000), wk =   0.0000000
        k(   31) = (   0.2500000  -0.2500000   0.7500000), wk =   0.1250000
        k(   32) = (   1.0000000  -0.5000000   1.5000000), wk =   0.0000000
        k(   33) = (  -0.2500000   0.2500000   0.7500000), wk =   0.1250000
        k(   34) = (   0.5000000   0.0000000   1.5000000), wk =   0.0000000
        k(   35) = (  -0.2500000   0.7500000   0.2500000), wk =   0.1250000
        k(   36) = (   0.5000000   0.5000000   1.0000000), wk =   0.0000000
        k(   37) = (  -0.2500000  -0.7500000  -0.2500000), wk =   0.0625000
        k(   38) = (   0.5000000  -1.0000000   0.5000000), wk =   0.0000000
        k(   39) = (   0.2500000  -0.7500000   0.2500000), wk =   0.0625000
        k(   40) = (   1.0000000  -1.0000000   1.0000000), wk =   0.0000000

     G cutoff =  178.7306  (   2445 G-vectors)     FFT grid: ( 20, 20, 20)

     Largest allocated arrays     est. size (Mb)     dimensions
        Kohn-Sham Wavefunctions         0.02 Mb     (    331,   4)
        NL pseudopotentials             0.04 Mb     (    331,   8)
        Each V/rho on FFT grid          0.12 Mb     (   8000)
        Each G-vector array             0.02 Mb     (   2445)
        G-vector shells                 0.00 Mb     (     61)
     Largest temporary arrays     est. size (Mb)     dimensions
        Auxiliary wavefunctions         0.08 Mb     (    331,  16)
        Each subspace H/S matrix        0.00 Mb     (     16,  16)
        Each <psi_i|beta_j> matrix      0.00 Mb     (      8,   4)

     The potential is recalculated from file :
     /home/dalcorso/tmp/5/_ph0alas.save/charge-density.dat

     Starting wfc are   13 atomic wfcs

     total cpu time spent up to now is      0.08 secs

     per-process dynamical memory:     4.1 Mb

     Band Structure Calculation
     Davidson diagonalization with overlap

     ethr =  1.25E-10,  avg # of iterations =  9.9

     total cpu time spent up to now is      1.67 secs

     End of band structure calculation

          k = 0.2500 0.2500 0.2500     band energies (ev):

    -6.3573   1.7036   4.6971   4.6971

          k = 1.0000 0.0000 1.0000     band energies (ev):

    -4.8214  -0.4470   2.9275   2.9275

          k = 0.2500 0.2500 0.7500     band energies (ev):

    -5.1817  -0.0414   2.3126   3.5087

          k = 1.0000 0.0000 1.5000     band energies (ev):

    -4.7849  -0.0517   1.7950   2.1911

          k =-0.2500-0.2500 0.2500     band energies (ev):

    -6.3573   1.7036   4.6971   4.6971

          k = 0.5000-0.5000 1.0000     band energies (ev):

    -5.5285   0.5006   2.1486   4.2665

          k =-0.2500 0.2500-0.2500     band energies (ev):

    -6.3573   1.7036   4.6971   4.6971

          k = 0.5000 0.0000 0.5000     band energies (ev):

    -5.5285   0.5006   2.1486   4.2665

          k =-0.2500-0.2500-0.2500     band energies (ev):

    -6.3573   1.7036   4.6971   4.6971

          k = 0.5000-0.5000 0.5000     band energies (ev):

    -5.4216  -0.6402   4.3485   4.3485

          k = 0.2500 0.2500-0.2500     band energies (ev):

    -6.3573   1.7036   4.6971   4.6971

          k = 1.0000 0.0000 0.5000     band energies (ev):

    -4.7849  -0.0517   1.7950   2.1911

          k = 0.2500-0.2500 0.2500     band energies (ev):

    -6.3573   1.7036   4.6971   4.6971

          k = 1.0000-0.5000 1.0000     band energies (ev):

    -6.1428   1.9398   3.7849   3.7849

          k =-0.2500-0.7500 0.2500     band energies (ev):

    -5.1817  -0.0414   2.3126   3.5087

          k = 0.5000-1.0000 1.0000     band energies (ev):

    -6.1428   1.9398   3.7849   3.7849

          k =-0.2500 0.7500-0.2500     band energies (ev):

    -5.1817  -0.0414   2.3126   3.5087

          k = 0.5000 0.5000 0.5000     band energies (ev):

    -5.4216  -0.6402   4.3485   4.3485

          k =-0.2500-0.2500 0.7500     band energies (ev):

    -5.1817  -0.0414   2.3126   3.5087

          k = 0.5000-0.5000 1.5000     band energies (ev):

    -5.4216  -0.6402   4.3485   4.3485

          k = 0.2500-0.2500-0.7500     band energies (ev):

    -5.1817  -0.0414   2.3126   3.5087

          k = 1.0000-0.5000 0.0000     band energies (ev):

    -4.7849  -0.0517   1.7950   2.1911

          k =-0.7500 0.2500-0.2500     band energies (ev):

    -5.1817  -0.0414   2.3126   3.5087

          k = 0.0000 0.0000 0.5000     band energies (ev):

    -6.1428   1.9398   3.7849   3.7849

          k = 0.2500 0.7500 0.2500     band energies (ev):

    -5.1817  -0.0414   2.3126   3.5087

          k = 1.0000 0.5000 1.0000     band energies (ev):

    -6.1428   1.9398   3.7849   3.7849

          k =-0.2500-0.2500-0.7500     band energies (ev):

    -5.1817  -0.0414   2.3126   3.5087

          k = 0.5000-0.5000 0.0000     band energies (ev):

    -5.5285   0.5006   2.1486   4.2665

          k = 0.2500 0.2500-0.7500     band energies (ev):

    -5.1817  -0.0414   2.3126   3.5087

          k = 1.0000 0.0000 0.0000     band energies (ev):

    -4.8214  -0.4470   2.9275   2.9275

          k = 0.2500-0.2500 0.7500     band energies (ev):

    -5.1817  -0.0414   2.3126   3.5087

          k = 1.0000-0.5000 1.5000     band energies (ev):

    -5.5285   0.5006   2.1486   4.2665

          k =-0.2500 0.2500 0.7500     band energies (ev):

    -5.1817  -0.0414   2.3126   3.5087

          k = 0.5000 0.0000 1.5000     band energies (ev):

    -5.5285   0.5006   2.1486   4.2665

          k =-0.2500 0.7500 0.2500     band energies (ev):

    -5.1817  -0.0414   2.3126   3.5087

          k = 0.5000 0.5000 1.0000     band energies (ev):

    -5.5285   0.5006   2.1486   4.2665

          k =-0.2500-0.7500-0.2500     band energies (ev):

    -5.1817  -0.0414   2.3126   3.5087

          k = 0.5000-1.0000 0.5000     band energies (ev):

    -5.5285   0.5006   2.1486   4.2665

          k = 0.2500-0.7500 0.2500     band energies (ev):

    -5.1817  -0.0414   2.3126   3.5087

          k = 1.0000-1.0000 1.0000     band energies (ev):

    -6.9795   5.1763   5.1763   5.1763

     Writing output data file alas.save

                                                                                

     bravais-lattice index     =            2
     lattice parameter (a_0)   =      10.5000  a.u.
     unit-cell volume          =     289.4062 (a.u.)^3
     number of atoms/cell      =            2
     number of atomic types    =            2
     kinetic-energy cut-off    =      16.0000  Ry
     charge density cut-off    =      64.0000  Ry
     convergence threshold     =      1.0E-12
     beta                      =       0.7000
     number of iterations used =            4
     Exchange-correlation      =  SLA  PZ   NOGX NOGC (1100)
     EXX-fraction              =        0.00


     celldm(1)=   10.50000  celldm(2)=    0.00000  celldm(3)=    0.00000
     celldm(4)=    0.00000  celldm(5)=    0.00000  celldm(6)=    0.00000

     crystal axes: (cart. coord. in units of a_0)
               a(1) = ( -0.5000  0.0000  0.5000 )  
               a(2) = (  0.0000  0.5000  0.5000 )  
               a(3) = ( -0.5000  0.5000  0.0000 )  

     reciprocal axes: (cart. coord. in units 2 pi/a_0)
               b(1) = ( -1.0000 -1.0000  1.0000 )  
               b(2) = (  1.0000  1.0000  1.0000 )  
               b(3) = ( -1.0000  1.0000 -1.0000 )  


     Atoms inside the unit cell: 

   Cartesian axes

     site n.  atom      mass           positions (a_0 units)
        1        Al  26.9800   tau( 1) = (    0.00000    0.00000    0.00000  )
        2        As  74.9200   tau( 2) = (    0.25000    0.25000    0.25000  )

     Computing dynamical matrix for 
                    q = (   0.7500000  -0.2500000   0.7500000 )
 
      2 Sym.Ops. (no q -> -q+G )


     G cutoff =  178.7306  (   2445 G-vectors)     FFT grid: ( 20, 20, 20)
     number of k points=    40

     PseudoPot. # 1 for Al read from file Al.pz-vbc.UPF
     Pseudo is Norm-conserving, Zval =  3.0
     Generated by new atomic code, or converted to UPF format
     Using radial grid of  171 points,  2 beta functions with: 
                l(1) =   0
                l(2) =   1

     PseudoPot. # 2 for As read from file As.pz-bhs.UPF
     Pseudo is Norm-conserving, Zval =  5.0
     Generated by new atomic code, or converted to UPF format
     Using radial grid of  525 points,  2 beta functions with: 
                l(1) =   0
                l(2) =   1


     Atomic displacements:
     There are   6 irreducible representations

     Representation     1      1 modes -A' To be done

     Representation     2      1 modes -A' To be done

     Representation     3      1 modes -A'' To be done

     Representation     4      1 modes -A'' To be done

     Representation     5      1 modes -A' To be done

     Representation     6      1 modes -A' To be done



     Alpha used in Ewald sum =   0.7000
     PHONON       :     2.30s CPU time,        2.35s WALL time



     Representation #  1 mode #   1

     Self-consistent Calculation

      iter #   1 total cpu time :     2.8 secs   av.it.:   6.3
      thresh= 0.100E-01 alpha_mix =  0.700 |ddv_scf|^2 =  0.109E-03

      iter #   2 total cpu time :     3.4 secs   av.it.:   8.8
      thresh= 0.104E-02 alpha_mix =  0.700 |ddv_scf|^2 =  0.231E-03

      iter #   3 total cpu time :     4.0 secs   av.it.:   7.8
      thresh= 0.152E-02 alpha_mix =  0.700 |ddv_scf|^2 =  0.103E-05

      iter #   4 total cpu time :     4.5 secs   av.it.:   8.5
      thresh= 0.102E-03 alpha_mix =  0.700 |ddv_scf|^2 =  0.750E-08

      iter #   5 total cpu time :     5.1 secs   av.it.:   8.7
      thresh= 0.866E-05 alpha_mix =  0.700 |ddv_scf|^2 =  0.606E-09

      iter #   6 total cpu time :     5.7 secs   av.it.:   8.6
      thresh= 0.246E-05 alpha_mix =  0.700 |ddv_scf|^2 =  0.993E-11

      iter #   7 total cpu time :     6.3 secs   av.it.:   8.4
      thresh= 0.315E-06 alpha_mix =  0.700 |ddv_scf|^2 =  0.319E-12

     End of self-consistent calculation

     Convergence has been achieved 


     Representation #  2 mode #   2

     Self-consistent Calculation

      iter #   1 total cpu time :     6.7 secs   av.it.:   5.6
      thresh= 0.100E-01 alpha_mix =  0.700 |ddv_scf|^2 =  0.325E-04

      iter #   2 total cpu time :     7.3 secs   av.it.:   8.7
      thresh= 0.570E-03 alpha_mix =  0.700 |ddv_scf|^2 =  0.642E-04

      iter #   3 total cpu time :     7.8 secs   av.it.:   7.8
      thresh= 0.801E-03 alpha_mix =  0.700 |ddv_scf|^2 =  0.265E-06

      iter #   4 total cpu time :     8.4 secs   av.it.:   8.3
      thresh= 0.515E-04 alpha_mix =  0.700 |ddv_scf|^2 =  0.389E-08

      iter #   5 total cpu time :     9.0 secs   av.it.:   8.5
      thresh= 0.624E-05 alpha_mix =  0.700 |ddv_scf|^2 =  0.276E-09

      iter #   6 total cpu time :     9.6 secs   av.it.:   8.7
      thresh= 0.166E-05 alpha_mix =  0.700 |ddv_scf|^2 =  0.166E-10

      iter #   7 total cpu time :    10.2 secs   av.it.:   8.7
      thresh= 0.407E-06 alpha_mix =  0.700 |ddv_scf|^2 =  0.721E-12

     End of self-consistent calculation

     Convergence has been achieved 


     Representation #  3 mode #   3

     Self-consistent Calculation

      iter #   1 total cpu time :    10.6 secs   av.it.:   4.8
      thresh= 0.100E-01 alpha_mix =  0.700 |ddv_scf|^2 =  0.137E-05

      iter #   2 total cpu time :    11.2 secs   av.it.:   8.4
      thresh= 0.117E-03 alpha_mix =  0.700 |ddv_scf|^2 =  0.199E-06

      iter #   3 total cpu time :    11.9 secs   av.it.:   8.2
      thresh= 0.446E-04 alpha_mix =  0.700 |ddv_scf|^2 =  0.673E-09

      iter #   4 total cpu time :    12.5 secs   av.it.:   7.8
      thresh= 0.259E-05 alpha_mix =  0.700 |ddv_scf|^2 =  0.180E-10

      iter #   5 total cpu time :    13.0 secs   av.it.:   7.5
      thresh= 0.424E-06 alpha_mix =  0.700 |ddv_scf|^2 =  0.652E-14

     End of self-consistent calculation

     Convergence has been achieved 


     Representation #  4 mode #   4

     Self-consistent Calculation

      iter #   1 total cpu time :    13.5 secs   av.it.:   5.8
      thresh= 0.100E-01 alpha_mix =  0.700 |ddv_scf|^2 =  0.102E-04

      iter #   2 total cpu time :    14.1 secs   av.it.:   8.4
      thresh= 0.320E-03 alpha_mix =  0.700 |ddv_scf|^2 =  0.164E-05

      iter #   3 total cpu time :    14.7 secs   av.it.:   8.2
      thresh= 0.128E-03 alpha_mix =  0.700 |ddv_scf|^2 =  0.397E-09

      iter #   4 total cpu time :    15.3 secs   av.it.:   8.1
      thresh= 0.199E-05 alpha_mix =  0.700 |ddv_scf|^2 =  0.142E-10

      iter #   5 total cpu time :    15.9 secs   av.it.:   8.2
      thresh= 0.377E-06 alpha_mix =  0.700 |ddv_scf|^2 =  0.559E-13

     End of self-consistent calculation

     Convergence has been achieved 


     Representation #  5 mode #   5

     Self-consistent Calculation

      iter #   1 total cpu time :    16.4 secs   av.it.:   6.4
      thresh= 0.100E-01 alpha_mix =  0.700 |ddv_scf|^2 =  0.154E-03

      iter #   2 total cpu time :    17.0 secs   av.it.:   8.8
      thresh= 0.124E-02 alpha_mix =  0.700 |ddv_scf|^2 =  0.333E-03

      iter #   3 total cpu time :    17.6 secs   av.it.:   7.8
      thresh= 0.182E-02 alpha_mix =  0.700 |ddv_scf|^2 =  0.112E-05

      iter #   4 total cpu time :    18.2 secs   av.it.:   8.4
      thresh= 0.106E-03 alpha_mix =  0.700 |ddv_scf|^2 =  0.642E-08

      iter #   5 total cpu time :    18.8 secs   av.it.:   8.8
      thresh= 0.801E-05 alpha_mix =  0.700 |ddv_scf|^2 =  0.558E-09

      iter #   6 total cpu time :    19.4 secs   av.it.:   8.6
      thresh= 0.236E-05 alpha_mix =  0.700 |ddv_scf|^2 =  0.126E-10

      iter #   7 total cpu time :    20.0 secs   av.it.:   8.4
      thresh= 0.355E-06 alpha_mix =  0.700 |ddv_scf|^2 =  0.288E-12

     End of self-consistent calculation

     Convergence has been achieved 


     Representation #  6 mode #   6

     Self-consistent Calculation

      iter #   1 total cpu time :    20.4 secs   av.it.:   5.3
      thresh= 0.100E-01 alpha_mix =  0.700 |ddv_scf|^2 =  0.954E-05

      iter #   2 total cpu time :    21.1 secs   av.it.:   8.9
      thresh= 0.309E-03 alpha_mix =  0.700 |ddv_scf|^2 =  0.111E-04

      iter #   3 total cpu time :    21.6 secs   av.it.:   8.2
      thresh= 0.333E-03 alpha_mix =  0.700 |ddv_scf|^2 =  0.392E-06

      iter #   4 total cpu time :    22.2 secs   av.it.:   8.1
      thresh= 0.626E-04 alpha_mix =  0.700 |ddv_scf|^2 =  0.296E-08

      iter #   5 total cpu time :    22.8 secs   av.it.:   8.6
      thresh= 0.544E-05 alpha_mix =  0.700 |ddv_scf|^2 =  0.212E-09

      iter #   6 total cpu time :    23.4 secs   av.it.:   8.7
      thresh= 0.146E-05 alpha_mix =  0.700 |ddv_scf|^2 =  0.107E-10

      iter #   7 total cpu time :    24.0 secs   av.it.:   8.7
      thresh= 0.327E-06 alpha_mix =  0.700 |ddv_scf|^2 =  0.282E-12

     End of self-consistent calculation

     Convergence has been achieved 
 
     Number of q in the star =   12
     List of q in the star:
          1   0.750000000  -0.250000000   0.750000000
          2  -0.750000000  -0.750000000  -0.250000000
          3  -0.750000000   0.750000000   0.250000000
          4  -0.750000000   0.250000000   0.750000000
          5   0.750000000   0.250000000  -0.750000000
          6   0.750000000   0.750000000  -0.250000000
          7   0.750000000  -0.750000000   0.250000000
          8  -0.250000000   0.750000000   0.750000000
          9   0.250000000   0.750000000  -0.750000000
         10  -0.250000000  -0.750000000  -0.750000000
         11   0.250000000  -0.750000000   0.750000000
         12  -0.750000000  -0.250000000  -0.750000000
     In addition there is the -q list: 
          1  -0.750000000   0.250000000  -0.750000000
          2   0.750000000   0.750000000   0.250000000
          3   0.750000000  -0.750000000  -0.250000000
          4   0.750000000  -0.250000000  -0.750000000
          5  -0.750000000  -0.250000000   0.750000000
          6  -0.750000000  -0.750000000   0.250000000
          7  -0.750000000   0.750000000  -0.250000000
          8   0.250000000  -0.750000000  -0.750000000
          9  -0.250000000  -0.750000000   0.750000000
         10   0.250000000   0.750000000   0.750000000
         11  -0.250000000   0.750000000  -0.750000000
         12   0.750000000   0.250000000   0.750000000

     Diagonalizing the dynamical matrix

     q = (    0.750000000  -0.250000000   0.750000000 ) 

 **************************************************************************
     omega( 1) =       2.623783 [THz] =      87.520553 [cm-1]
     omega( 2) =       3.806595 [THz] =     126.975194 [cm-1]
     omega( 3) =       5.904808 [THz] =     196.964513 [cm-1]
     omega( 4) =      10.568693 [THz] =     352.536008 [cm-1]
     omega( 5) =      10.588343 [THz] =     353.191451 [cm-1]
     omega( 6) =      11.477327 [THz] =     382.844959 [cm-1]
 **************************************************************************

     Mode symmetry, C_s (m)     point group:

     omega(  1 -  1) =         87.5  [cm-1]   --> A''                
     omega(  2 -  2) =        127.0  [cm-1]   --> A'                 
     omega(  3 -  3) =        197.0  [cm-1]   --> A'                 
     omega(  4 -  4) =        352.5  [cm-1]   --> A''                
     omega(  5 -  5) =        353.2  [cm-1]   --> A'                 
     omega(  6 -  6) =        382.8  [cm-1]   --> A'                 

 **************************************************************************
 
     init_run     :      0.07s CPU      0.08s WALL (       1 calls)
     electrons    :      1.58s CPU      1.60s WALL (       1 calls)

     Called by init_run:
     wfcinit      :      0.00s CPU      0.00s WALL (       1 calls)
     potinit      :      0.00s CPU      0.00s WALL (       1 calls)

     Called by electrons:
     c_bands      :      1.58s CPU      1.59s WALL (       1 calls)
     v_of_rho     :      0.00s CPU      0.00s WALL (       2 calls)

     Called by c_bands:
     init_us_2    :      0.14s CPU      0.14s WALL (     960 calls)
     cegterg      :      1.21s CPU      1.21s WALL (      40 calls)

     Called by *egterg:
     h_psi        :      1.36s CPU      1.38s WALL (     477 calls)
     g_psi        :      0.02s CPU      0.03s WALL (     397 calls)
     cdiaghg      :      0.05s CPU      0.05s WALL (     437 calls)

     Called by h_psi:
     add_vuspsi   :      0.24s CPU      0.25s WALL (    7559 calls)

     General routines
     calbec       :      0.49s CPU      0.49s WALL (   15321 calls)
     cft3s        :     18.86s CPU     18.82s WALL (   67091 calls)
     davcio       :      0.02s CPU      0.22s WALL (    4152 calls)
 
     Parallel routines
 
     PHONON       :    23.63s CPU time,       24.07s WALL time

     INITIALIZATION: 
     phq_setup    :      0.01s CPU      0.01s WALL (       1 calls)
     phq_init     :      0.05s CPU      0.05s WALL (       1 calls)
 
     phq_init     :      0.05s CPU      0.05s WALL (       1 calls)
     init_vloc    :      0.00s CPU      0.00s WALL (       2 calls)
     init_us_1    :      0.06s CPU      0.06s WALL (       2 calls)
 
     DYNAMICAL MATRIX:
     dynmat0      :      0.01s CPU      0.02s WALL (       1 calls)
     phqscf       :     21.32s CPU     21.70s WALL (       1 calls)
     dynmatrix    :      0.01s CPU      0.01s WALL (       1 calls)
 
     phqscf       :     21.32s CPU     21.70s WALL (       1 calls)
     solve_linter :     21.20s CPU     21.58s WALL (       6 calls)
     drhodv       :      0.06s CPU      0.06s WALL (       6 calls)
 
     dynmat0      :      0.01s CPU      0.02s WALL (       1 calls)
     dynmat_us    :      0.01s CPU      0.01s WALL (       1 calls)
     d2ionq       :      0.00s CPU      0.00s WALL (       1 calls)
 
     dynmat_us    :      0.01s CPU      0.01s WALL (       1 calls)
 
     phqscf       :     21.32s CPU     21.70s WALL (       1 calls)
     solve_linter :     21.20s CPU     21.58s WALL (       6 calls)
 
     solve_linter :     21.20s CPU     21.58s WALL (       6 calls)
     dvqpsi_us    :      0.37s CPU      0.37s WALL (     120 calls)
     ortho        :      0.04s CPU      0.03s WALL (     760 calls)
     cgsolve      :     16.73s CPU     16.86s WALL (     760 calls)
     incdrhoscf   :      1.92s CPU      1.95s WALL (     760 calls)
     vpsifft      :      1.57s CPU      1.57s WALL (     640 calls)
     dv_of_drho   :      0.05s CPU      0.05s WALL (      38 calls)
     mix_pot      :      0.03s CPU      0.19s WALL (      38 calls)
     psymdvscf    :      0.03s CPU      0.03s WALL (      38 calls)
 
     dvqpsi_us    :      0.37s CPU      0.37s WALL (     120 calls)
     dvqpsi_us_on :      0.02s CPU      0.01s WALL (     120 calls)
 
     cgsolve      :     16.73s CPU     16.86s WALL (     760 calls)
     ch_psi       :     16.48s CPU     16.58s WALL (    7082 calls)
 
     ch_psi       :     16.48s CPU     16.58s WALL (    7082 calls)
     h_psiq       :     15.82s CPU     15.91s WALL (    7082 calls)
     last         :      0.60s CPU      0.59s WALL (    7082 calls)
 
     h_psiq       :     15.82s CPU     15.91s WALL (    7082 calls)
     firstfft     :      7.53s CPU      7.54s WALL (   25222 calls)
     secondfft    :      7.12s CPU      7.13s WALL (   25222 calls)
     add_vuspsi   :      0.24s CPU      0.25s WALL (    7559 calls)
 
     incdrhoscf   :      1.92s CPU      1.95s WALL (     760 calls)
 
 
      General routines
     calbec       :      0.49s CPU      0.49s WALL (   15321 calls)
     cft3s        :     18.86s CPU     18.82s WALL (   67091 calls)
     davcio       :      0.02s CPU      0.22s WALL (    4152 calls)
     write_rec    :      0.33s CPU      0.36s WALL (      44 calls)
 
