
     Program PWSCF v.6.3 starts on 25Jul2018 at 11:52:25 

     This program is part of the open-source Quantum ESPRESSO suite
     for quantum simulation of materials; please cite
         "P. Giannozzi et al., J. Phys.:Condens. Matter 21 395502 (2009);
         "P. Giannozzi et al., J. Phys.:Condens. Matter 29 465901 (2017);
          URL http://www.quantum-espresso.org", 
     in publications or presentations arising from this work. More details at
     http://www.quantum-espresso.org/quote

     Parallel version (MPI), running on     4 processors

     MPI processes distributed on     1 nodes
     R & G space division:  proc/nbgrp/npool/nimage =       4
     Waiting for input...
     Reading input from standard input
     Message from routine read_cards :
     DEPRECATED: no units specified in ATOMIC_POSITIONS card
     Message from routine read_cards :
     ATOMIC_POSITIONS: units set to alat

     Current dimensions of program PWSCF are:
     Max number of different atomic species (ntypx) = 10
     Max number of k-points (npk) =  40000
     Max angular momentum in pseudopotentials (lmaxx) =  3

     Atomic positions and unit cell read from directory:
     /home/degironc/QE/gitlab/fork/q-e/tempdir/cu.save/

               file Cu.pz-d-rrkjus.UPF: wavefunction(s)  3D renormalized

     Subspace diagonalization in iterative solution of the eigenvalue problem:
     a serial algorithm will be used


     Parallelization info
     --------------------
     sticks:   dense  smooth     PW     G-vecs:    dense   smooth      PW
     Min         118      37     15                 1683      309      82
     Max         119      38     16                 1684      312      83
     Sum         475     151     61                 6735     1243     331



     bravais-lattice index     =            2
     lattice parameter (alat)  =       6.7300  a.u.
     unit-cell volume          =      76.2053 (a.u.)^3
     number of atoms/cell      =            1
     number of atomic types    =            1
     number of electrons       =        11.00
     number of Kohn-Sham states=            8
     kinetic-energy cutoff     =      25.0000  Ry
     charge density cutoff     =     300.0000  Ry
     Exchange-correlation      = SLA PZ NOGX NOGC ( 1  1  0  0 0 0)

     celldm(1)=   6.730000  celldm(2)=   0.000000  celldm(3)=   0.000000
     celldm(4)=   0.000000  celldm(5)=   0.000000  celldm(6)=   0.000000

     crystal axes: (cart. coord. in units of alat)
               a(1) = (  -0.500000   0.000000   0.500000 )  
               a(2) = (   0.000000   0.500000   0.500000 )  
               a(3) = (  -0.500000   0.500000   0.000000 )  

     reciprocal axes: (cart. coord. in units 2 pi/alat)
               b(1) = ( -1.000000 -1.000000  1.000000 )  
               b(2) = (  1.000000  1.000000  1.000000 )  
               b(3) = ( -1.000000  1.000000 -1.000000 )  


     PseudoPot. # 1 for Cu read from file:
     /home/degironc/QE/gitlab/fork/q-e/pseudo/Cu.pz-d-rrkjus.UPF
     MD5 check sum: 404e0800fcb7d0a40f210bcae0ee04dc
     Pseudo is Ultrasoft, Zval = 11.0
     Generated by new atomic code, or converted to UPF format
     Using radial grid of  899 points,  3 beta functions with: 
                l(1) =   2
                l(2) =   2
                l(3) =   1
     Q(r) pseudized with 0 coefficients 


     atomic species   valence    mass     pseudopotential
        Cu            11.00    63.55000     Cu( 1.00)

     48 Sym. Ops., with inversion, found



   Cartesian axes

     site n.     atom                  positions (alat units)
         1           Cu  tau(   1) = (   0.0000000   0.0000000   0.0000000  )

     number of k points=    28
                       cart. coord. in units 2pi/alat
        k(    1) = (   0.0000000   0.0000000   0.0000000), wk =   0.0714286
        k(    2) = (   0.0000000   0.0000000   0.1000000), wk =   0.0714286
        k(    3) = (   0.0000000   0.0000000   0.2000000), wk =   0.0714286
        k(    4) = (   0.0000000   0.0000000   0.3000000), wk =   0.0714286
        k(    5) = (   0.0000000   0.0000000   0.4000000), wk =   0.0714286
        k(    6) = (   0.0000000   0.0000000   0.5000000), wk =   0.0714286
        k(    7) = (   0.0000000   0.0000000   0.6000000), wk =   0.0714286
        k(    8) = (   0.0000000   0.0000000   0.7000000), wk =   0.0714286
        k(    9) = (   0.0000000   0.0000000   0.8000000), wk =   0.0714286
        k(   10) = (   0.0000000   0.0000000   0.9000000), wk =   0.0714286
        k(   11) = (   0.0000000   0.0000000   1.0000000), wk =   0.0714286
        k(   12) = (   0.0000000   0.0000000   0.0000000), wk =   0.0714286
        k(   13) = (   0.0000000   0.1000000   0.1000000), wk =   0.0714286
        k(   14) = (   0.0000000   0.2000000   0.2000000), wk =   0.0714286
        k(   15) = (   0.0000000   0.3000000   0.3000000), wk =   0.0714286
        k(   16) = (   0.0000000   0.4000000   0.4000000), wk =   0.0714286
        k(   17) = (   0.0000000   0.5000000   0.5000000), wk =   0.0714286
        k(   18) = (   0.0000000   0.6000000   0.6000000), wk =   0.0714286
        k(   19) = (   0.0000000   0.7000000   0.7000000), wk =   0.0714286
        k(   20) = (   0.0000000   0.8000000   0.8000000), wk =   0.0714286
        k(   21) = (   0.0000000   0.9000000   0.9000000), wk =   0.0714286
        k(   22) = (   0.0000000   1.0000000   1.0000000), wk =   0.0714286
        k(   23) = (   0.0000000   0.0000000   0.0000000), wk =   0.0714286
        k(   24) = (   0.1000000   0.1000000   0.1000000), wk =   0.0714286
        k(   25) = (   0.2000000   0.2000000   0.2000000), wk =   0.0714286
        k(   26) = (   0.3000000   0.3000000   0.3000000), wk =   0.0714286
        k(   27) = (   0.4000000   0.4000000   0.4000000), wk =   0.0714286
        k(   28) = (   0.5000000   0.5000000   0.5000000), wk =   0.0714286

     Dense  grid:     6735 G-vectors     FFT dimensions: (  27,  27,  27)

     Smooth grid:     1243 G-vectors     FFT dimensions: (  15,  15,  15)

     Estimated max dynamical RAM per process >       3.75 MB

     Estimated total dynamical RAM >      15.01 MB

     The potential is recalculated from file :
     /home/degironc/QE/gitlab/fork/q-e/tempdir/cu.save/charge-density.dat

     Starting wfcs are    6 randomized atomic wfcs +    2 random wfcs

     Band Structure Calculation
     PPCG style diagonalization

     ethr =  9.09E-09,  avg # of iterations =  0.0

     total cpu time spent up to now is        1.1 secs

     End of band structure calculation

          k = 0.0000 0.0000 0.0000 (   169 PWs)   bands (ev):

     4.9903  11.2077  11.2077  11.2077  12.0970  12.0970  38.8597  41.0135

          k = 0.0000 0.0000 0.1000 (   169 PWs)   bands (ev):

     5.1159  11.1692  11.2391  11.2391  12.0620  12.1113  38.3442  39.7393

          k = 0.0000 0.0000 0.2000 (   165 PWs)   bands (ev):

     5.4880  11.0581  11.3322  11.3322  11.9637  12.1530  37.3085  37.7408

          k = 0.0000 0.0000 0.3000 (   161 PWs)   bands (ev):

     6.0906  10.8868  11.4835  11.4835  11.8222  12.2180  35.7813  35.7909

          k = 0.0000 0.0000 0.4000 (   161 PWs)   bands (ev):

     6.8875  10.6735  11.6826  11.6854  11.6854  12.3003  33.9677  33.9677

          k = 0.0000 0.0000 0.5000 (   165 PWs)   bands (ev):

     7.7949  10.4408  11.6385  11.9260  11.9260  12.3920  32.3402  32.3402

          k = 0.0000 0.0000 0.6000 (   161 PWs)   bands (ev):

     8.6212  10.2118  11.8887  12.1874  12.1874  12.4843  30.7573  30.9307

          k = 0.0000 0.0000 0.7000 (   162 PWs)   bands (ev):

     9.1057  10.0085  12.4438  12.4438  12.5683  12.6862  27.8392  29.7729

          k = 0.0000 0.0000 0.8000 (   162 PWs)   bands (ev):

     9.2553   9.8492  12.6349  12.6636  12.6636  13.9746  25.1925  28.9047

          k = 0.0000 0.0000 0.9000 (   162 PWs)   bands (ev):

     9.2687   9.7479  12.6779  12.8136  12.8136  15.3582  23.0582  28.3640

          k = 0.0000 0.0000 1.0000 (   150 PWs)   bands (ev):

     9.2631   9.7134  12.6928  12.8673  12.8673  16.0646  22.1105  28.1800

          k = 0.0000 0.0000 0.0000 (   169 PWs)   bands (ev):

     4.9903  11.2077  11.2077  11.2077  12.0970  12.0970  38.8597  41.0135

          k = 0.0000 0.1000 0.1000 (   169 PWs)   bands (ev):

     5.2406  11.1486  11.2538  11.2659  12.0529  12.1045  37.2043  38.2094

          k = 0.0000 0.2000 0.2000 (   163 PWs)   bands (ev):

     5.9707  10.9964  11.3768  11.3863  11.9414  12.1778  33.7497  34.5133

          k = 0.0000 0.3000 0.3000 (   160 PWs)   bands (ev):

     7.1064  10.8153  11.3729  11.5885  11.8147  12.4635  30.4021  31.1644

          k = 0.0000 0.4000 0.4000 (   154 PWs)   bands (ev):

     8.4628  10.6864  11.1959  11.7345  11.8356  13.0686  27.3486  28.3099

          k = 0.0000 0.5000 0.5000 (   164 PWs)   bands (ev):

     9.6290  10.6831  10.9004  11.7493  12.0989  14.2090  24.5978  26.0260

          k = 0.0000 0.6000 0.6000 (   166 PWs)   bands (ev):

    10.1561  10.5437  10.8607  11.8797  12.3504  16.1980  22.1412  24.3519

          k = 0.0000 0.7000 0.7000 (   170 PWs)   bands (ev):

    10.0457  10.2400  11.2451  12.1090  12.5666  18.9500  19.9756  23.2592

          k = 0.0000 0.8000 0.8000 (   170 PWs)   bands (ev):

     9.6805   9.9876  11.8240  12.3802  12.7308  18.1241  22.0048  22.8475

          k = 0.0000 0.9000 0.9000 (   162 PWs)   bands (ev):

     9.3787   9.7869  12.4940  12.6049  12.8327  16.6915  22.1943  25.8673

          k = 0.0000 1.0000 1.0000 (   150 PWs)   bands (ev):

     9.2631   9.7134  12.6928  12.8673  12.8673  16.0646  22.1105  28.1800

          k = 0.0000 0.0000 0.0000 (   169 PWs)   bands (ev):

     4.9903  11.2077  11.2077  11.2077  12.0970  12.0970  38.8597  41.0135

          k = 0.1000 0.1000 0.1000 (   168 PWs)   bands (ev):

     5.3643  11.1305  11.2776  11.2776  12.0730  12.0730  35.6746  39.3830

          k = 0.2000 0.2000 0.2000 (   159 PWs)   bands (ev):

     6.4308  10.9800  11.3821  11.3821  12.0981  12.0981  30.1329  38.8261

          k = 0.3000 0.3000 0.3000 (   153 PWs)   bands (ev):

     7.9094  11.0712  11.3345  11.3345  12.3244  12.3244  25.0871  38.0371

          k = 0.4000 0.4000 0.4000 (   162 PWs)   bands (ev):

     8.9154  11.2226  11.2226  12.1732  12.5971  12.5971  20.8519  37.3038

          k = 0.5000 0.5000 0.5000 (   156 PWs)   bands (ev):

     9.1168  11.1731  11.1731  12.7125  12.7125  13.4642  18.6448  37.0219

     Writing output data file cu.save/

     init_run     :      0.14s CPU      0.15s WALL (       1 calls)
     electrons    :      0.42s CPU      0.45s WALL (       1 calls)

     Called by init_run:
     wfcinit      :      0.00s CPU      0.00s WALL (       1 calls)
     potinit      :      0.00s CPU      0.00s WALL (       1 calls)
     hinit0       :      0.13s CPU      0.13s WALL (       1 calls)

     Called by electrons:
     c_bands      :      0.41s CPU      0.45s WALL (       1 calls)
     v_of_rho     :      0.00s CPU      0.00s WALL (       1 calls)
     newd         :      0.00s CPU      0.01s WALL (       1 calls)

     Called by c_bands:
     init_us_2    :      0.00s CPU      0.00s WALL (      28 calls)
     ppcg_k       :      0.39s CPU      0.43s WALL (      28 calls)
     wfcrot       :      0.02s CPU      0.02s WALL (      28 calls)

     Called by sum_band:

     Called by ppcg_*:
     h_psi        :      0.20s CPU      0.19s WALL (     516 calls)
     s_psi        :      0.01s CPU      0.01s WALL (     516 calls)
     cdiaghg      :      0.00s CPU      0.01s WALL (     101 calls)

     Called by h_psi:
     h_psi:pot    :      0.20s CPU      0.19s WALL (     516 calls)
     h_psi:calbec :      0.01s CPU      0.02s WALL (     516 calls)
     vloc_psi     :      0.19s CPU      0.16s WALL (     516 calls)
     add_vuspsi   :      0.00s CPU      0.01s WALL (     516 calls)

     General routines
     calbec       :      0.01s CPU      0.01s WALL (     516 calls)
     fft          :      0.00s CPU      0.00s WALL (       6 calls)
     ffts         :      0.00s CPU      0.00s WALL (       1 calls)
     fftw         :      0.16s CPU      0.14s WALL (    6274 calls)
     interpolate  :      0.00s CPU      0.00s WALL (       1 calls)
     davcio       :      0.00s CPU      0.00s WALL (      56 calls)

     Parallel routines
     fft_scatt_xy :      0.03s CPU      0.02s WALL (    6281 calls)
     fft_scatt_yz :      0.06s CPU      0.05s WALL (    6281 calls)

     PWSCF        :     1.04s CPU         1.12s WALL


   This run was terminated on:  11:52:26  25Jul2018            

=------------------------------------------------------------------------------=
   JOB DONE.
=------------------------------------------------------------------------------=
