
     Program PWSCF v.6.3 starts on 25Jul2018 at 11:52:23 

     This program is part of the open-source Quantum ESPRESSO suite
     for quantum simulation of materials; please cite
         "P. Giannozzi et al., J. Phys.:Condens. Matter 21 395502 (2009);
         "P. Giannozzi et al., J. Phys.:Condens. Matter 29 465901 (2017);
          URL http://www.quantum-espresso.org", 
     in publications or presentations arising from this work. More details at
     http://www.quantum-espresso.org/quote

     Parallel version (MPI), running on     4 processors

     MPI processes distributed on     1 nodes
     R & G space division:  proc/nbgrp/npool/nimage =       4
     Waiting for input...
     Reading input from standard input
     Message from routine read_cards :
     DEPRECATED: no units specified in ATOMIC_POSITIONS card
     Message from routine read_cards :
     ATOMIC_POSITIONS: units set to alat

     Current dimensions of program PWSCF are:
     Max number of different atomic species (ntypx) = 10
     Max number of k-points (npk) =  40000
     Max angular momentum in pseudopotentials (lmaxx) =  3
               file Cu.pz-d-rrkjus.UPF: wavefunction(s)  3D renormalized

     Subspace diagonalization in iterative solution of the eigenvalue problem:
     a serial algorithm will be used


     Parallelization info
     --------------------
     sticks:   dense  smooth     PW     G-vecs:    dense   smooth      PW
     Min         118      37     15                 1683      309      76
     Max         119      38     16                 1684      312      77
     Sum         475     151     61                 6735     1243     307



     bravais-lattice index     =            2
     lattice parameter (alat)  =       6.7300  a.u.
     unit-cell volume          =      76.2053 (a.u.)^3
     number of atoms/cell      =            1
     number of atomic types    =            1
     number of electrons       =        11.00
     number of Kohn-Sham states=           10
     kinetic-energy cutoff     =      25.0000  Ry
     charge density cutoff     =     300.0000  Ry
     convergence threshold     =      1.0E-08
     mixing beta               =       0.7000
     number of iterations used =            8  plain     mixing
     Exchange-correlation      = SLA PZ NOGX NOGC ( 1  1  0  0 0 0)

     celldm(1)=   6.730000  celldm(2)=   0.000000  celldm(3)=   0.000000
     celldm(4)=   0.000000  celldm(5)=   0.000000  celldm(6)=   0.000000

     crystal axes: (cart. coord. in units of alat)
               a(1) = (  -0.500000   0.000000   0.500000 )  
               a(2) = (   0.000000   0.500000   0.500000 )  
               a(3) = (  -0.500000   0.500000   0.000000 )  

     reciprocal axes: (cart. coord. in units 2 pi/alat)
               b(1) = ( -1.000000 -1.000000  1.000000 )  
               b(2) = (  1.000000  1.000000  1.000000 )  
               b(3) = ( -1.000000  1.000000 -1.000000 )  


     PseudoPot. # 1 for Cu read from file:
     /home/degironc/QE/gitlab/fork/q-e/pseudo/Cu.pz-d-rrkjus.UPF
     MD5 check sum: 404e0800fcb7d0a40f210bcae0ee04dc
     Pseudo is Ultrasoft, Zval = 11.0
     Generated by new atomic code, or converted to UPF format
     Using radial grid of  899 points,  3 beta functions with: 
                l(1) =   2
                l(2) =   2
                l(3) =   1
     Q(r) pseudized with 0 coefficients 


     atomic species   valence    mass     pseudopotential
        Cu            11.00    63.55000     Cu( 1.00)

     48 Sym. Ops., with inversion, found



   Cartesian axes

     site n.     atom                  positions (alat units)
         1           Cu  tau(   1) = (   0.0000000   0.0000000   0.0000000  )

     number of k points=    29  Marzari-Vanderbilt smearing, width (Ry)=  0.0200
                       cart. coord. in units 2pi/alat
        k(    1) = (   0.0000000   0.0000000   0.0000000), wk =   0.0039062
        k(    2) = (  -0.1250000   0.1250000  -0.1250000), wk =   0.0312500
        k(    3) = (  -0.2500000   0.2500000  -0.2500000), wk =   0.0312500
        k(    4) = (  -0.3750000   0.3750000  -0.3750000), wk =   0.0312500
        k(    5) = (   0.5000000  -0.5000000   0.5000000), wk =   0.0156250
        k(    6) = (   0.0000000   0.2500000   0.0000000), wk =   0.0234375
        k(    7) = (  -0.1250000   0.3750000  -0.1250000), wk =   0.0937500
        k(    8) = (  -0.2500000   0.5000000  -0.2500000), wk =   0.0937500
        k(    9) = (   0.6250000  -0.3750000   0.6250000), wk =   0.0937500
        k(   10) = (   0.5000000  -0.2500000   0.5000000), wk =   0.0937500
        k(   11) = (   0.3750000  -0.1250000   0.3750000), wk =   0.0937500
        k(   12) = (   0.2500000   0.0000000   0.2500000), wk =   0.0468750
        k(   13) = (   0.0000000   0.5000000   0.0000000), wk =   0.0234375
        k(   14) = (  -0.1250000   0.6250000  -0.1250000), wk =   0.0937500
        k(   15) = (   0.7500000  -0.2500000   0.7500000), wk =   0.0937500
        k(   16) = (   0.6250000  -0.1250000   0.6250000), wk =   0.0937500
        k(   17) = (   0.5000000   0.0000000   0.5000000), wk =   0.0468750
        k(   18) = (   0.0000000   0.7500000   0.0000000), wk =   0.0234375
        k(   19) = (   0.8750000  -0.1250000   0.8750000), wk =   0.0937500
        k(   20) = (   0.7500000   0.0000000   0.7500000), wk =   0.0468750
        k(   21) = (   0.0000000  -1.0000000   0.0000000), wk =   0.0117188
        k(   22) = (  -0.2500000   0.5000000   0.0000000), wk =   0.0937500
        k(   23) = (   0.6250000  -0.3750000   0.8750000), wk =   0.1875000
        k(   24) = (   0.5000000  -0.2500000   0.7500000), wk =   0.0937500
        k(   25) = (   0.7500000  -0.2500000   1.0000000), wk =   0.0937500
        k(   26) = (   0.6250000  -0.1250000   0.8750000), wk =   0.1875000
        k(   27) = (   0.5000000   0.0000000   0.7500000), wk =   0.0937500
        k(   28) = (  -0.2500000  -1.0000000   0.0000000), wk =   0.0468750
        k(   29) = (  -0.5000000  -1.0000000   0.0000000), wk =   0.0234375

     Dense  grid:     6735 G-vectors     FFT dimensions: (  27,  27,  27)

     Smooth grid:     1243 G-vectors     FFT dimensions: (  15,  15,  15)

     Estimated max dynamical RAM per process >       4.77 MB

     Estimated total dynamical RAM >      19.06 MB

     Initial potential from superposition of free atoms

     starting charge   10.99968, renormalised to   11.00000
     Starting wfcs are    6 randomized atomic wfcs +    4 random wfcs

     total cpu time spent up to now is        0.4 secs

     Self-consistent Calculation

     iteration #  1     ecut=    25.00 Ry     beta= 0.70
     PPCG style diagonalization
     ethr =  1.00E-02,  avg # of iterations =  0.0

     total cpu time spent up to now is        0.7 secs

     total energy              =     -87.72408514 Ry
     Harris-Foulkes estimate   =     -87.90678022 Ry
     estimated scf accuracy    <       0.24782573 Ry

     iteration #  2     ecut=    25.00 Ry     beta= 0.70
     PPCG style diagonalization
     ethr =  2.25E-03,  avg # of iterations =  1.0

     total cpu time spent up to now is        0.9 secs

     total energy              =     -87.80738411 Ry
     Harris-Foulkes estimate   =     -87.90780372 Ry
     estimated scf accuracy    <       0.20288579 Ry

     iteration #  3     ecut=    25.00 Ry     beta= 0.70
     PPCG style diagonalization
     ethr =  1.84E-03,  avg # of iterations =  1.0

     total cpu time spent up to now is        1.0 secs

     total energy              =     -87.83996381 Ry
     Harris-Foulkes estimate   =     -87.84052007 Ry
     estimated scf accuracy    <       0.00102270 Ry

     iteration #  4     ecut=    25.00 Ry     beta= 0.70
     PPCG style diagonalization
     ethr =  9.30E-06,  avg # of iterations =  1.0

     total cpu time spent up to now is        1.2 secs

     total energy              =     -87.84036146 Ry
     Harris-Foulkes estimate   =     -87.84038505 Ry
     estimated scf accuracy    <       0.00006224 Ry

     iteration #  5     ecut=    25.00 Ry     beta= 0.70
     PPCG style diagonalization
     ethr =  5.66E-07,  avg # of iterations =  1.0

     total cpu time spent up to now is        1.4 secs

     total energy              =     -87.84037018 Ry
     Harris-Foulkes estimate   =     -87.84037037 Ry
     estimated scf accuracy    <       0.00000076 Ry

     iteration #  6     ecut=    25.00 Ry     beta= 0.70
     PPCG style diagonalization
     ethr =  6.93E-09,  avg # of iterations =  1.0

     total cpu time spent up to now is        1.6 secs

     End of self-consistent calculation

          k = 0.0000 0.0000 0.0000 (   169 PWs)   bands (ev):

     4.9903  11.2081  11.2081  11.2081  12.0975  12.0975  38.8597  41.0135
    41.0135  41.0135

          k =-0.1250 0.1250-0.1250 (   165 PWs)   bands (ev):

     5.5711  11.0934  11.3099  11.3099  12.0671  12.0671  34.2721  39.2718
    39.7091  39.7091

          k =-0.2500 0.2500-0.2500 (   156 PWs)   bands (ev):

     7.1557  10.9588  11.3782  11.3782  12.1897  12.1897  27.5291  38.3743
    38.3743  38.4657

          k =-0.3750 0.3750-0.3750 (   159 PWs)   bands (ev):

     8.7610  11.2484  11.2484  11.7748  12.5382  12.5382  21.8064  37.4532
    37.7377  37.7377

          k = 0.5000-0.5000 0.5000 (   156 PWs)   bands (ev):

     9.1171  11.1736  11.1736  12.7130  12.7130  13.4642  18.6451  37.0206
    37.6117  37.6117

          k = 0.0000 0.2500 0.0000 (   165 PWs)   bands (ev):

     5.7621  10.9793  11.4013  11.4013  11.8967  12.1834  36.7464  36.7464
    36.7676  38.6742

          k =-0.1250 0.3750-0.1250 (   160 PWs)   bands (ev):

     7.0146  10.7557  11.4386  11.5595  11.9802  12.3155  30.0792  34.8365
    36.4462  38.9421

          k =-0.2500 0.5000-0.2500 (   158 PWs)   bands (ev):

     8.7306  10.8330  11.1875  11.4959  12.6008  12.8121  23.9445  34.0869
    34.9385  36.6379

          k = 0.6250-0.3750 0.6250 (   163 PWs)   bands (ev):

     9.3879  10.9698  11.3768  11.6255  12.7251  14.6421  19.3240  32.8144
    34.6298  36.4064

          k = 0.5000-0.2500 0.5000 (   161 PWs)   bands (ev):

     9.3158  11.0433  11.3760  11.4873  12.4919  14.0581  20.5858  31.5897
    36.5325  37.3113

          k = 0.3750-0.1250 0.3750 (   159 PWs)   bands (ev):

     8.2144  10.8132  11.2625  11.5141  12.0385  12.8292  25.8879  31.4958
    39.3197  39.7096

          k = 0.2500 0.0000 0.2500 (   160 PWs)   bands (ev):

     6.4957  10.9050  11.3985  11.4806  11.8766  12.2859  32.0423  32.7831
    41.5265  42.4816

          k = 0.0000 0.5000 0.0000 (   165 PWs)   bands (ev):

     7.7949  10.4412  11.6389  11.9265  11.9265  12.3925  32.3403  32.3403
    33.7606  34.5456

          k =-0.1250 0.6250-0.1250 (   162 PWs)   bands (ev):

     9.0249  10.2405  11.4563  12.0264  12.6294  12.9911  26.9793  30.3544
    31.0990  35.0379

          k = 0.7500-0.2500 0.7500 (   158 PWs)   bands (ev):

     9.7716  10.3344  11.2706  11.9016  12.7568  15.5329  21.6021  27.6759
    31.3024  35.1337

          k = 0.6250-0.1250 0.6250 (   162 PWs)   bands (ev):

    10.0235  10.5319  11.0743  11.7969  12.5139  16.7768  20.0947  26.0432
    32.9721  35.8426

          k = 0.5000 0.0000 0.5000 (   164 PWs)   bands (ev):

     9.6292  10.6835  10.9008  11.7498  12.0994  14.2093  24.5979  26.0261
    35.8996  37.3882

          k = 0.0000 0.7500 0.0000 (   162 PWs)   bands (ev):

     9.2096   9.9227  12.5609  12.5609  12.6047  13.2888  26.4718  29.3002
    29.3002  33.3085

          k = 0.8750-0.1250 0.8750 (   164 PWs)   bands (ev):

     9.4549   9.8773  12.2085  12.4772  12.8020  15.9147  23.7235  25.2529
    29.0135  34.1896

          k = 0.7500 0.0000 0.7500 (   168 PWs)   bands (ev):

     9.8662  10.1146  11.5138  12.2449  12.6565  19.0074  20.5160  22.9148
    30.3250  34.7840

          k = 0.0000-1.0000 0.0000 (   150 PWs)   bands (ev):

     9.2634   9.7138  12.6933  12.8678  12.8678  16.0646  22.1107  28.1801
    28.1801  32.9240

          k =-0.2500 0.5000 0.0000 (   156 PWs)   bands (ev):

     8.3848  10.5310  11.2089  11.9357  11.9886  12.8670  28.3797  29.1682
    34.7033  39.7253

          k = 0.6250-0.3750 0.8750 (   161 PWs)   bands (ev):

     9.6557  10.6106  10.9316  11.8061  12.4662  14.3829  22.9168  28.5924
    31.6515  39.6662

          k = 0.5000-0.2500 0.7500 (   164 PWs)   bands (ev):

     9.8949  10.5935  11.1654  11.6940  12.6543  16.6923  19.1442  29.3155
    29.7920  39.3673

          k = 0.7500-0.2500 1.0000 (   166 PWs)   bands (ev):

     9.6183  10.1207  11.4223  12.3992  12.5570  14.7923  25.8716  26.6516
    27.2673  37.8998

          k = 0.6250-0.1250 0.8750 (   161 PWs)   bands (ev):

     9.9981  10.2708  11.1301  12.1310  12.7402  18.0190  21.2268  24.7953
    27.1028  39.0192

          k = 0.5000 0.0000 0.7500 (   158 PWs)   bands (ev):

    10.2773  10.4616  10.7072  12.0098  12.5611  17.1280  21.9664  24.2081
    28.8753  40.2134

          k =-0.2500-1.0000 0.0000 (   164 PWs)   bands (ev):

     9.5982   9.9510  11.8903  12.4296  12.8680  17.7244  22.3927  24.9304
    26.0248  37.2960

          k =-0.5000-1.0000 0.0000 (   156 PWs)   bands (ev):

    10.0339  10.6838  10.6838  12.0643  12.8684  20.9527  20.9527  23.1345
    24.0555  44.6539

     the Fermi energy is    14.5035 ev

!    total energy              =     -87.84037038 Ry
     Harris-Foulkes estimate   =     -87.84037036 Ry
     estimated scf accuracy    <          1.7E-09 Ry

     The total energy is the sum of the following terms:

     one-electron contribution =     -10.24664248 Ry
     hartree contribution      =      18.89584337 Ry
     xc contribution           =     -14.05721122 Ry
     ewald contribution        =     -82.43214130 Ry
     smearing contrib. (-TS)   =      -0.00021874 Ry

     convergence has been achieved in   6 iterations

     Forces acting on atoms (cartesian axes, Ry/au):

     atom    1 type  1   force =     0.00000000    0.00000000    0.00000000

     Total force =     0.000000     Total SCF correction =     0.000000


     Computing stress (Cartesian axis) and pressure

          total   stress  (Ry/bohr**3)                   (kbar)     P=  -11.69
  -0.00007944   0.00000000  -0.00000000        -11.69      0.00     -0.00
   0.00000000  -0.00007944  -0.00000000          0.00    -11.69     -0.00
  -0.00000000   0.00000000  -0.00007944         -0.00      0.00    -11.69


     Writing output data file cu.save/

     init_run     :      0.18s CPU      0.18s WALL (       1 calls)
     electrons    :      1.05s CPU      1.17s WALL (       1 calls)
     forces       :      0.02s CPU      0.02s WALL (       1 calls)
     stress       :      0.07s CPU      0.08s WALL (       1 calls)

     Called by init_run:
     wfcinit      :      0.03s CPU      0.03s WALL (       1 calls)
     potinit      :      0.00s CPU      0.01s WALL (       1 calls)
     hinit0       :      0.13s CPU      0.13s WALL (       1 calls)

     Called by electrons:
     c_bands      :      0.89s CPU      1.00s WALL (       6 calls)
     sum_band     :      0.11s CPU      0.11s WALL (       6 calls)
     v_of_rho     :      0.01s CPU      0.01s WALL (       7 calls)
     newd         :      0.05s CPU      0.04s WALL (       7 calls)
     mix_rho      :      0.00s CPU      0.00s WALL (       6 calls)

     Called by c_bands:
     init_us_2    :      0.02s CPU      0.02s WALL (     435 calls)
     ppcg_k       :      0.81s CPU      0.87s WALL (     174 calls)
     wfcrot       :      0.10s CPU      0.14s WALL (     174 calls)

     Called by sum_band:
     sum_band:bec :      0.00s CPU      0.00s WALL (     174 calls)
     addusdens    :      0.04s CPU      0.04s WALL (       6 calls)

     Called by ppcg_*:
     h_psi        :      0.43s CPU      0.51s WALL (     888 calls)
     s_psi        :      0.02s CPU      0.03s WALL (     888 calls)
     cdiaghg      :      0.05s CPU      0.04s WALL (     357 calls)

     Called by h_psi:
     h_psi:pot    :      0.43s CPU      0.50s WALL (     888 calls)
     h_psi:calbec :      0.02s CPU      0.03s WALL (     888 calls)
     vloc_psi     :      0.39s CPU      0.44s WALL (     888 calls)
     add_vuspsi   :      0.02s CPU      0.03s WALL (     888 calls)

     General routines
     calbec       :      0.04s CPU      0.04s WALL (    1207 calls)
     fft          :      0.01s CPU      0.01s WALL (      46 calls)
     ffts         :      0.00s CPU      0.00s WALL (      13 calls)
     fftw         :      0.37s CPU      0.42s WALL (   18524 calls)
     interpolate  :      0.00s CPU      0.00s WALL (       7 calls)

     Parallel routines
     fft_scatt_xy :      0.06s CPU      0.07s WALL (   18583 calls)
     fft_scatt_yz :      0.12s CPU      0.15s WALL (   18583 calls)

     PWSCF        :     1.59s CPU         1.73s WALL


   This run was terminated on:  11:52:25  25Jul2018            

=------------------------------------------------------------------------------=
   JOB DONE.
=------------------------------------------------------------------------------=
