
     Program PWSCF v.6.7GPU starts on  5May2021 at 16:42:25 

     This program is part of the open-source Quantum ESPRESSO suite
     for quantum simulation of materials; please cite
         "P. Giannozzi et al., J. Phys.:Condens. Matter 21 395502 (2009);
         "P. Giannozzi et al., J. Phys.:Condens. Matter 29 465901 (2017);
         "P. Giannozzi et al., J. Chem. Phys. 152 154105 (2020);
          URL http://www.quantum-espresso.org", 
     in publications or presentations arising from this work. More details at
     http://www.quantum-espresso.org/quote

     Parallel version (MPI), running on     1 processors

     MPI processes distributed on     1 nodes
 WARNING: VELOCITIES FROM INPUT FILE WILL BE IGNORED
 Using CP units for velocities
     Message from routine scan_end:
     No INFO block end statement, possibly corrupted file
 After first step from input file, I will read from the CPV trajectory traj/cp
 SKIPPING STEP FROM INPUT FILE
 SKIPPED STEP          111  8.054880000000000E-003
 SKIPPED STEP          114  8.272580000000000E-003
 SKIPPED STEP          117  8.490279999999999E-003
 SKIPPED STEP          120  8.707980000000001E-003
 SKIPPED STEP          123  8.925680000000000E-003
 SKIPPED STEP          126  9.143380000000000E-003
 SKIPPED STEP          129  9.361080000000001E-003
 SKIPPED STEP          132  9.578780000000000E-003
 SKIPPED STEP          135  9.796480000000000E-003
 SKIPPED STEP          138  1.001418000000000E-002
 STEP          141  1.023188000000000E-002

     Subspace diagonalization in iterative solution of the eigenvalue problem:
     a serial algorithm will be used

 
     G-vector sticks info
     --------------------
     sticks:   dense  smooth     PW     G-vecs:    dense   smooth      PW
     Sum        1281    1281    325                34265    34265    4337
 
     Using Slab Decomposition
 


     bravais-lattice index     =            1
     lattice parameter (alat)  =      10.0000  a.u.
     unit-cell volume          =    1000.0000 (a.u.)^3
     number of atoms/cell      =            3
     number of atomic types    =            2
     number of electrons       =         8.00
     number of Kohn-Sham states=            4
     kinetic-energy cutoff     =      40.0000  Ry
     charge density cutoff     =     160.0000  Ry
     scf convergence threshold =      1.0E-17
     mixing beta               =       0.7000
     number of iterations used =            8  plain     mixing
     energy convergence thresh.=      0.0E+00
     force convergence thresh. =      0.0E+00
     Exchange-correlation=  SLA  PW   PBX  PBC
                           (   1   4   3   4   0   0   0)
     nstep                     =           50


     celldm(1)=  10.000000  celldm(2)=   0.000000  celldm(3)=   0.000000
     celldm(4)=   0.000000  celldm(5)=   0.000000  celldm(6)=   0.000000

     crystal axes: (cart. coord. in units of alat)
               a(1) = (   1.000000   0.000000   0.000000 )  
               a(2) = (   0.000000   1.000000   0.000000 )  
               a(3) = (   0.000000   0.000000   1.000000 )  

     reciprocal axes: (cart. coord. in units 2 pi/alat)
               b(1) = (  1.000000  0.000000  0.000000 )  
               b(2) = (  0.000000  1.000000  0.000000 )  
               b(3) = (  0.000000  0.000000  1.000000 )  


     PseudoPot. # 1 for H  read from file:
     ../pseudo/H_HSCV_PBE-1.0.upf
     MD5 check sum: 9381039c3e76055a91507fe4cf572eb6
     Pseudo is Norm-conserving, Zval =  1.0
     Generated by new atomic code, or converted to UPF format
     Using radial grid of 2000 points,  0 beta functions with: 

     PseudoPot. # 2 for O  read from file:
     ../pseudo/O_HSCV_PBE-1.0.upf
     MD5 check sum: d1ac96ff7cc4673fd84f2420bd578511
     Pseudo is Norm-conserving, Zval =  6.0
     Generated by new atomic code, or converted to UPF format
     Using radial grid of 2000 points,  1 beta functions with: 
                l(1) =   0

     atomic species   valence    mass     pseudopotential
        H              1.00     1.00000     H ( 1.00)
        O              6.00    16.00000     O ( 1.00)

     No symmetry found



   Cartesian axes

     site n.     atom                  positions (alat units)
         1           H   tau(   1) = (   0.0389613   0.1402703   0.0857337  )
         2           H   tau(   2) = (   0.0146434  -0.0661703  -0.1804127  )
         3           O   tau(   3) = (  -0.0341233  -0.0523067   0.0446450  )

     number of k points=     1
                       cart. coord. in units 2pi/alat
        k(    1) = (   0.0000000   0.0000000   0.0000000), wk =   2.0000000

     Dense  grid:    17133 G-vectors     FFT dimensions: (  45,  45,  45)

     Estimated max dynamical RAM per process >      14.61 MB

     Initial potential from superposition of free atoms

     starting charge    7.99998, renormalised to    8.00000

     negative rho (up, down):  5.732E-03 0.000E+00
     Starting wfcs are random
     charge density from previous step

     negative rho (up, down):  5.732E-03 0.000E+00

     total cpu time spent up to now is        0.4 secs

     Self-consistent Calculation

     iteration #  1     ecut=    40.00 Ry     beta= 0.70
     Davidson diagonalization with overlap
     ethr =  1.00E-03,  avg # of iterations = 15.0

     total cpu time spent up to now is        0.6 secs

     total energy              =     -35.70875514 Ry
     estimated scf accuracy    <      24.87157692 Ry

     iteration #  2     ecut=    40.00 Ry     beta= 0.70
     Davidson diagonalization with overlap
     ethr =  1.00E-02,  avg # of iterations =  3.0

     negative rho (up, down):  5.063E-01 0.000E+00

     total cpu time spent up to now is        0.6 secs

     total energy              =     -31.54640616 Ry
     estimated scf accuracy    <       6.44850456 Ry

     iteration #  3     ecut=    40.00 Ry     beta= 0.70
     Davidson diagonalization with overlap
     ethr =  1.00E-02,  avg # of iterations =  9.0

     total cpu time spent up to now is        0.7 secs

     total energy              =     -26.68825647 Ry
     estimated scf accuracy    <      36.37541244 Ry

     iteration #  4     ecut=    40.00 Ry     beta= 0.70
     Davidson diagonalization with overlap
     ethr =  1.00E-02,  avg # of iterations =  9.0

     negative rho (up, down):  4.667E-06 0.000E+00

     total cpu time spent up to now is        0.8 secs

     total energy              =     -33.81986745 Ry
     estimated scf accuracy    <       0.55334340 Ry

     iteration #  5     ecut=    40.00 Ry     beta= 0.70
     Davidson diagonalization with overlap
     ethr =  6.92E-03,  avg # of iterations =  3.0

     negative rho (up, down):  1.801E-04 0.000E+00

     total cpu time spent up to now is        0.9 secs

     total energy              =     -34.33908861 Ry
     estimated scf accuracy    <       1.58290616 Ry

     iteration #  6     ecut=    40.00 Ry     beta= 0.70
     Davidson diagonalization with overlap
     ethr =  6.92E-03,  avg # of iterations =  1.0

     negative rho (up, down):  1.641E-04 0.000E+00

     total cpu time spent up to now is        0.9 secs

     total energy              =     -34.35361258 Ry
     estimated scf accuracy    <       1.82413616 Ry

     iteration #  7     ecut=    40.00 Ry     beta= 0.70
     Davidson diagonalization with overlap
     ethr =  6.92E-03,  avg # of iterations =  1.0

     total cpu time spent up to now is        1.0 secs

     total energy              =     -34.26842343 Ry
     estimated scf accuracy    <       1.91397111 Ry

     iteration #  8     ecut=    40.00 Ry     beta= 0.70
     Davidson diagonalization with overlap
     ethr =  6.92E-03,  avg # of iterations =  1.0

     total cpu time spent up to now is        1.0 secs

     total energy              =     -34.21132206 Ry
     estimated scf accuracy    <       1.72599781 Ry

     iteration #  9     ecut=    40.00 Ry     beta= 0.70
     Davidson diagonalization with overlap
     ethr =  6.92E-03,  avg # of iterations =  1.0

     total cpu time spent up to now is        1.1 secs

     total energy              =     -34.20836899 Ry
     estimated scf accuracy    <       1.52353424 Ry

     iteration # 10     ecut=    40.00 Ry     beta= 0.70
     Davidson diagonalization with overlap
     ethr =  6.92E-03,  avg # of iterations =  1.0

     negative rho (up, down):  4.792E-06 0.000E+00

     total cpu time spent up to now is        1.1 secs

     total energy              =     -33.56399561 Ry
     estimated scf accuracy    <       1.48529214 Ry

     iteration # 11     ecut=    40.00 Ry     beta= 0.70
     Davidson diagonalization with overlap
     ethr =  6.92E-03,  avg # of iterations =  3.0

     negative rho (up, down):  9.641E-01 0.000E+00

     total cpu time spent up to now is        1.2 secs

     total energy              =     -35.61004121 Ry
     estimated scf accuracy    <       0.38332405 Ry

     iteration # 12     ecut=    40.00 Ry     beta= 0.70
     Davidson diagonalization with overlap
     ethr =  4.79E-03,  avg # of iterations =  3.0

     negative rho (up, down):  1.650E+00 0.000E+00

     total cpu time spent up to now is        1.2 secs

     total energy              =     -38.96714047 Ry
     estimated scf accuracy    <       6.25255642 Ry

     iteration # 13     ecut=    40.00 Ry     beta= 0.70
     Davidson diagonalization with overlap
     ethr =  4.79E-03,  avg # of iterations =  2.0

     negative rho (up, down):  4.698E-02 0.000E+00

     total cpu time spent up to now is        1.3 secs

     total energy              =     -32.52709922 Ry
     estimated scf accuracy    <       9.37103244 Ry

     iteration # 14     ecut=    40.00 Ry     beta= 0.70
     Davidson diagonalization with overlap
     ethr =  4.79E-03,  avg # of iterations =  4.0

     negative rho (up, down):  4.988E-01 0.000E+00

     total cpu time spent up to now is        1.4 secs

     total energy              =     -34.04955766 Ry
     estimated scf accuracy    <       0.05054183 Ry

     iteration # 15     ecut=    40.00 Ry     beta= 0.70
     Davidson diagonalization with overlap
     ethr =  6.32E-04,  avg # of iterations =  9.0

     negative rho (up, down):  2.152E-04 0.000E+00

     total cpu time spent up to now is        1.4 secs

     total energy              =     -32.93139806 Ry
     estimated scf accuracy    <       4.76802367 Ry

     iteration # 16     ecut=    40.00 Ry     beta= 0.70
     Davidson diagonalization with overlap
     ethr =  6.32E-04,  avg # of iterations = 11.0

     negative rho (up, down):  1.122E-03 0.000E+00

     total cpu time spent up to now is        1.5 secs

     total energy              =     -33.86230125 Ry
     estimated scf accuracy    <       0.00894268 Ry

     iteration # 17     ecut=    40.00 Ry     beta= 0.70
     Davidson diagonalization with overlap
     ethr =  1.12E-04,  avg # of iterations =  1.0

     negative rho (up, down):  4.535E-03 0.000E+00

     total cpu time spent up to now is        1.6 secs

     total energy              =     -33.85870653 Ry
     estimated scf accuracy    <       0.00748806 Ry

     iteration # 18     ecut=    40.00 Ry     beta= 0.70
     Davidson diagonalization with overlap
     ethr =  9.36E-05,  avg # of iterations =  2.0

     negative rho (up, down):  2.069E-04 0.000E+00

     total cpu time spent up to now is        1.6 secs

     total energy              =     -33.86021113 Ry
     estimated scf accuracy    <       0.00261637 Ry

     iteration # 19     ecut=    40.00 Ry     beta= 0.70
     Davidson diagonalization with overlap
     ethr =  3.27E-05,  avg # of iterations =  2.0

     negative rho (up, down):  5.448E-08 0.000E+00

     total cpu time spent up to now is        1.7 secs

     total energy              =     -33.86072180 Ry
     estimated scf accuracy    <       0.00021249 Ry

     iteration # 20     ecut=    40.00 Ry     beta= 0.70
     Davidson diagonalization with overlap
     ethr =  2.66E-06,  avg # of iterations =  3.0

     total cpu time spent up to now is        1.7 secs

     total energy              =     -33.86069951 Ry
     estimated scf accuracy    <       0.00058128 Ry

     iteration # 21     ecut=    40.00 Ry     beta= 0.70
     Davidson diagonalization with overlap
     ethr =  2.66E-06,  avg # of iterations =  2.0

     total cpu time spent up to now is        1.8 secs

     total energy              =     -33.86069921 Ry
     estimated scf accuracy    <       0.00017188 Ry

     iteration # 22     ecut=    40.00 Ry     beta= 0.70
     Davidson diagonalization with overlap
     ethr =  2.15E-06,  avg # of iterations =  1.0

     total cpu time spent up to now is        1.8 secs

     total energy              =     -33.86069969 Ry
     estimated scf accuracy    <       0.00008141 Ry

     iteration # 23     ecut=    40.00 Ry     beta= 0.70
     Davidson diagonalization with overlap
     ethr =  1.02E-06,  avg # of iterations =  1.0

     total cpu time spent up to now is        1.9 secs

     total energy              =     -33.86070003 Ry
     estimated scf accuracy    <       0.00005808 Ry

     iteration # 24     ecut=    40.00 Ry     beta= 0.70
     Davidson diagonalization with overlap
     ethr =  7.26E-07,  avg # of iterations =  1.0

     negative rho (up, down):  4.509E-06 0.000E+00

     total cpu time spent up to now is        1.9 secs

     total energy              =     -33.86070872 Ry
     estimated scf accuracy    <       0.00003546 Ry

     iteration # 25     ecut=    40.00 Ry     beta= 0.70
     Davidson diagonalization with overlap
     ethr =  4.43E-07,  avg # of iterations =  1.0

     negative rho (up, down):  2.769E-08 0.000E+00

     total cpu time spent up to now is        2.0 secs

     total energy              =     -33.86070522 Ry
     estimated scf accuracy    <       0.00001295 Ry

     iteration # 26     ecut=    40.00 Ry     beta= 0.70
     Davidson diagonalization with overlap
     ethr =  1.62E-07,  avg # of iterations =  2.0

     total cpu time spent up to now is        2.0 secs

     total energy              =     -33.86070900 Ry
     estimated scf accuracy    <       0.00000026 Ry

     iteration # 27     ecut=    40.00 Ry     beta= 0.70
     Davidson diagonalization with overlap
     ethr =  3.23E-09,  avg # of iterations =  3.0

     total cpu time spent up to now is        2.1 secs

     total energy              =     -33.86070892 Ry
     estimated scf accuracy    <       0.00000038 Ry

     iteration # 28     ecut=    40.00 Ry     beta= 0.70
     Davidson diagonalization with overlap
     ethr =  3.23E-09,  avg # of iterations =  2.0

     total cpu time spent up to now is        2.1 secs

     total energy              =     -33.86070897 Ry
     estimated scf accuracy    <          8.0E-09 Ry

     iteration # 29     ecut=    40.00 Ry     beta= 0.70
     Davidson diagonalization with overlap
     ethr =  9.98E-11,  avg # of iterations =  3.0

     total cpu time spent up to now is        2.2 secs

     total energy              =     -33.86070897 Ry
     estimated scf accuracy    <          6.4E-10 Ry

     iteration # 30     ecut=    40.00 Ry     beta= 0.70
     Davidson diagonalization with overlap
     ethr =  7.98E-12,  avg # of iterations =  2.0

     total cpu time spent up to now is        2.2 secs

     total energy              =     -33.86070897 Ry
     estimated scf accuracy    <          3.9E-10 Ry

     iteration # 31     ecut=    40.00 Ry     beta= 0.70
     Davidson diagonalization with overlap
     ethr =  4.83E-12,  avg # of iterations =  2.0

     total cpu time spent up to now is        2.3 secs

     total energy              =     -33.86070897 Ry
     estimated scf accuracy    <          3.0E-13 Ry

     iteration # 32     ecut=    40.00 Ry     beta= 0.70
     Davidson diagonalization with overlap
     ethr =  1.00E-13,  avg # of iterations =  3.0

     total cpu time spent up to now is        2.4 secs

     total energy              =     -33.86070897 Ry
     estimated scf accuracy    <          5.9E-12 Ry

     iteration # 33     ecut=    40.00 Ry     beta= 0.70
     Davidson diagonalization with overlap
     ethr =  1.00E-13,  avg # of iterations =  1.0

     total cpu time spent up to now is        2.4 secs

     total energy              =     -33.86070897 Ry
     estimated scf accuracy    <          2.6E-12 Ry

     iteration # 34     ecut=    40.00 Ry     beta= 0.70
     Davidson diagonalization with overlap
     ethr =  1.00E-13,  avg # of iterations =  2.0

     total cpu time spent up to now is        2.5 secs

     total energy              =     -33.86070897 Ry
     estimated scf accuracy    <          2.6E-14 Ry

     iteration # 35     ecut=    40.00 Ry     beta= 0.70
     Davidson diagonalization with overlap
     ethr =  1.00E-13,  avg # of iterations =  1.0

     total cpu time spent up to now is        2.5 secs

     total energy              =     -33.86070897 Ry
     estimated scf accuracy    <          1.5E-14 Ry

     iteration # 36     ecut=    40.00 Ry     beta= 0.70
     Davidson diagonalization with overlap
     ethr =  1.00E-13,  avg # of iterations =  1.0

     total cpu time spent up to now is        2.6 secs

     total energy              =     -33.86070897 Ry
     estimated scf accuracy    <          2.4E-15 Ry

     iteration # 37     ecut=    40.00 Ry     beta= 0.70
     Davidson diagonalization with overlap
     ethr =  1.00E-13,  avg # of iterations =  1.0

     total cpu time spent up to now is        2.6 secs

     total energy              =     -33.86070897 Ry
     estimated scf accuracy    <          5.6E-17 Ry

     iteration # 38     ecut=    40.00 Ry     beta= 0.70
     Davidson diagonalization with overlap
     ethr =  1.00E-13,  avg # of iterations =  1.0

     total cpu time spent up to now is        2.6 secs

     End of self-consistent calculation

          k = 0.0000 0.0000 0.0000 (  2169 PWs)   bands (ev):

   -23.6711 -10.4037  -8.3163  -5.7742

     highest occupied level (ev):    -5.7742

!    total energy              =     -33.86070897 Ry
     estimated scf accuracy    <          7.1E-18 Ry

     convergence has been achieved in  38 iterations
     charge density from previous step

     total cpu time spent up to now is        2.7 secs

     Self-consistent Calculation

     iteration #  1     ecut=    40.00 Ry     beta= 0.70
     Davidson diagonalization with overlap
     ethr =  1.00E-03,  avg # of iterations = 15.0

     total cpu time spent up to now is        2.8 secs

     total energy              =     -35.59331632 Ry
     estimated scf accuracy    <      22.88975645 Ry

     iteration #  2     ecut=    40.00 Ry     beta= 0.70
     Davidson diagonalization with overlap
     ethr =  1.00E-02,  avg # of iterations =  4.0

     negative rho (up, down):  5.055E-01 0.000E+00

     total cpu time spent up to now is        2.9 secs

     total energy              =     -30.86830026 Ry
     estimated scf accuracy    <       8.20337377 Ry

     iteration #  3     ecut=    40.00 Ry     beta= 0.70
     Davidson diagonalization with overlap
     ethr =  1.00E-02,  avg # of iterations =  9.0

     total cpu time spent up to now is        2.9 secs

     total energy              =     -25.76615065 Ry
     estimated scf accuracy    <      39.74601035 Ry

     iteration #  4     ecut=    40.00 Ry     beta= 0.70
     Davidson diagonalization with overlap
     ethr =  1.00E-02,  avg # of iterations =  9.0

     total cpu time spent up to now is        3.0 secs

     total energy              =     -33.73366461 Ry
     estimated scf accuracy    <       0.82751667 Ry

     iteration #  5     ecut=    40.00 Ry     beta= 0.70
     Davidson diagonalization with overlap
     ethr =  1.00E-02,  avg # of iterations =  2.0

     total cpu time spent up to now is        3.1 secs

     total energy              =     -34.12478168 Ry
     estimated scf accuracy    <       0.81566570 Ry

     iteration #  6     ecut=    40.00 Ry     beta= 0.70
     Davidson diagonalization with overlap
     ethr =  1.00E-02,  avg # of iterations =  1.0

     total cpu time spent up to now is        3.1 secs

     total energy              =     -34.12779864 Ry
     estimated scf accuracy    <       1.01358158 Ry

     iteration #  7     ecut=    40.00 Ry     beta= 0.70
     Davidson diagonalization with overlap
     ethr =  1.00E-02,  avg # of iterations =  1.0

     total cpu time spent up to now is        3.2 secs

     total energy              =     -34.13536227 Ry
     estimated scf accuracy    <       1.02676417 Ry

     iteration #  8     ecut=    40.00 Ry     beta= 0.70
     Davidson diagonalization with overlap
     ethr =  1.00E-02,  avg # of iterations =  1.0

     total cpu time spent up to now is        3.2 secs

     total energy              =     -34.06815453 Ry
     estimated scf accuracy    <       1.08861197 Ry

     iteration #  9     ecut=    40.00 Ry     beta= 0.70
     Davidson diagonalization with overlap
     ethr =  1.00E-02,  avg # of iterations =  1.0

     total cpu time spent up to now is        3.3 secs

     total energy              =     -33.94184592 Ry
     estimated scf accuracy    <       0.91841279 Ry

     iteration # 10     ecut=    40.00 Ry     beta= 0.70
     Davidson diagonalization with overlap
     ethr =  1.00E-02,  avg # of iterations =  1.0

     negative rho (up, down):  2.344E-01 0.000E+00

     total cpu time spent up to now is        3.3 secs

     total energy              =     -33.74499591 Ry
     estimated scf accuracy    <       0.45178159 Ry

     iteration # 11     ecut=    40.00 Ry     beta= 0.70
     Davidson diagonalization with overlap
     ethr =  5.65E-03,  avg # of iterations =  2.0

     negative rho (up, down):  2.679E-01 0.000E+00

     total cpu time spent up to now is        3.4 secs

     total energy              =     -33.89999584 Ry
     estimated scf accuracy    <       0.09381194 Ry

     iteration # 12     ecut=    40.00 Ry     beta= 0.70
     Davidson diagonalization with overlap
     ethr =  1.17E-03,  avg # of iterations =  1.0

     negative rho (up, down):  1.894E-03 0.000E+00

     total cpu time spent up to now is        3.4 secs

     total energy              =     -33.84136226 Ry
     estimated scf accuracy    <       0.09708470 Ry

     iteration # 13     ecut=    40.00 Ry     beta= 0.70
     Davidson diagonalization with overlap
     ethr =  1.17E-03,  avg # of iterations =  2.0

     negative rho (up, down):  2.089E-03 0.000E+00

     total cpu time spent up to now is        3.5 secs

     total energy              =     -33.84914686 Ry
     estimated scf accuracy    <       0.00689824 Ry

     iteration # 14     ecut=    40.00 Ry     beta= 0.70
     Davidson diagonalization with overlap
     ethr =  8.62E-05,  avg # of iterations =  3.0

     negative rho (up, down):  9.908E-04 0.000E+00

     total cpu time spent up to now is        3.5 secs

     total energy              =     -33.85084102 Ry
     estimated scf accuracy    <       0.00139526 Ry

     iteration # 15     ecut=    40.00 Ry     beta= 0.70
     Davidson diagonalization with overlap
     ethr =  1.74E-05,  avg # of iterations =  1.0

     negative rho (up, down):  1.783E-03 0.000E+00

     total cpu time spent up to now is        3.6 secs

     total energy              =     -33.85084797 Ry
     estimated scf accuracy    <       0.00076477 Ry

     iteration # 16     ecut=    40.00 Ry     beta= 0.70
     Davidson diagonalization with overlap
     ethr =  9.56E-06,  avg # of iterations =  1.0

     negative rho (up, down):  2.982E-05 0.000E+00

     total cpu time spent up to now is        3.6 secs

     total energy              =     -33.85118990 Ry
     estimated scf accuracy    <       0.00127354 Ry

     iteration # 17     ecut=    40.00 Ry     beta= 0.70
     Davidson diagonalization with overlap
     ethr =  9.56E-06,  avg # of iterations =  2.0

     negative rho (up, down):  1.001E-04 0.000E+00

     total cpu time spent up to now is        3.7 secs

     total energy              =     -33.85119603 Ry
     estimated scf accuracy    <       0.00025723 Ry

     iteration # 18     ecut=    40.00 Ry     beta= 0.70
     Davidson diagonalization with overlap
     ethr =  3.22E-06,  avg # of iterations =  3.0

     negative rho (up, down):  2.181E-08 0.000E+00

     total cpu time spent up to now is        3.7 secs

     total energy              =     -33.85123951 Ry
     estimated scf accuracy    <       0.00016281 Ry

     iteration # 19     ecut=    40.00 Ry     beta= 0.70
     Davidson diagonalization with overlap
     ethr =  2.04E-06,  avg # of iterations =  2.0

     total cpu time spent up to now is        3.8 secs

     total energy              =     -33.85126338 Ry
     estimated scf accuracy    <       0.00000318 Ry

     iteration # 20     ecut=    40.00 Ry     beta= 0.70
     Davidson diagonalization with overlap
     ethr =  3.98E-08,  avg # of iterations =  3.0

     total cpu time spent up to now is        3.8 secs

     total energy              =     -33.85126496 Ry
     estimated scf accuracy    <       0.00000007 Ry

     iteration # 21     ecut=    40.00 Ry     beta= 0.70
     Davidson diagonalization with overlap
     ethr =  8.26E-10,  avg # of iterations =  5.0

     total cpu time spent up to now is        3.9 secs

     total energy              =     -33.85126504 Ry
     estimated scf accuracy    <       0.00000014 Ry

     iteration # 22     ecut=    40.00 Ry     beta= 0.70
     Davidson diagonalization with overlap
     ethr =  8.26E-10,  avg # of iterations =  1.0

     total cpu time spent up to now is        4.0 secs

     total energy              =     -33.85126501 Ry
     estimated scf accuracy    <       0.00000006 Ry

     iteration # 23     ecut=    40.00 Ry     beta= 0.70
     Davidson diagonalization with overlap
     ethr =  8.09E-10,  avg # of iterations =  2.0

     total cpu time spent up to now is        4.0 secs

     total energy              =     -33.85126503 Ry
     estimated scf accuracy    <          3.8E-09 Ry

     iteration # 24     ecut=    40.00 Ry     beta= 0.70
     Davidson diagonalization with overlap
     ethr =  4.73E-11,  avg # of iterations =  2.0

     total cpu time spent up to now is        4.1 secs

     total energy              =     -33.85126503 Ry
     estimated scf accuracy    <          1.9E-11 Ry

     iteration # 25     ecut=    40.00 Ry     beta= 0.70
     Davidson diagonalization with overlap
     ethr =  2.35E-13,  avg # of iterations =  5.0

     total cpu time spent up to now is        4.1 secs

     total energy              =     -33.85126503 Ry
     estimated scf accuracy    <          1.0E-10 Ry

     iteration # 26     ecut=    40.00 Ry     beta= 0.70
     Davidson diagonalization with overlap
     ethr =  2.35E-13,  avg # of iterations =  3.0

     total cpu time spent up to now is        4.2 secs

     total energy              =     -33.85126503 Ry
     estimated scf accuracy    <          1.2E-13 Ry

     iteration # 27     ecut=    40.00 Ry     beta= 0.70
     Davidson diagonalization with overlap
     ethr =  1.00E-13,  avg # of iterations =  1.0

     total cpu time spent up to now is        4.2 secs

     total energy              =     -33.85126503 Ry
     estimated scf accuracy    <          2.0E-13 Ry

     iteration # 28     ecut=    40.00 Ry     beta= 0.70
     Davidson diagonalization with overlap
     ethr =  1.00E-13,  avg # of iterations =  1.0

     total cpu time spent up to now is        4.3 secs

     total energy              =     -33.85126503 Ry
     estimated scf accuracy    <          1.4E-13 Ry

     iteration # 29     ecut=    40.00 Ry     beta= 0.70
     Davidson diagonalization with overlap
     ethr =  1.00E-13,  avg # of iterations =  1.0

     total cpu time spent up to now is        4.3 secs

     total energy              =     -33.85126503 Ry
     estimated scf accuracy    <          3.7E-14 Ry

     iteration # 30     ecut=    40.00 Ry     beta= 0.70
     Davidson diagonalization with overlap
     ethr =  1.00E-13,  avg # of iterations =  1.0

     total cpu time spent up to now is        4.4 secs

     total energy              =     -33.85126503 Ry
     estimated scf accuracy    <          8.5E-15 Ry

     iteration # 31     ecut=    40.00 Ry     beta= 0.70
     Davidson diagonalization with overlap
     ethr =  1.00E-13,  avg # of iterations =  1.0

     total cpu time spent up to now is        4.4 secs

     total energy              =     -33.85126503 Ry
     estimated scf accuracy    <          8.0E-16 Ry

     iteration # 32     ecut=    40.00 Ry     beta= 0.70
     Davidson diagonalization with overlap
     ethr =  1.00E-13,  avg # of iterations =  1.0

     total cpu time spent up to now is        4.5 secs

     total energy              =     -33.85126503 Ry
     estimated scf accuracy    <          1.2E-15 Ry

     iteration # 33     ecut=    40.00 Ry     beta= 0.70
     Davidson diagonalization with overlap
     ethr =  1.00E-13,  avg # of iterations =  1.0

     total cpu time spent up to now is        4.5 secs

     total energy              =     -33.85126503 Ry
     estimated scf accuracy    <          2.3E-16 Ry

     iteration # 34     ecut=    40.00 Ry     beta= 0.70
     Davidson diagonalization with overlap
     ethr =  1.00E-13,  avg # of iterations =  1.0

     total cpu time spent up to now is        4.6 secs

     total energy              =     -33.85126503 Ry
     estimated scf accuracy    <          4.1E-17 Ry

     iteration # 35     ecut=    40.00 Ry     beta= 0.70
     Davidson diagonalization with overlap
     ethr =  1.00E-13,  avg # of iterations =  1.0

     total cpu time spent up to now is        4.6 secs

     total energy              =     -33.85126503 Ry
     estimated scf accuracy    <          2.7E-17 Ry

     iteration # 36     ecut=    40.00 Ry     beta= 0.70
     Davidson diagonalization with overlap
     ethr =  1.00E-13,  avg # of iterations =  1.0

     total cpu time spent up to now is        4.7 secs

     total energy              =     -33.85126503 Ry
     estimated scf accuracy    <          1.7E-17 Ry

     iteration # 37     ecut=    40.00 Ry     beta= 0.70
     Davidson diagonalization with overlap
     ethr =  1.00E-13,  avg # of iterations =  1.0

     total cpu time spent up to now is        4.7 secs

     End of self-consistent calculation

          k = 0.0000 0.0000 0.0000 (  2169 PWs)   bands (ev):

   -23.5872 -10.3013  -8.3033  -5.7560

     highest occupied level (ev):    -5.7560

!    total energy              =     -33.85126503 Ry
     estimated scf accuracy    <          1.2E-18 Ry

     convergence has been achieved in  37 iterations
 ROUTINE_ZERO BEGINNING
 check_charge   4.00000000000000     
     zero_current :      0.02s CPU      0.02s WALL (       1 calls)
 ZERO CURRENT CALCULATED
     routine_zero :      0.02s CPU      0.02s WALL (       1 calls)
     calcolo_i    :      0.01s CPU      0.01s WALL (       1 calls)
 IONIC CURRENT CALCULATED
     charge density from previous step

     total cpu time spent up to now is        4.8 secs

     Self-consistent Calculation

     iteration #  1     ecut=    40.00 Ry     beta= 0.70
     Davidson diagonalization with overlap
     ethr =  1.00E-03,  avg # of iterations = 17.0

     total cpu time spent up to now is        4.9 secs

     total energy              =     -35.49024063 Ry
     estimated scf accuracy    <      21.73307144 Ry

     iteration #  2     ecut=    40.00 Ry     beta= 0.70
     Davidson diagonalization with overlap
     ethr =  1.00E-02,  avg # of iterations =  4.0

     negative rho (up, down):  5.254E-01 0.000E+00

     total cpu time spent up to now is        5.0 secs

     total energy              =     -30.89311871 Ry
     estimated scf accuracy    <       8.08172871 Ry

     iteration #  3     ecut=    40.00 Ry     beta= 0.70
     Davidson diagonalization with overlap
     ethr =  1.00E-02,  avg # of iterations =  9.0

     total cpu time spent up to now is        5.0 secs

     total energy              =     -25.64043511 Ry
     estimated scf accuracy    <      40.52171739 Ry

     iteration #  4     ecut=    40.00 Ry     beta= 0.70
     Davidson diagonalization with overlap
     ethr =  1.00E-02,  avg # of iterations =  9.0

     total cpu time spent up to now is        5.1 secs

     total energy              =     -33.70915294 Ry
     estimated scf accuracy    <       0.84343036 Ry

     iteration #  5     ecut=    40.00 Ry     beta= 0.70
     Davidson diagonalization with overlap
     ethr =  1.00E-02,  avg # of iterations =  3.0

     total cpu time spent up to now is        5.2 secs

     total energy              =     -34.14734510 Ry
     estimated scf accuracy    <       0.93915205 Ry

     iteration #  6     ecut=    40.00 Ry     beta= 0.70
     Davidson diagonalization with overlap
     ethr =  1.00E-02,  avg # of iterations =  1.0

     total cpu time spent up to now is        5.2 secs

     total energy              =     -34.12835131 Ry
     estimated scf accuracy    <       1.13862471 Ry

     iteration #  7     ecut=    40.00 Ry     beta= 0.70
     Davidson diagonalization with overlap
     ethr =  1.00E-02,  avg # of iterations =  1.0

     total cpu time spent up to now is        5.3 secs

     total energy              =     -34.18308041 Ry
     estimated scf accuracy    <       1.10403082 Ry

     iteration #  8     ecut=    40.00 Ry     beta= 0.70
     Davidson diagonalization with overlap
     ethr =  1.00E-02,  avg # of iterations =  1.0

     total cpu time spent up to now is        5.3 secs

     total energy              =     -33.94272918 Ry
     estimated scf accuracy    <       1.32487424 Ry

     iteration #  9     ecut=    40.00 Ry     beta= 0.70
     Davidson diagonalization with overlap
     ethr =  1.00E-02,  avg # of iterations =  1.0

     total cpu time spent up to now is        5.4 secs

     total energy              =     -33.95540813 Ry
     estimated scf accuracy    <       0.63324831 Ry

     iteration # 10     ecut=    40.00 Ry     beta= 0.70
     Davidson diagonalization with overlap
     ethr =  7.92E-03,  avg # of iterations =  1.0

     negative rho (up, down):  3.078E-01 0.000E+00

     total cpu time spent up to now is        5.4 secs

     total energy              =     -33.65880680 Ry
     estimated scf accuracy    <       0.58641951 Ry

     iteration # 11     ecut=    40.00 Ry     beta= 0.70
     Davidson diagonalization with overlap
     ethr =  7.33E-03,  avg # of iterations =  3.0

     negative rho (up, down):  4.282E-01 0.000E+00

     total cpu time spent up to now is        5.5 secs

     total energy              =     -33.95152136 Ry
     estimated scf accuracy    <       0.27240143 Ry

     iteration # 12     ecut=    40.00 Ry     beta= 0.70
     Davidson diagonalization with overlap
     ethr =  3.41E-03,  avg # of iterations =  1.0

     negative rho (up, down):  8.418E-05 0.000E+00

     total cpu time spent up to now is        5.5 secs

     total energy              =     -33.78621562 Ry
     estimated scf accuracy    <       0.25058116 Ry

     iteration # 13     ecut=    40.00 Ry     beta= 0.70
     Davidson diagonalization with overlap
     ethr =  3.13E-03,  avg # of iterations =  2.0

     negative rho (up, down):  4.408E-05 0.000E+00

     total cpu time spent up to now is        5.6 secs

     total energy              =     -33.84838198 Ry
     estimated scf accuracy    <       0.02999601 Ry

     iteration # 14     ecut=    40.00 Ry     beta= 0.70
     Davidson diagonalization with overlap
     ethr =  3.75E-04,  avg # of iterations =  1.0

     negative rho (up, down):  2.763E-04 0.000E+00

     total cpu time spent up to now is        5.6 secs

     total energy              =     -33.83882106 Ry
     estimated scf accuracy    <       0.02652617 Ry

     iteration # 15     ecut=    40.00 Ry     beta= 0.70
     Davidson diagonalization with overlap
     ethr =  3.32E-04,  avg # of iterations =  2.0

     negative rho (up, down):  1.098E-07 0.000E+00

     total cpu time spent up to now is        5.7 secs

     total energy              =     -33.84186537 Ry
     estimated scf accuracy    <       0.00282079 Ry

     iteration # 16     ecut=    40.00 Ry     beta= 0.70
     Davidson diagonalization with overlap
     ethr =  3.53E-05,  avg # of iterations =  2.0

     total cpu time spent up to now is        5.7 secs

     total energy              =     -33.84150300 Ry
     estimated scf accuracy    <       0.00290875 Ry

     iteration # 17     ecut=    40.00 Ry     beta= 0.70
     Davidson diagonalization with overlap
     ethr =  3.53E-05,  avg # of iterations =  1.0

     negative rho (up, down):  1.739E-05 0.000E+00

     total cpu time spent up to now is        5.8 secs

     total energy              =     -33.84152966 Ry
     estimated scf accuracy    <       0.00077855 Ry

     iteration # 18     ecut=    40.00 Ry     beta= 0.70
     Davidson diagonalization with overlap
     ethr =  9.73E-06,  avg # of iterations =  2.0

     total cpu time spent up to now is        5.8 secs

     total energy              =     -33.84155785 Ry
     estimated scf accuracy    <       0.00025177 Ry

     iteration # 19     ecut=    40.00 Ry     beta= 0.70
     Davidson diagonalization with overlap
     ethr =  3.15E-06,  avg # of iterations =  2.0

     total cpu time spent up to now is        5.9 secs

     total energy              =     -33.84161247 Ry
     estimated scf accuracy    <       0.00000946 Ry

     iteration # 20     ecut=    40.00 Ry     beta= 0.70
     Davidson diagonalization with overlap
     ethr =  1.18E-07,  avg # of iterations =  5.0

     total cpu time spent up to now is        5.9 secs

     total energy              =     -33.84162006 Ry
     estimated scf accuracy    <       0.00000376 Ry

     iteration # 21     ecut=    40.00 Ry     beta= 0.70
     Davidson diagonalization with overlap
     ethr =  4.70E-08,  avg # of iterations =  1.0

     total cpu time spent up to now is        6.0 secs

     total energy              =     -33.84161984 Ry
     estimated scf accuracy    <       0.00000143 Ry

     iteration # 22     ecut=    40.00 Ry     beta= 0.70
     Davidson diagonalization with overlap
     ethr =  1.79E-08,  avg # of iterations =  2.0

     total cpu time spent up to now is        6.0 secs

     total energy              =     -33.84161993 Ry
     estimated scf accuracy    <       0.00000023 Ry

     iteration # 23     ecut=    40.00 Ry     beta= 0.70
     Davidson diagonalization with overlap
     ethr =  2.87E-09,  avg # of iterations =  2.0

     total cpu time spent up to now is        6.1 secs

     total energy              =     -33.84161996 Ry
     estimated scf accuracy    <       0.00000003 Ry

     iteration # 24     ecut=    40.00 Ry     beta= 0.70
     Davidson diagonalization with overlap
     ethr =  3.88E-10,  avg # of iterations =  3.0

     total cpu time spent up to now is        6.1 secs

     total energy              =     -33.84161997 Ry
     estimated scf accuracy    <       0.00000001 Ry

     iteration # 25     ecut=    40.00 Ry     beta= 0.70
     Davidson diagonalization with overlap
     ethr =  1.38E-10,  avg # of iterations =  2.0

     total cpu time spent up to now is        6.2 secs

     total energy              =     -33.84161997 Ry
     estimated scf accuracy    <          1.3E-09 Ry

     iteration # 26     ecut=    40.00 Ry     beta= 0.70
     Davidson diagonalization with overlap
     ethr =  1.59E-11,  avg # of iterations =  3.0

     total cpu time spent up to now is        6.2 secs

     total energy              =     -33.84161997 Ry
     estimated scf accuracy    <          6.8E-11 Ry

     iteration # 27     ecut=    40.00 Ry     beta= 0.70
     Davidson diagonalization with overlap
     ethr =  8.47E-13,  avg # of iterations =  2.0

     total cpu time spent up to now is        6.3 secs

     total energy              =     -33.84161997 Ry
     estimated scf accuracy    <          3.3E-11 Ry

     iteration # 28     ecut=    40.00 Ry     beta= 0.70
     Davidson diagonalization with overlap
     ethr =  4.11E-13,  avg # of iterations =  2.0

     total cpu time spent up to now is        6.3 secs

     total energy              =     -33.84161997 Ry
     estimated scf accuracy    <          4.1E-13 Ry

     iteration # 29     ecut=    40.00 Ry     beta= 0.70
     Davidson diagonalization with overlap
     ethr =  1.00E-13,  avg # of iterations =  2.0

     total cpu time spent up to now is        6.4 secs

     total energy              =     -33.84161997 Ry
     estimated scf accuracy    <          4.5E-13 Ry

     iteration # 30     ecut=    40.00 Ry     beta= 0.70
     Davidson diagonalization with overlap
     ethr =  1.00E-13,  avg # of iterations =  1.0

     total cpu time spent up to now is        6.4 secs

     total energy              =     -33.84161997 Ry
     estimated scf accuracy    <          1.5E-13 Ry

     iteration # 31     ecut=    40.00 Ry     beta= 0.70
     Davidson diagonalization with overlap
     ethr =  1.00E-13,  avg # of iterations =  1.0

     total cpu time spent up to now is        6.5 secs

     total energy              =     -33.84161997 Ry
     estimated scf accuracy    <          1.9E-14 Ry

     iteration # 32     ecut=    40.00 Ry     beta= 0.70
     Davidson diagonalization with overlap
     ethr =  1.00E-13,  avg # of iterations =  1.0

     total cpu time spent up to now is        6.5 secs

     total energy              =     -33.84161997 Ry
     estimated scf accuracy    <          9.0E-15 Ry

     iteration # 33     ecut=    40.00 Ry     beta= 0.70
     Davidson diagonalization with overlap
     ethr =  1.00E-13,  avg # of iterations =  1.0

     total cpu time spent up to now is        6.6 secs

     total energy              =     -33.84161997 Ry
     estimated scf accuracy    <          7.8E-16 Ry

     iteration # 34     ecut=    40.00 Ry     beta= 0.70
     Davidson diagonalization with overlap
     ethr =  1.00E-13,  avg # of iterations =  1.0

     total cpu time spent up to now is        6.6 secs

     total energy              =     -33.84161997 Ry
     estimated scf accuracy    <          5.5E-16 Ry

     iteration # 35     ecut=    40.00 Ry     beta= 0.70
     Davidson diagonalization with overlap
     ethr =  1.00E-13,  avg # of iterations =  1.0

     total cpu time spent up to now is        6.7 secs

     total energy              =     -33.84161997 Ry
     estimated scf accuracy    <          2.4E-16 Ry

     iteration # 36     ecut=    40.00 Ry     beta= 0.70
     Davidson diagonalization with overlap
     ethr =  1.00E-13,  avg # of iterations =  1.0

     total cpu time spent up to now is        6.7 secs

     total energy              =     -33.84161997 Ry
     estimated scf accuracy    <          1.8E-16 Ry

     iteration # 37     ecut=    40.00 Ry     beta= 0.70
     Davidson diagonalization with overlap
     ethr =  1.00E-13,  avg # of iterations =  1.0

     total cpu time spent up to now is        6.8 secs

     total energy              =     -33.84161997 Ry
     estimated scf accuracy    <          1.4E-17 Ry

     iteration # 38     ecut=    40.00 Ry     beta= 0.70
     Davidson diagonalization with overlap
     ethr =  1.00E-13,  avg # of iterations =  1.0

     total cpu time spent up to now is        6.8 secs

     End of self-consistent calculation

          k = 0.0000 0.0000 0.0000 (  2169 PWs)   bands (ev):

   -23.5070 -10.2021  -8.2901  -5.7385

     highest occupied level (ev):    -5.7385

!    total energy              =     -33.84161997 Ry
     estimated scf accuracy    <          2.4E-18 Ry

     convergence has been achieved in  38 iterations
     charge density from previous step
 BEGIN: HARTREE & KOHN
 check_charge   3.99999999999999     
 check_charge   4.00000000000000     
 check_charge   4.00000000000000     
     hartree_curr :      0.02s CPU      0.02s WALL (       1 calls)
 HARTREE CURRENT CALCULATED
     xc_current   :      0.01s CPU      0.01s WALL (       1 calls)
 X-C CURRENT CALCULATED
     charge density from previous step
     project      :      0.12s CPU      0.12s WALL (       1 calls)
     kohn-first   :      0.00s CPU      0.00s WALL (       1 calls)
     kohn-second  :      0.00s CPU      0.00s WALL (       1 calls)
  KOHN POLARIZATION   1 COMPLETED
     project      :      0.24s CPU      0.24s WALL (       2 calls)
     kohn-first   :      0.00s CPU      0.00s WALL (       2 calls)
     kohn-second  :      0.00s CPU      0.00s WALL (       2 calls)
  KOHN POLARIZATION   2 COMPLETED
     project      :      0.36s CPU      0.37s WALL (       3 calls)
     kohn-first   :      0.00s CPU      0.00s WALL (       3 calls)
     kohn-second  :      0.00s CPU      0.00s WALL (       3 calls)
  KOHN POLARIZATION   3 COMPLETED
     kohn_current :      0.41s CPU      0.42s WALL (       1 calls)
 KOHN CURRENT CALCULATED
total energy current:   0.171199650503E+00  0.521939351153E-01 -0.417435063729E+00
center of mass velocity of type   1:   0.216571054201E-01  0.250280869520E-01 -0.478096489241E-01
center of mass velocity of type   2:  -0.270713817752E-02 -0.312851086900E-02  0.597620611552E-02
 REPETITION            1
     charge density from previous step

     total cpu time spent up to now is        7.4 secs

     Self-consistent Calculation

     iteration #  1     ecut=    40.00 Ry     beta= 0.70
     Davidson diagonalization with overlap
     ethr =  1.00E-03,  avg # of iterations = 16.0

     total cpu time spent up to now is        7.5 secs

     total energy              =     -35.61191548 Ry
     estimated scf accuracy    <      22.96909937 Ry

     iteration #  2     ecut=    40.00 Ry     beta= 0.70
     Davidson diagonalization with overlap
     ethr =  1.00E-02,  avg # of iterations =  4.0

     negative rho (up, down):  5.323E-01 0.000E+00

     total cpu time spent up to now is        7.5 secs

     total energy              =     -31.07232793 Ry
     estimated scf accuracy    <       7.76977676 Ry

     iteration #  3     ecut=    40.00 Ry     beta= 0.70
     Davidson diagonalization with overlap
     ethr =  1.00E-02,  avg # of iterations =  9.0

     total cpu time spent up to now is        7.6 secs

     total energy              =     -25.81115838 Ry
     estimated scf accuracy    <      39.55272652 Ry

     iteration #  4     ecut=    40.00 Ry     beta= 0.70
     Davidson diagonalization with overlap
     ethr =  1.00E-02,  avg # of iterations =  9.0

     total cpu time spent up to now is        7.7 secs

     total energy              =     -33.74520121 Ry
     estimated scf accuracy    <       0.79231340 Ry

     iteration #  5     ecut=    40.00 Ry     beta= 0.70
     Davidson diagonalization with overlap
     ethr =  9.90E-03,  avg # of iterations =  2.0

     total cpu time spent up to now is        7.7 secs

     total energy              =     -34.13615233 Ry
     estimated scf accuracy    <       0.84107060 Ry

     iteration #  6     ecut=    40.00 Ry     beta= 0.70
     Davidson diagonalization with overlap
     ethr =  9.90E-03,  avg # of iterations =  1.0

     total cpu time spent up to now is        7.8 secs

     total energy              =     -34.14568677 Ry
     estimated scf accuracy    <       1.01077341 Ry

     iteration #  7     ecut=    40.00 Ry     beta= 0.70
     Davidson diagonalization with overlap
     ethr =  9.90E-03,  avg # of iterations =  1.0

     total cpu time spent up to now is        7.8 secs

     total energy              =     -34.14310318 Ry
     estimated scf accuracy    <       1.05074810 Ry

     iteration #  8     ecut=    40.00 Ry     beta= 0.70
     Davidson diagonalization with overlap
     ethr =  9.90E-03,  avg # of iterations =  1.0

     total cpu time spent up to now is        7.9 secs

     total energy              =     -34.12268475 Ry
     estimated scf accuracy    <       1.07583326 Ry

     iteration #  9     ecut=    40.00 Ry     beta= 0.70
     Davidson diagonalization with overlap
     ethr =  9.90E-03,  avg # of iterations =  1.0

     total cpu time spent up to now is        7.9 secs

     total energy              =     -34.00759683 Ry
     estimated scf accuracy    <       1.03188265 Ry

     iteration # 10     ecut=    40.00 Ry     beta= 0.70
     Davidson diagonalization with overlap
     ethr =  9.90E-03,  avg # of iterations =  1.0

     negative rho (up, down):  2.159E-01 0.000E+00

     total cpu time spent up to now is        8.0 secs

     total energy              =     -33.70010797 Ry
     estimated scf accuracy    <       0.65061412 Ry

     iteration # 11     ecut=    40.00 Ry     beta= 0.70
     Davidson diagonalization with overlap
     ethr =  8.13E-03,  avg # of iterations =  2.0

     negative rho (up, down):  2.954E-01 0.000E+00

     total cpu time spent up to now is        8.1 secs

     total energy              =     -33.92771060 Ry
     estimated scf accuracy    <       0.11191651 Ry

     iteration # 12     ecut=    40.00 Ry     beta= 0.70
     Davidson diagonalization with overlap
     ethr =  1.40E-03,  avg # of iterations =  1.0

     negative rho (up, down):  6.492E-04 0.000E+00

     total cpu time spent up to now is        8.1 secs

     total energy              =     -33.85204086 Ry
     estimated scf accuracy    <       0.13771871 Ry

     iteration # 13     ecut=    40.00 Ry     beta= 0.70
     Davidson diagonalization with overlap
     ethr =  1.40E-03,  avg # of iterations =  2.0

     negative rho (up, down):  1.272E-03 0.000E+00

     total cpu time spent up to now is        8.2 secs

     total energy              =     -33.85870839 Ry
     estimated scf accuracy    <       0.01766179 Ry

     iteration # 14     ecut=    40.00 Ry     beta= 0.70
     Davidson diagonalization with overlap
     ethr =  2.21E-04,  avg # of iterations =  2.0

     negative rho (up, down):  7.637E-04 0.000E+00

     total cpu time spent up to now is        8.2 secs

     total energy              =     -33.86017029 Ry
     estimated scf accuracy    <       0.00558288 Ry

     iteration # 15     ecut=    40.00 Ry     beta= 0.70
     Davidson diagonalization with overlap
     ethr =  6.98E-05,  avg # of iterations =  2.0

     negative rho (up, down):  8.454E-04 0.000E+00

     total cpu time spent up to now is        8.3 secs

     total energy              =     -33.86079330 Ry
     estimated scf accuracy    <       0.00212040 Ry

     iteration # 16     ecut=    40.00 Ry     beta= 0.70
     Davidson diagonalization with overlap
     ethr =  2.65E-05,  avg # of iterations =  1.0

     negative rho (up, down):  1.537E-04 0.000E+00

     total cpu time spent up to now is        8.3 secs

     total energy              =     -33.86121818 Ry
     estimated scf accuracy    <       0.00264347 Ry

     iteration # 17     ecut=    40.00 Ry     beta= 0.70
     Davidson diagonalization with overlap
     ethr =  2.65E-05,  avg # of iterations =  1.0

     negative rho (up, down):  1.941E-04 0.000E+00

     total cpu time spent up to now is        8.4 secs

     total energy              =     -33.86160972 Ry
     estimated scf accuracy    <       0.00248284 Ry

     iteration # 18     ecut=    40.00 Ry     beta= 0.70
     Davidson diagonalization with overlap
     ethr =  2.65E-05,  avg # of iterations =  1.0

     negative rho (up, down):  3.651E-06 0.000E+00

     total cpu time spent up to now is        8.4 secs

     total energy              =     -33.86135825 Ry
     estimated scf accuracy    <       0.00345692 Ry

     iteration # 19     ecut=    40.00 Ry     beta= 0.70
     Davidson diagonalization with overlap
     ethr =  2.65E-05,  avg # of iterations =  1.0

     total cpu time spent up to now is        8.5 secs

     total energy              =     -33.86102855 Ry
     estimated scf accuracy    <       0.00280089 Ry

     iteration # 20     ecut=    40.00 Ry     beta= 0.70
     Davidson diagonalization with overlap
     ethr =  2.65E-05,  avg # of iterations =  1.0

     negative rho (up, down):  5.004E-08 0.000E+00

     total cpu time spent up to now is        8.5 secs

     total energy              =     -33.86044132 Ry
     estimated scf accuracy    <       0.00157747 Ry

     iteration # 21     ecut=    40.00 Ry     beta= 0.70
     Davidson diagonalization with overlap
     ethr =  1.97E-05,  avg # of iterations =  2.0

     negative rho (up, down):  5.218E-08 0.000E+00

     total cpu time spent up to now is        8.5 secs

     total energy              =     -33.86070293 Ry
     estimated scf accuracy    <       0.00000707 Ry

     iteration # 22     ecut=    40.00 Ry     beta= 0.70
     Davidson diagonalization with overlap
     ethr =  8.84E-08,  avg # of iterations =  4.0

     total cpu time spent up to now is        8.6 secs

     total energy              =     -33.86070677 Ry
     estimated scf accuracy    <       0.00001345 Ry

     iteration # 23     ecut=    40.00 Ry     beta= 0.70
     Davidson diagonalization with overlap
     ethr =  8.84E-08,  avg # of iterations =  2.0

     total cpu time spent up to now is        8.7 secs

     total energy              =     -33.86070889 Ry
     estimated scf accuracy    <       0.00000017 Ry

     iteration # 24     ecut=    40.00 Ry     beta= 0.70
     Davidson diagonalization with overlap
     ethr =  2.18E-09,  avg # of iterations =  4.0

     total cpu time spent up to now is        8.7 secs

     total energy              =     -33.86070889 Ry
     estimated scf accuracy    <       0.00000035 Ry

     iteration # 25     ecut=    40.00 Ry     beta= 0.70
     Davidson diagonalization with overlap
     ethr =  2.18E-09,  avg # of iterations =  3.0

     total cpu time spent up to now is        8.8 secs

     total energy              =     -33.86070898 Ry
     estimated scf accuracy    <       0.00000003 Ry

     iteration # 26     ecut=    40.00 Ry     beta= 0.70
     Davidson diagonalization with overlap
     ethr =  3.14E-10,  avg # of iterations =  1.0

     total cpu time spent up to now is        8.8 secs

     total energy              =     -33.86070897 Ry
     estimated scf accuracy    <       0.00000002 Ry

     iteration # 27     ecut=    40.00 Ry     beta= 0.70
     Davidson diagonalization with overlap
     ethr =  2.46E-10,  avg # of iterations =  1.0

     total cpu time spent up to now is        8.9 secs

     total energy              =     -33.86070897 Ry
     estimated scf accuracy    <          7.2E-09 Ry

     iteration # 28     ecut=    40.00 Ry     beta= 0.70
     Davidson diagonalization with overlap
     ethr =  8.98E-11,  avg # of iterations =  2.0

     total cpu time spent up to now is        8.9 secs

     total energy              =     -33.86070897 Ry
     estimated scf accuracy    <          3.3E-10 Ry

     iteration # 29     ecut=    40.00 Ry     beta= 0.70
     Davidson diagonalization with overlap
     ethr =  4.14E-12,  avg # of iterations =  3.0

     total cpu time spent up to now is        9.0 secs

     total energy              =     -33.86070897 Ry
     estimated scf accuracy    <          8.1E-11 Ry

     iteration # 30     ecut=    40.00 Ry     beta= 0.70
     Davidson diagonalization with overlap
     ethr =  1.01E-12,  avg # of iterations =  2.0

     total cpu time spent up to now is        9.0 secs

     total energy              =     -33.86070897 Ry
     estimated scf accuracy    <          6.1E-12 Ry

     iteration # 31     ecut=    40.00 Ry     beta= 0.70
     Davidson diagonalization with overlap
     ethr =  1.00E-13,  avg # of iterations =  3.0

     total cpu time spent up to now is        9.1 secs

     total energy              =     -33.86070897 Ry
     estimated scf accuracy    <          2.1E-11 Ry

     iteration # 32     ecut=    40.00 Ry     beta= 0.70
     Davidson diagonalization with overlap
     ethr =  1.00E-13,  avg # of iterations =  2.0

     total cpu time spent up to now is        9.1 secs

     total energy              =     -33.86070897 Ry
     estimated scf accuracy    <          4.6E-13 Ry

     iteration # 33     ecut=    40.00 Ry     beta= 0.70
     Davidson diagonalization with overlap
     ethr =  1.00E-13,  avg # of iterations =  1.0

     total cpu time spent up to now is        9.2 secs

     total energy              =     -33.86070897 Ry
     estimated scf accuracy    <          2.3E-15 Ry

     iteration # 34     ecut=    40.00 Ry     beta= 0.70
     Davidson diagonalization with overlap
     ethr =  1.00E-13,  avg # of iterations =  1.0

     total cpu time spent up to now is        9.2 secs

     total energy              =     -33.86070897 Ry
     estimated scf accuracy    <          1.4E-14 Ry

     iteration # 35     ecut=    40.00 Ry     beta= 0.70
     Davidson diagonalization with overlap
     ethr =  1.00E-13,  avg # of iterations =  1.0

     total cpu time spent up to now is        9.3 secs

     total energy              =     -33.86070897 Ry
     estimated scf accuracy    <          1.4E-15 Ry

     iteration # 36     ecut=    40.00 Ry     beta= 0.70
     Davidson diagonalization with overlap
     ethr =  1.00E-13,  avg # of iterations =  1.0

     total cpu time spent up to now is        9.3 secs

     total energy              =     -33.86070897 Ry
     estimated scf accuracy    <          2.3E-15 Ry

     iteration # 37     ecut=    40.00 Ry     beta= 0.70
     Davidson diagonalization with overlap
     ethr =  1.00E-13,  avg # of iterations =  1.0

     total cpu time spent up to now is        9.4 secs

     total energy              =     -33.86070897 Ry
     estimated scf accuracy    <          1.5E-15 Ry

     iteration # 38     ecut=    40.00 Ry     beta= 0.70
     Davidson diagonalization with overlap
     ethr =  1.00E-13,  avg # of iterations =  1.0

     total cpu time spent up to now is        9.4 secs

     total energy              =     -33.86070897 Ry
     estimated scf accuracy    <          1.7E-15 Ry

     iteration # 39     ecut=    40.00 Ry     beta= 0.70
     Davidson diagonalization with overlap
     ethr =  1.00E-13,  avg # of iterations =  1.0

     total cpu time spent up to now is        9.5 secs

     total energy              =     -33.86070897 Ry
     estimated scf accuracy    <          1.8E-16 Ry

     iteration # 40     ecut=    40.00 Ry     beta= 0.70
     Davidson diagonalization with overlap
     ethr =  1.00E-13,  avg # of iterations =  1.0

     total cpu time spent up to now is        9.5 secs

     total energy              =     -33.86070897 Ry
     estimated scf accuracy    <          3.0E-16 Ry

     iteration # 41     ecut=    40.00 Ry     beta= 0.70
     Davidson diagonalization with overlap
     ethr =  1.00E-13,  avg # of iterations =  1.0

     total cpu time spent up to now is        9.6 secs

     total energy              =     -33.86070897 Ry
     estimated scf accuracy    <          1.1E-15 Ry

     iteration # 42     ecut=    40.00 Ry     beta= 0.70
     Davidson diagonalization with overlap
     ethr =  1.00E-13,  avg # of iterations =  1.0

     total cpu time spent up to now is        9.6 secs

     total energy              =     -33.86070897 Ry
     estimated scf accuracy    <          1.7E-15 Ry

     iteration # 43     ecut=    40.00 Ry     beta= 0.70
     Davidson diagonalization with overlap
     ethr =  1.00E-13,  avg # of iterations =  1.0

     total cpu time spent up to now is        9.7 secs

     total energy              =     -33.86070897 Ry
     estimated scf accuracy    <          1.1E-15 Ry

     iteration # 44     ecut=    40.00 Ry     beta= 0.70
     Davidson diagonalization with overlap
     ethr =  1.00E-13,  avg # of iterations =  1.0

     total cpu time spent up to now is        9.7 secs

     total energy              =     -33.86070897 Ry
     estimated scf accuracy    <          1.8E-16 Ry

     iteration # 45     ecut=    40.00 Ry     beta= 0.70
     Davidson diagonalization with overlap
     ethr =  1.00E-13,  avg # of iterations =  1.0

     total cpu time spent up to now is        9.8 secs

     total energy              =     -33.86070897 Ry
     estimated scf accuracy    <          1.4E-16 Ry

     iteration # 46     ecut=    40.00 Ry     beta= 0.70
     Davidson diagonalization with overlap
     ethr =  1.00E-13,  avg # of iterations =  1.0

     total cpu time spent up to now is        9.8 secs

     total energy              =     -33.86070897 Ry
     estimated scf accuracy    <          1.2E-16 Ry

     iteration # 47     ecut=    40.00 Ry     beta= 0.70
     Davidson diagonalization with overlap
     ethr =  1.00E-13,  avg # of iterations =  1.0

     total cpu time spent up to now is        9.9 secs

     total energy              =     -33.86070897 Ry
     estimated scf accuracy    <          2.6E-16 Ry

     iteration # 48     ecut=    40.00 Ry     beta= 0.70
     Davidson diagonalization with overlap
     ethr =  1.00E-13,  avg # of iterations =  1.0

     total cpu time spent up to now is        9.9 secs

     total energy              =     -33.86070897 Ry
     estimated scf accuracy    <          9.5E-17 Ry

     iteration # 49     ecut=    40.00 Ry     beta= 0.70
     Davidson diagonalization with overlap
     ethr =  1.00E-13,  avg # of iterations =  1.0

     total cpu time spent up to now is       10.0 secs

     End of self-consistent calculation

          k = 0.0000 0.0000 0.0000 (  2169 PWs)   bands (ev):

   -23.6711 -10.4037  -8.3163  -5.7742

     highest occupied level (ev):    -5.7742

!    total energy              =     -33.86070897 Ry
     estimated scf accuracy    <          1.0E-17 Ry

     convergence has been achieved in  49 iterations
     charge density from previous step

     total cpu time spent up to now is       10.0 secs

     Self-consistent Calculation

     iteration #  1     ecut=    40.00 Ry     beta= 0.70
     Davidson diagonalization with overlap
     ethr =  1.00E-03,  avg # of iterations = 16.0

     total cpu time spent up to now is       10.1 secs

     total energy              =     -35.59930124 Ry
     estimated scf accuracy    <      22.99026268 Ry

     iteration #  2     ecut=    40.00 Ry     beta= 0.70
     Davidson diagonalization with overlap
     ethr =  1.00E-02,  avg # of iterations =  4.0

     negative rho (up, down):  5.312E-01 0.000E+00

     total cpu time spent up to now is       10.2 secs

     total energy              =     -30.84058187 Ry
     estimated scf accuracy    <       8.34291414 Ry

     iteration #  3     ecut=    40.00 Ry     beta= 0.70
     Davidson diagonalization with overlap
     ethr =  1.00E-02,  avg # of iterations =  9.0

     total cpu time spent up to now is       10.2 secs

     total energy              =     -25.64475360 Ry
     estimated scf accuracy    <      40.36657762 Ry

     iteration #  4     ecut=    40.00 Ry     beta= 0.70
     Davidson diagonalization with overlap
     ethr =  1.00E-02,  avg # of iterations =  9.0

     total cpu time spent up to now is       10.3 secs

     total energy              =     -33.72481727 Ry
     estimated scf accuracy    <       0.85302146 Ry

     iteration #  5     ecut=    40.00 Ry     beta= 0.70
     Davidson diagonalization with overlap
     ethr =  1.00E-02,  avg # of iterations =  2.0

     total cpu time spent up to now is       10.4 secs

     total energy              =     -34.13264874 Ry
     estimated scf accuracy    <       0.84517734 Ry

     iteration #  6     ecut=    40.00 Ry     beta= 0.70
     Davidson diagonalization with overlap
     ethr =  1.00E-02,  avg # of iterations =  1.0

     total cpu time spent up to now is       10.4 secs

     total energy              =     -34.13971775 Ry
     estimated scf accuracy    <       1.04019389 Ry

     iteration #  7     ecut=    40.00 Ry     beta= 0.70
     Davidson diagonalization with overlap
     ethr =  1.00E-02,  avg # of iterations =  1.0

     total cpu time spent up to now is       10.5 secs

     total energy              =     -34.14369311 Ry
     estimated scf accuracy    <       1.06785489 Ry

     iteration #  8     ecut=    40.00 Ry     beta= 0.70
     Davidson diagonalization with overlap
     ethr =  1.00E-02,  avg # of iterations =  1.0

     total cpu time spent up to now is       10.5 secs

     total energy              =     -34.06885988 Ry
     estimated scf accuracy    <       1.11758059 Ry

     iteration #  9     ecut=    40.00 Ry     beta= 0.70
     Davidson diagonalization with overlap
     ethr =  1.00E-02,  avg # of iterations =  1.0

     total cpu time spent up to now is       10.6 secs

     total energy              =     -33.94568899 Ry
     estimated scf accuracy    <       0.92472067 Ry

     iteration # 10     ecut=    40.00 Ry     beta= 0.70
     Davidson diagonalization with overlap
     ethr =  1.00E-02,  avg # of iterations =  1.0

     negative rho (up, down):  2.390E-01 0.000E+00

     total cpu time spent up to now is       10.6 secs

     total energy              =     -33.73885739 Ry
     estimated scf accuracy    <       0.46368442 Ry

     iteration # 11     ecut=    40.00 Ry     beta= 0.70
     Davidson diagonalization with overlap
     ethr =  5.80E-03,  avg # of iterations =  2.0

     negative rho (up, down):  2.588E-01 0.000E+00

     total cpu time spent up to now is       10.7 secs

     total energy              =     -33.90042297 Ry
     estimated scf accuracy    <       0.11209235 Ry

     iteration # 12     ecut=    40.00 Ry     beta= 0.70
     Davidson diagonalization with overlap
     ethr =  1.40E-03,  avg # of iterations =  1.0

     negative rho (up, down):  5.991E-04 0.000E+00

     total cpu time spent up to now is       10.7 secs

     total energy              =     -33.83973955 Ry
     estimated scf accuracy    <       0.10378080 Ry

     iteration # 13     ecut=    40.00 Ry     beta= 0.70
     Davidson diagonalization with overlap
     ethr =  1.30E-03,  avg # of iterations =  2.0

     negative rho (up, down):  6.320E-04 0.000E+00

     total cpu time spent up to now is       10.8 secs

     total energy              =     -33.85012112 Ry
     estimated scf accuracy    <       0.00461557 Ry

     iteration # 14     ecut=    40.00 Ry     beta= 0.70
     Davidson diagonalization with overlap
     ethr =  5.77E-05,  avg # of iterations =  2.0

     negative rho (up, down):  4.184E-04 0.000E+00

     total cpu time spent up to now is       10.8 secs

     total energy              =     -33.85067517 Ry
     estimated scf accuracy    <       0.00146702 Ry

     iteration # 15     ecut=    40.00 Ry     beta= 0.70
     Davidson diagonalization with overlap
     ethr =  1.83E-05,  avg # of iterations =  3.0

     negative rho (up, down):  3.919E-04 0.000E+00

     total cpu time spent up to now is       10.9 secs

     total energy              =     -33.85104489 Ry
     estimated scf accuracy    <       0.00104459 Ry

     iteration # 16     ecut=    40.00 Ry     beta= 0.70
     Davidson diagonalization with overlap
     ethr =  1.31E-05,  avg # of iterations =  2.0

     negative rho (up, down):  4.965E-05 0.000E+00

     total cpu time spent up to now is       10.9 secs

     total energy              =     -33.85122170 Ry
     estimated scf accuracy    <       0.00086508 Ry

     iteration # 17     ecut=    40.00 Ry     beta= 0.70
     Davidson diagonalization with overlap
     ethr =  1.08E-05,  avg # of iterations =  2.0

     negative rho (up, down):  4.913E-05 0.000E+00

     total cpu time spent up to now is       11.0 secs

     total energy              =     -33.85131252 Ry
     estimated scf accuracy    <       0.00019807 Ry

     iteration # 18     ecut=    40.00 Ry     beta= 0.70
     Davidson diagonalization with overlap
     ethr =  2.48E-06,  avg # of iterations =  1.0

     total cpu time spent up to now is       11.0 secs

     total energy              =     -33.85127665 Ry
     estimated scf accuracy    <       0.00018402 Ry

     iteration # 19     ecut=    40.00 Ry     beta= 0.70
     Davidson diagonalization with overlap
     ethr =  2.30E-06,  avg # of iterations =  1.0

     total cpu time spent up to now is       11.1 secs

     total energy              =     -33.85127271 Ry
     estimated scf accuracy    <       0.00008313 Ry

     iteration # 20     ecut=    40.00 Ry     beta= 0.70
     Davidson diagonalization with overlap
     ethr =  1.04E-06,  avg # of iterations =  1.0

     total cpu time spent up to now is       11.1 secs

     total energy              =     -33.85126365 Ry
     estimated scf accuracy    <       0.00004949 Ry

     iteration # 21     ecut=    40.00 Ry     beta= 0.70
     Davidson diagonalization with overlap
     ethr =  6.19E-07,  avg # of iterations =  1.0

     total cpu time spent up to now is       11.2 secs

     total energy              =     -33.85126268 Ry
     estimated scf accuracy    <       0.00001597 Ry

     iteration # 22     ecut=    40.00 Ry     beta= 0.70
     Davidson diagonalization with overlap
     ethr =  2.00E-07,  avg # of iterations =  2.0

     total cpu time spent up to now is       11.2 secs

     total energy              =     -33.85126386 Ry
     estimated scf accuracy    <       0.00000316 Ry

     iteration # 23     ecut=    40.00 Ry     beta= 0.70
     Davidson diagonalization with overlap
     ethr =  3.95E-08,  avg # of iterations =  3.0

     total cpu time spent up to now is       11.3 secs

     total energy              =     -33.85126502 Ry
     estimated scf accuracy    <       0.00000010 Ry

     iteration # 24     ecut=    40.00 Ry     beta= 0.70
     Davidson diagonalization with overlap
     ethr =  1.27E-09,  avg # of iterations =  2.0

     total cpu time spent up to now is       11.3 secs

     total energy              =     -33.85126503 Ry
     estimated scf accuracy    <       0.00000004 Ry

     iteration # 25     ecut=    40.00 Ry     beta= 0.70
     Davidson diagonalization with overlap
     ethr =  5.50E-10,  avg # of iterations =  2.0

     total cpu time spent up to now is       11.4 secs

     total energy              =     -33.85126503 Ry
     estimated scf accuracy    <          8.2E-09 Ry

     iteration # 26     ecut=    40.00 Ry     beta= 0.70
     Davidson diagonalization with overlap
     ethr =  1.03E-10,  avg # of iterations =  2.0

     total cpu time spent up to now is       11.4 secs

     total energy              =     -33.85126503 Ry
     estimated scf accuracy    <          9.3E-10 Ry

     iteration # 27     ecut=    40.00 Ry     beta= 0.70
     Davidson diagonalization with overlap
     ethr =  1.17E-11,  avg # of iterations =  2.0

     total cpu time spent up to now is       11.5 secs

     total energy              =     -33.85126503 Ry
     estimated scf accuracy    <          6.2E-11 Ry

     iteration # 28     ecut=    40.00 Ry     beta= 0.70
     Davidson diagonalization with overlap
     ethr =  7.75E-13,  avg # of iterations =  2.0

     total cpu time spent up to now is       11.5 secs

     total energy              =     -33.85126503 Ry
     estimated scf accuracy    <          9.5E-12 Ry

     iteration # 29     ecut=    40.00 Ry     beta= 0.70
     Davidson diagonalization with overlap
     ethr =  1.18E-13,  avg # of iterations =  2.0

     total cpu time spent up to now is       11.6 secs

     total energy              =     -33.85126503 Ry
     estimated scf accuracy    <          1.3E-11 Ry

     iteration # 30     ecut=    40.00 Ry     beta= 0.70
     Davidson diagonalization with overlap
     ethr =  1.18E-13,  avg # of iterations =  2.0

     total cpu time spent up to now is       11.6 secs

     total energy              =     -33.85126503 Ry
     estimated scf accuracy    <          2.8E-12 Ry

     iteration # 31     ecut=    40.00 Ry     beta= 0.70
     Davidson diagonalization with overlap
     ethr =  1.00E-13,  avg # of iterations =  2.0

     total cpu time spent up to now is       11.7 secs

     total energy              =     -33.85126503 Ry
     estimated scf accuracy    <          9.4E-14 Ry

     iteration # 32     ecut=    40.00 Ry     beta= 0.70
     Davidson diagonalization with overlap
     ethr =  1.00E-13,  avg # of iterations =  1.0

     total cpu time spent up to now is       11.7 secs

     total energy              =     -33.85126503 Ry
     estimated scf accuracy    <          3.1E-14 Ry

     iteration # 33     ecut=    40.00 Ry     beta= 0.70
     Davidson diagonalization with overlap
     ethr =  1.00E-13,  avg # of iterations =  1.0

     total cpu time spent up to now is       11.8 secs

     total energy              =     -33.85126503 Ry
     estimated scf accuracy    <          3.8E-15 Ry

     iteration # 34     ecut=    40.00 Ry     beta= 0.70
     Davidson diagonalization with overlap
     ethr =  1.00E-13,  avg # of iterations =  1.0

     total cpu time spent up to now is       11.8 secs

     total energy              =     -33.85126503 Ry
     estimated scf accuracy    <          3.0E-16 Ry

     iteration # 35     ecut=    40.00 Ry     beta= 0.70
     Davidson diagonalization with overlap
     ethr =  1.00E-13,  avg # of iterations =  1.0

     total cpu time spent up to now is       11.9 secs

     total energy              =     -33.85126503 Ry
     estimated scf accuracy    <          2.2E-16 Ry

     iteration # 36     ecut=    40.00 Ry     beta= 0.70
     Davidson diagonalization with overlap
     ethr =  1.00E-13,  avg # of iterations =  1.0

     total cpu time spent up to now is       11.9 secs

     total energy              =     -33.85126503 Ry
     estimated scf accuracy    <          2.3E-16 Ry

     iteration # 37     ecut=    40.00 Ry     beta= 0.70
     Davidson diagonalization with overlap
     ethr =  1.00E-13,  avg # of iterations =  1.0

     total cpu time spent up to now is       12.0 secs

     total energy              =     -33.85126503 Ry
     estimated scf accuracy    <          2.6E-17 Ry

     iteration # 38     ecut=    40.00 Ry     beta= 0.70
     Davidson diagonalization with overlap
     ethr =  1.00E-13,  avg # of iterations =  1.0

     total cpu time spent up to now is       12.0 secs

     End of self-consistent calculation

          k = 0.0000 0.0000 0.0000 (  2169 PWs)   bands (ev):

   -23.5872 -10.3013  -8.3033  -5.7560

     highest occupied level (ev):    -5.7560

!    total energy              =     -33.85126503 Ry
     estimated scf accuracy    <          7.8E-18 Ry

     convergence has been achieved in  38 iterations
 ROUTINE_ZERO BEGINNING
 check_charge   4.00000000000000     
     zero_current :      0.04s CPU      0.04s WALL (       2 calls)
 ZERO CURRENT CALCULATED
     routine_zero :      0.04s CPU      0.04s WALL (       2 calls)
     calcolo_i    :      0.01s CPU      0.01s WALL (       2 calls)
 IONIC CURRENT CALCULATED
     charge density from previous step

     total cpu time spent up to now is       12.1 secs

     Self-consistent Calculation

     iteration #  1     ecut=    40.00 Ry     beta= 0.70
     Davidson diagonalization with overlap
     ethr =  1.00E-03,  avg # of iterations = 17.0

     total cpu time spent up to now is       12.2 secs

     total energy              =     -35.55691312 Ry
     estimated scf accuracy    <      22.55859298 Ry

     iteration #  2     ecut=    40.00 Ry     beta= 0.70
     Davidson diagonalization with overlap
     ethr =  1.00E-02,  avg # of iterations =  4.0

     negative rho (up, down):  5.194E-01 0.000E+00

     total cpu time spent up to now is       12.3 secs

     total energy              =     -30.83057982 Ry
     estimated scf accuracy    <       8.25016201 Ry

     iteration #  3     ecut=    40.00 Ry     beta= 0.70
     Davidson diagonalization with overlap
     ethr =  1.00E-02,  avg # of iterations =  9.0

     total cpu time spent up to now is       12.4 secs

     total energy              =     -25.71943138 Ry
     estimated scf accuracy    <      40.39172429 Ry

     iteration #  4     ecut=    40.00 Ry     beta= 0.70
     Davidson diagonalization with overlap
     ethr =  1.00E-02,  avg # of iterations =  9.0

     total cpu time spent up to now is       12.4 secs

     total energy              =     -33.72504151 Ry
     estimated scf accuracy    <       0.82445740 Ry

     iteration #  5     ecut=    40.00 Ry     beta= 0.70
     Davidson diagonalization with overlap
     ethr =  1.00E-02,  avg # of iterations =  2.0

     total cpu time spent up to now is       12.5 secs

     total energy              =     -34.13132075 Ry
     estimated scf accuracy    <       0.86270692 Ry

     iteration #  6     ecut=    40.00 Ry     beta= 0.70
     Davidson diagonalization with overlap
     ethr =  1.00E-02,  avg # of iterations =  1.0

     total cpu time spent up to now is       12.5 secs

     total energy              =     -34.13448341 Ry
     estimated scf accuracy    <       1.08093643 Ry

     iteration #  7     ecut=    40.00 Ry     beta= 0.70
     Davidson diagonalization with overlap
     ethr =  1.00E-02,  avg # of iterations =  1.0

     total cpu time spent up to now is       12.6 secs

     total energy              =     -34.14341333 Ry
     estimated scf accuracy    <       1.09592541 Ry

     iteration #  8     ecut=    40.00 Ry     beta= 0.70
     Davidson diagonalization with overlap
     ethr =  1.00E-02,  avg # of iterations =  1.0

     total cpu time spent up to now is       12.6 secs

     total energy              =     -34.05086550 Ry
     estimated scf accuracy    <       1.16484436 Ry

     iteration #  9     ecut=    40.00 Ry     beta= 0.70
     Davidson diagonalization with overlap
     ethr =  1.00E-02,  avg # of iterations =  1.0

     total cpu time spent up to now is       12.7 secs

     total energy              =     -33.93630036 Ry
     estimated scf accuracy    <       0.92227058 Ry

     iteration # 10     ecut=    40.00 Ry     beta= 0.70
     Davidson diagonalization with overlap
     ethr =  1.00E-02,  avg # of iterations =  1.0

     negative rho (up, down):  2.687E-01 0.000E+00

     total cpu time spent up to now is       12.7 secs

     total energy              =     -33.73003897 Ry
     estimated scf accuracy    <       0.47198924 Ry

     iteration # 11     ecut=    40.00 Ry     beta= 0.70
     Davidson diagonalization with overlap
     ethr =  5.90E-03,  avg # of iterations =  2.0

     negative rho (up, down):  2.646E-01 0.000E+00

     total cpu time spent up to now is       12.8 secs

     total energy              =     -33.89308408 Ry
     estimated scf accuracy    <       0.12029335 Ry

     iteration # 12     ecut=    40.00 Ry     beta= 0.70
     Davidson diagonalization with overlap
     ethr =  1.50E-03,  avg # of iterations =  1.0

     negative rho (up, down):  9.228E-04 0.000E+00

     total cpu time spent up to now is       12.8 secs

     total energy              =     -33.82977469 Ry
     estimated scf accuracy    <       0.10994327 Ry

     iteration # 13     ecut=    40.00 Ry     beta= 0.70
     Davidson diagonalization with overlap
     ethr =  1.37E-03,  avg # of iterations =  2.0

     negative rho (up, down):  9.442E-04 0.000E+00

     total cpu time spent up to now is       12.9 secs

     total energy              =     -33.84026823 Ry
     estimated scf accuracy    <       0.00571842 Ry

     iteration # 14     ecut=    40.00 Ry     beta= 0.70
     Davidson diagonalization with overlap
     ethr =  7.15E-05,  avg # of iterations =  2.0

     negative rho (up, down):  3.646E-04 0.000E+00

     total cpu time spent up to now is       12.9 secs

     total energy              =     -33.84102602 Ry
     estimated scf accuracy    <       0.00165613 Ry

     iteration # 15     ecut=    40.00 Ry     beta= 0.70
     Davidson diagonalization with overlap
     ethr =  2.07E-05,  avg # of iterations =  3.0

     negative rho (up, down):  1.469E-04 0.000E+00

     total cpu time spent up to now is       13.0 secs

[...]

     total cpu time spent up to now is       25.4 secs

     total energy              =     -33.83831375 Ry
     estimated scf accuracy    <          6.8E-15 Ry

     iteration # 32     ecut=    40.00 Ry     beta= 0.70
     Davidson diagonalization with overlap
     ethr =  1.00E-13,  avg # of iterations =  1.0

     total cpu time spent up to now is       25.4 secs

     total energy              =     -33.83831375 Ry
     estimated scf accuracy    <          7.1E-16 Ry

     iteration # 33     ecut=    40.00 Ry     beta= 0.70
     Davidson diagonalization with overlap
     ethr =  1.00E-13,  avg # of iterations =  1.0

     total cpu time spent up to now is       25.5 secs

     total energy              =     -33.83831375 Ry
     estimated scf accuracy    <          5.3E-16 Ry

     iteration # 34     ecut=    40.00 Ry     beta= 0.70
     Davidson diagonalization with overlap
     ethr =  1.00E-13,  avg # of iterations =  1.0

     total cpu time spent up to now is       25.5 secs

     total energy              =     -33.83831375 Ry
     estimated scf accuracy    <          8.3E-17 Ry

     iteration # 35     ecut=    40.00 Ry     beta= 0.70
     Davidson diagonalization with overlap
     ethr =  1.00E-13,  avg # of iterations =  1.0

     total cpu time spent up to now is       25.5 secs

     End of self-consistent calculation

          k = 0.0000 0.0000 0.0000 (  2169 PWs)   bands (ev):

   -23.4804 -10.1683  -8.2863  -5.7328

     highest occupied level (ev):    -5.7328

!    total energy              =     -33.83831375 Ry
     estimated scf accuracy    <          8.9E-18 Ry

     convergence has been achieved in  35 iterations
 ROUTINE_ZERO BEGINNING
 check_charge   3.99999999999999     
     zero_current :      0.08s CPU      0.09s WALL (       4 calls)
 ZERO CURRENT CALCULATED
     routine_zero :      0.08s CPU      0.09s WALL (       4 calls)
     calcolo_i    :      0.02s CPU      0.02s WALL (       4 calls)
 IONIC CURRENT CALCULATED
     charge density from previous step

     total cpu time spent up to now is       25.6 secs

     Self-consistent Calculation

     iteration #  1     ecut=    40.00 Ry     beta= 0.70
     Davidson diagonalization with overlap
     ethr =  1.00E-03,  avg # of iterations = 17.0

     total cpu time spent up to now is       25.7 secs

     total energy              =     -35.48907430 Ry
     estimated scf accuracy    <      21.85542609 Ry

     iteration #  2     ecut=    40.00 Ry     beta= 0.70
     Davidson diagonalization with overlap
     ethr =  1.00E-02,  avg # of iterations =  4.0

     negative rho (up, down):  5.575E-01 0.000E+00

     total cpu time spent up to now is       25.8 secs

     total energy              =     -30.78485510 Ry
     estimated scf accuracy    <       8.35698543 Ry

     iteration #  3     ecut=    40.00 Ry     beta= 0.70
     Davidson diagonalization with overlap
     ethr =  1.00E-02,  avg # of iterations =  9.0

     total cpu time spent up to now is       25.9 secs

     total energy              =     -25.31524114 Ry
     estimated scf accuracy    <      41.85731889 Ry

     iteration #  4     ecut=    40.00 Ry     beta= 0.70
     Davidson diagonalization with overlap
     ethr =  1.00E-02,  avg # of iterations =  9.0

     total cpu time spent up to now is       25.9 secs

     total energy              =     -33.66122602 Ry
     estimated scf accuracy    <       0.95911374 Ry

     iteration #  5     ecut=    40.00 Ry     beta= 0.70
     Davidson diagonalization with overlap
     ethr =  1.00E-02,  avg # of iterations =  3.0

     total cpu time spent up to now is       26.0 secs

     total energy              =     -34.16569701 Ry
     estimated scf accuracy    <       0.97146066 Ry

     iteration #  6     ecut=    40.00 Ry     beta= 0.70
     Davidson diagonalization with overlap
     ethr =  1.00E-02,  avg # of iterations =  1.0

     total cpu time spent up to now is       26.0 secs

     total energy              =     -34.15488415 Ry
     estimated scf accuracy    <       1.29697981 Ry

     iteration #  7     ecut=    40.00 Ry     beta= 0.70
     Davidson diagonalization with overlap
     ethr =  1.00E-02,  avg # of iterations =  1.0

     total cpu time spent up to now is       26.1 secs

     total energy              =     -34.23935886 Ry
     estimated scf accuracy    <       1.27317889 Ry

     iteration #  8     ecut=    40.00 Ry     beta= 0.70
     Davidson diagonalization with overlap
     ethr =  1.00E-02,  avg # of iterations =  1.0

     total cpu time spent up to now is       26.1 secs

     total energy              =     -34.02570762 Ry
     estimated scf accuracy    <       1.59899727 Ry

     iteration #  9     ecut=    40.00 Ry     beta= 0.70
     Davidson diagonalization with overlap
     ethr =  1.00E-02,  avg # of iterations =  1.0

     total cpu time spent up to now is       26.2 secs

     total energy              =     -34.02612342 Ry
     estimated scf accuracy    <       1.01761473 Ry

     iteration # 10     ecut=    40.00 Ry     beta= 0.70
     Davidson diagonalization with overlap
     ethr =  1.00E-02,  avg # of iterations =  1.0

     negative rho (up, down):  3.577E-01 0.000E+00

     total cpu time spent up to now is       26.2 secs

     total energy              =     -33.52929878 Ry
     estimated scf accuracy    <       0.94618287 Ry

     iteration # 11     ecut=    40.00 Ry     beta= 0.70
     Davidson diagonalization with overlap
     ethr =  1.00E-02,  avg # of iterations =  3.0

     negative rho (up, down):  4.481E-01 0.000E+00

     total cpu time spent up to now is       26.3 secs

     total energy              =     -33.98510378 Ry
     estimated scf accuracy    <       0.43549926 Ry

     iteration # 12     ecut=    40.00 Ry     beta= 0.70
     Davidson diagonalization with overlap
     ethr =  5.44E-03,  avg # of iterations =  1.0

     negative rho (up, down):  6.386E-05 0.000E+00

     total cpu time spent up to now is       26.3 secs

     total energy              =     -33.74265100 Ry
     estimated scf accuracy    <       0.41178153 Ry

     iteration # 13     ecut=    40.00 Ry     beta= 0.70
     Davidson diagonalization with overlap
     ethr =  5.15E-03,  avg # of iterations =  2.0

     negative rho (up, down):  2.542E-04 0.000E+00

     total cpu time spent up to now is       26.4 secs

     total energy              =     -33.83747744 Ry
     estimated scf accuracy    <       0.02206627 Ry

     iteration # 14     ecut=    40.00 Ry     beta= 0.70
     Davidson diagonalization with overlap
     ethr =  2.76E-04,  avg # of iterations =  2.0

     negative rho (up, down):  1.909E-04 0.000E+00

     total cpu time spent up to now is       26.5 secs

     total energy              =     -33.83641020 Ry
     estimated scf accuracy    <       0.04007594 Ry

     iteration # 15     ecut=    40.00 Ry     beta= 0.70
     Davidson diagonalization with overlap
     ethr =  2.76E-04,  avg # of iterations =  1.0

     negative rho (up, down):  4.241E-04 0.000E+00

     total cpu time spent up to now is       26.5 secs

     total energy              =     -33.84543559 Ry
     estimated scf accuracy    <       0.03192553 Ry

     iteration # 16     ecut=    40.00 Ry     beta= 0.70
     Davidson diagonalization with overlap
     ethr =  2.76E-04,  avg # of iterations =  2.0

     negative rho (up, down):  2.760E-04 0.000E+00

     total cpu time spent up to now is       26.6 secs

     total energy              =     -33.81556972 Ry
     estimated scf accuracy    <       0.07178092 Ry

     iteration # 17     ecut=    40.00 Ry     beta= 0.70
     Davidson diagonalization with overlap
     ethr =  2.76E-04,  avg # of iterations =  3.0

     negative rho (up, down):  2.502E-07 0.000E+00

     total cpu time spent up to now is       26.6 secs

     total energy              =     -33.82901478 Ry
     estimated scf accuracy    <       0.00026581 Ry

     iteration # 18     ecut=    40.00 Ry     beta= 0.70
     Davidson diagonalization with overlap
     ethr =  3.32E-06,  avg # of iterations =  4.0

     negative rho (up, down):  3.759E-07 0.000E+00

     total cpu time spent up to now is       26.7 secs

     total energy              =     -33.82913789 Ry
     estimated scf accuracy    <       0.00013169 Ry

     iteration # 19     ecut=    40.00 Ry     beta= 0.70
     Davidson diagonalization with overlap
     ethr =  1.65E-06,  avg # of iterations =  1.0

     total cpu time spent up to now is       26.7 secs

     total energy              =     -33.82911561 Ry
     estimated scf accuracy    <       0.00006258 Ry

     iteration # 20     ecut=    40.00 Ry     beta= 0.70
     Davidson diagonalization with overlap
     ethr =  7.82E-07,  avg # of iterations =  2.0

     total cpu time spent up to now is       26.8 secs

     total energy              =     -33.82913310 Ry
     estimated scf accuracy    <       0.00000246 Ry

     iteration # 21     ecut=    40.00 Ry     beta= 0.70
     Davidson diagonalization with overlap
     ethr =  3.07E-08,  avg # of iterations =  3.0

     total cpu time spent up to now is       26.8 secs

     total energy              =     -33.82913429 Ry
     estimated scf accuracy    <       0.00001214 Ry

     iteration # 22     ecut=    40.00 Ry     beta= 0.70
     Davidson diagonalization with overlap
     ethr =  3.07E-08,  avg # of iterations =  1.0

     total cpu time spent up to now is       26.9 secs

     total energy              =     -33.82913364 Ry
     estimated scf accuracy    <       0.00001090 Ry

     iteration # 23     ecut=    40.00 Ry     beta= 0.70
     Davidson diagonalization with overlap
     ethr =  3.07E-08,  avg # of iterations =  1.0

     total cpu time spent up to now is       26.9 secs

     total energy              =     -33.82912957 Ry
     estimated scf accuracy    <       0.00000855 Ry

     iteration # 24     ecut=    40.00 Ry     beta= 0.70
     Davidson diagonalization with overlap
     ethr =  3.07E-08,  avg # of iterations =  3.0

     total cpu time spent up to now is       27.0 secs

     total energy              =     -33.82913172 Ry
     estimated scf accuracy    <       0.00000063 Ry

     iteration # 25     ecut=    40.00 Ry     beta= 0.70
     Davidson diagonalization with overlap
     ethr =  7.92E-09,  avg # of iterations =  1.0

     total cpu time spent up to now is       27.0 secs

     total energy              =     -33.82913171 Ry
     estimated scf accuracy    <       0.00000013 Ry

     iteration # 26     ecut=    40.00 Ry     beta= 0.70
     Davidson diagonalization with overlap
     ethr =  1.62E-09,  avg # of iterations =  2.0

     total cpu time spent up to now is       27.1 secs

     total energy              =     -33.82913176 Ry
     estimated scf accuracy    <       0.00000002 Ry

     iteration # 27     ecut=    40.00 Ry     beta= 0.70
     Davidson diagonalization with overlap
     ethr =  3.07E-10,  avg # of iterations =  1.0

     total cpu time spent up to now is       27.1 secs

     total energy              =     -33.82913176 Ry
     estimated scf accuracy    <       0.00000001 Ry

     iteration # 28     ecut=    40.00 Ry     beta= 0.70
     Davidson diagonalization with overlap
     ethr =  1.34E-10,  avg # of iterations =  2.0

     total cpu time spent up to now is       27.2 secs

     total energy              =     -33.82913176 Ry
     estimated scf accuracy    <          5.8E-10 Ry

     iteration # 29     ecut=    40.00 Ry     beta= 0.70
     Davidson diagonalization with overlap
     ethr =  7.31E-12,  avg # of iterations =  3.0

     total cpu time spent up to now is       27.2 secs

     total energy              =     -33.82913176 Ry
     estimated scf accuracy    <          1.6E-10 Ry

     iteration # 30     ecut=    40.00 Ry     beta= 0.70
     Davidson diagonalization with overlap
     ethr =  1.94E-12,  avg # of iterations =  1.0

     total cpu time spent up to now is       27.3 secs

     total energy              =     -33.82913176 Ry
     estimated scf accuracy    <          7.5E-11 Ry

     iteration # 31     ecut=    40.00 Ry     beta= 0.70
     Davidson diagonalization with overlap
     ethr =  9.38E-13,  avg # of iterations =  2.0

     total cpu time spent up to now is       27.3 secs

     total energy              =     -33.82913176 Ry
     estimated scf accuracy    <          1.2E-11 Ry

     iteration # 32     ecut=    40.00 Ry     beta= 0.70
     Davidson diagonalization with overlap
     ethr =  1.47E-13,  avg # of iterations =  1.0

     total cpu time spent up to now is       27.4 secs

     total energy              =     -33.82913176 Ry
     estimated scf accuracy    <          4.0E-12 Ry

     iteration # 33     ecut=    40.00 Ry     beta= 0.70
     Davidson diagonalization with overlap
     ethr =  1.00E-13,  avg # of iterations =  2.0

     total cpu time spent up to now is       27.4 secs

     total energy              =     -33.82913176 Ry
     estimated scf accuracy    <          2.8E-13 Ry

     iteration # 34     ecut=    40.00 Ry     beta= 0.70
     Davidson diagonalization with overlap
     ethr =  1.00E-13,  avg # of iterations =  1.0

     total cpu time spent up to now is       27.5 secs

     total energy              =     -33.82913176 Ry
     estimated scf accuracy    <          3.1E-15 Ry

     iteration # 35     ecut=    40.00 Ry     beta= 0.70
     Davidson diagonalization with overlap
     ethr =  1.00E-13,  avg # of iterations =  1.0

     total cpu time spent up to now is       27.5 secs

     total energy              =     -33.82913176 Ry
     estimated scf accuracy    <          1.3E-14 Ry

     iteration # 36     ecut=    40.00 Ry     beta= 0.70
     Davidson diagonalization with overlap
     ethr =  1.00E-13,  avg # of iterations =  1.0

     total cpu time spent up to now is       27.6 secs

     total energy              =     -33.82913176 Ry
     estimated scf accuracy    <          8.0E-14 Ry

     iteration # 37     ecut=    40.00 Ry     beta= 0.70
     Davidson diagonalization with overlap
     ethr =  1.00E-13,  avg # of iterations =  1.0

     total cpu time spent up to now is       27.6 secs

     total energy              =     -33.82913176 Ry
     estimated scf accuracy    <          4.5E-14 Ry

     iteration # 38     ecut=    40.00 Ry     beta= 0.70
     Davidson diagonalization with overlap
     ethr =  1.00E-13,  avg # of iterations =  1.0

     total cpu time spent up to now is       27.7 secs

     total energy              =     -33.82913176 Ry
     estimated scf accuracy    <          1.9E-14 Ry

     iteration # 39     ecut=    40.00 Ry     beta= 0.70
     Davidson diagonalization with overlap
     ethr =  1.00E-13,  avg # of iterations =  1.0

     total cpu time spent up to now is       27.7 secs

     total energy              =     -33.82913176 Ry
     estimated scf accuracy    <          3.9E-16 Ry

     iteration # 40     ecut=    40.00 Ry     beta= 0.70
     Davidson diagonalization with overlap
     ethr =  1.00E-13,  avg # of iterations =  1.0

     total cpu time spent up to now is       27.8 secs

     total energy              =     -33.82913176 Ry
     estimated scf accuracy    <          5.2E-16 Ry

     iteration # 41     ecut=    40.00 Ry     beta= 0.70
     Davidson diagonalization with overlap
     ethr =  1.00E-13,  avg # of iterations =  1.0

     total cpu time spent up to now is       27.8 secs

     total energy              =     -33.82913176 Ry
     estimated scf accuracy    <          2.6E-16 Ry

     iteration # 42     ecut=    40.00 Ry     beta= 0.70
     Davidson diagonalization with overlap
     ethr =  1.00E-13,  avg # of iterations =  1.0

     total cpu time spent up to now is       27.9 secs

     total energy              =     -33.82913176 Ry
     estimated scf accuracy    <          2.2E-16 Ry

     iteration # 43     ecut=    40.00 Ry     beta= 0.70
     Davidson diagonalization with overlap
     ethr =  1.00E-13,  avg # of iterations =  1.0

     total cpu time spent up to now is       27.9 secs

     End of self-consistent calculation

          k = 0.0000 0.0000 0.0000 (  2169 PWs)   bands (ev):

   -23.4096 -10.0786  -8.2746  -5.7174

     highest occupied level (ev):    -5.7174

!    total energy              =     -33.82913176 Ry
     estimated scf accuracy    <          2.8E-18 Ry

     convergence has been achieved in  43 iterations
     charge density from previous step
 BEGIN: HARTREE & KOHN
 check_charge   4.00000000000000     
 check_charge   4.00000000000000     
 check_charge   3.99999999999999     
     hartree_curr :      0.06s CPU      0.07s WALL (       4 calls)
 HARTREE CURRENT CALCULATED
     xc_current   :      0.05s CPU      0.05s WALL (       4 calls)
 X-C CURRENT CALCULATED
     charge density from previous step
     project      :      1.05s CPU      1.06s WALL (      10 calls)
     kohn-first   :      0.00s CPU      0.00s WALL (      10 calls)
     kohn-second  :      0.00s CPU      0.00s WALL (      10 calls)
  KOHN POLARIZATION   1 COMPLETED
     project      :      1.18s CPU      1.19s WALL (      11 calls)
     kohn-first   :      0.00s CPU      0.00s WALL (      11 calls)
     kohn-second  :      0.00s CPU      0.00s WALL (      11 calls)
  KOHN POLARIZATION   2 COMPLETED
     project      :      1.31s CPU      1.32s WALL (      12 calls)
     kohn-first   :      0.00s CPU      0.00s WALL (      12 calls)
     kohn-second  :      0.00s CPU      0.00s WALL (      12 calls)
  KOHN POLARIZATION   3 COMPLETED
     kohn_current :      1.50s CPU      1.53s WALL (       4 calls)
 KOHN CURRENT CALCULATED
total energy current:   0.139408977213E+00  0.528704222811E-01 -0.323248426861E+00
center of mass velocity of type   1:   0.206368127752E-01  0.245365426030E-01 -0.445024814491E-01
center of mass velocity of type   2:  -0.257960159690E-02 -0.306706782538E-02  0.556281018114E-02
 STEP          147  1.066728000000000E-002  >          146
 Finished reading trajectory traj/cp at step          147
 
     init_run     :      0.10s CPU      0.13s WALL (       1 calls)
     electrons    :     24.78s CPU     25.50s WALL (      12 calls)
     update_pot   :      0.61s CPU      0.72s WALL (      20 calls)

     Called by init_run:
     wfcinit      :      0.01s CPU      0.01s WALL (       1 calls)
     potinit      :      0.06s CPU      0.07s WALL (       1 calls)
     hinit0       :      0.03s CPU      0.04s WALL (       1 calls)

     Called by electrons:
     c_bands      :      6.84s CPU      6.90s WALL (     472 calls)
     sum_band     :      2.35s CPU      2.39s WALL (     492 calls)
     v_of_rho     :     14.09s CPU     14.76s WALL (     493 calls)
     mix_rho      :      1.98s CPU      2.00s WALL (     472 calls)

     Called by c_bands:
     init_us_2    :      0.07s CPU      0.07s WALL (     977 calls)
     regterg      :      6.79s CPU      6.84s WALL (     472 calls)

     Called by *egterg:
     rdiaghg      :      0.05s CPU      0.05s WALL (    1635 calls)
     h_psi        :      7.70s CPU      7.76s WALL (    1976 calls)
     g_psi        :      0.05s CPU      0.05s WALL (    1162 calls)

     Called by h_psi:
     h_psi:calbec :      0.03s CPU      0.03s WALL (    1976 calls)
     vloc_psi     :      7.63s CPU      7.68s WALL (    1976 calls)
     add_vuspsi   :      0.02s CPU      0.02s WALL (    1976 calls)

     General routines
     calbec       :      0.02s CPU      0.02s WALL (    2393 calls)
     fft          :      3.79s CPU      3.81s WALL (    3952 calls)
     ffts         :      0.50s CPU      0.50s WALL (     520 calls)
     fftw         :      7.77s CPU      7.84s WALL (    8146 calls)
 
     Parallel routines
 
     PWSCF        :     27.54s CPU     28.43s WALL

 
   This run was terminated on:  16:42:54   5May2021            

=------------------------------------------------------------------------------=
   JOB DONE.
=------------------------------------------------------------------------------=
