
     Program PWSCF v.6.7MaX starts on  7Jan2021 at 15:28:44 

     This program is part of the open-source Quantum ESPRESSO suite
     for quantum simulation of materials; please cite
         "P. Giannozzi et al., J. Phys.:Condens. Matter 21 395502 (2009);
         "P. Giannozzi et al., J. Phys.:Condens. Matter 29 465901 (2017);
          URL http://www.quantum-espresso.org", 
     in publications or presentations arising from this work. More details at
     http://www.quantum-espresso.org/quote

     Parallel version (MPI), running on     1 processors

     MPI processes distributed on     1 nodes
 WARNING: VELOCITIES FROM INPUT FILE WILL BE IGNORED
 Using CP units for velocities
     Message from routine scan_end:
     No INFO block end statement, possibly corrupted file
 After first step from input file, I will read from the CPV trajectory traj/cp
 SKIPPING STEP FROM INPUT FILE
 SKIPPED STEP          111   8.0548800000000004E-003
 SKIPPED STEP          114   8.2725799999999999E-003
 SKIPPED STEP          117   8.4902799999999994E-003
 SKIPPED STEP          120   8.7079800000000006E-003
 SKIPPED STEP          123   8.9256800000000001E-003
 SKIPPED STEP          126   9.1433799999999996E-003
 SKIPPED STEP          129   9.3610800000000008E-003
 SKIPPED STEP          132   9.5787800000000003E-003
 SKIPPED STEP          135   9.7964799999999998E-003
 SKIPPED STEP          138   1.0014179999999999E-002
 STEP          141   1.0231880000000000E-002

     Subspace diagonalization in iterative solution of the eigenvalue problem:
     a serial algorithm will be used


     G-vector sticks info
     --------------------
     sticks:   dense  smooth     PW     G-vecs:    dense   smooth      PW
     Sum        2561    2561    641                96969    96969   12053



     bravais-lattice index     =            1
     lattice parameter (alat)  =      10.0000  a.u.
     unit-cell volume          =    1000.0000 (a.u.)^3
     number of atoms/cell      =            3
     number of atomic types    =            2
     number of electrons       =         8.00
     number of Kohn-Sham states=            4
     kinetic-energy cutoff     =      80.0000  Ry
     charge density cutoff     =     320.0000  Ry
     scf convergence threshold =      1.0E-17
     mixing beta               =       0.7000
     number of iterations used =            8  plain     mixing
     energy convergence thresh.=      0.0E+00
     force convergence thresh. =      0.0E+00
     Exchange-correlation=  SLA  PW   PBX  PBC
                           (   1   4   3   4   0   0   0)
     nstep                     =           50


     celldm(1)=  10.000000  celldm(2)=   0.000000  celldm(3)=   0.000000
     celldm(4)=   0.000000  celldm(5)=   0.000000  celldm(6)=   0.000000

     crystal axes: (cart. coord. in units of alat)
               a(1) = (   1.000000   0.000000   0.000000 )  
               a(2) = (   0.000000   1.000000   0.000000 )  
               a(3) = (   0.000000   0.000000   1.000000 )  

     reciprocal axes: (cart. coord. in units 2 pi/alat)
               b(1) = (  1.000000  0.000000  0.000000 )  
               b(2) = (  0.000000  1.000000  0.000000 )  
               b(3) = (  0.000000  0.000000  1.000000 )  


     PseudoPot. # 1 for H  read from file:
     ../pseudo/H_HSCV_PBE-1.0.upf
     MD5 check sum: 9381039c3e76055a91507fe4cf572eb6
     Pseudo is Norm-conserving, Zval =  1.0
     Generated by new atomic code, or converted to UPF format
     Using radial grid of 2000 points,  0 beta functions with: 

     PseudoPot. # 2 for O  read from file:
     ../pseudo/O_HSCV_PBE-1.0.upf
     MD5 check sum: d1ac96ff7cc4673fd84f2420bd578511
     Pseudo is Norm-conserving, Zval =  6.0
     Generated by new atomic code, or converted to UPF format
     Using radial grid of 2000 points,  1 beta functions with: 
                l(1) =   0

     atomic species   valence    mass     pseudopotential
        H              1.00     1.00000     H ( 1.00)
        O              6.00    16.00000     O ( 1.00)

     No symmetry found



   Cartesian axes

     site n.     atom                  positions (alat units)
         1           H   tau(   1) = (   0.0389613   0.1402703   0.0857337  )
         2           H   tau(   2) = (   0.0146434  -0.0661703  -0.1804127  )
         3           O   tau(   3) = (  -0.0341233  -0.0523067   0.0446450  )

     number of k points=     1
                       cart. coord. in units 2pi/alat
        k(    1) = (   0.0000000   0.0000000   0.0000000), wk =   2.0000000

     Dense  grid:    48485 G-vectors     FFT dimensions: (  60,  60,  60)

     Estimated max dynamical RAM per process >      38.44 MB

     Initial potential from superposition of free atoms

     starting charge    7.99998, renormalised to    8.00000
     Starting wfcs are random
     charge density from previous step

     total cpu time spent up to now is        1.0 secs

     Self-consistent Calculation

     iteration #  1     ecut=    80.00 Ry     beta= 0.70
     Davidson diagonalization with overlap
     ethr =  1.00E-03,  avg # of iterations = 13.0

     total cpu time spent up to now is        1.3 secs

     total energy              =     -36.17767262 Ry
     estimated scf accuracy    <      27.01708230 Ry

     iteration #  2     ecut=    80.00 Ry     beta= 0.70
     Davidson diagonalization with overlap
     ethr =  1.00E-02,  avg # of iterations =  3.0

     negative rho (up, down):  4.096E-01 0.000E+00

     total cpu time spent up to now is        1.5 secs

     total energy              =     -32.12162297 Ry
     estimated scf accuracy    <       5.68276113 Ry

     iteration #  3     ecut=    80.00 Ry     beta= 0.70
     Davidson diagonalization with overlap
     ethr =  1.00E-02,  avg # of iterations =  9.0

     total cpu time spent up to now is        1.7 secs

     total energy              =     -28.68015964 Ry
     estimated scf accuracy    <      33.45775472 Ry

     iteration #  4     ecut=    80.00 Ry     beta= 0.70
     Davidson diagonalization with overlap
     ethr =  1.00E-02,  avg # of iterations =  8.0

     negative rho (up, down):  1.989E-03 0.000E+00

     total cpu time spent up to now is        2.0 secs

     total energy              =     -34.57823776 Ry
     estimated scf accuracy    <       0.40925592 Ry

     iteration #  5     ecut=    80.00 Ry     beta= 0.70
     Davidson diagonalization with overlap
     ethr =  5.12E-03,  avg # of iterations =  3.0

     negative rho (up, down):  3.770E-03 0.000E+00

     total cpu time spent up to now is        2.2 secs

     total energy              =     -35.12883055 Ry
     estimated scf accuracy    <       3.25346241 Ry

     iteration #  6     ecut=    80.00 Ry     beta= 0.70
     Davidson diagonalization with overlap
     ethr =  5.12E-03,  avg # of iterations =  1.0

     negative rho (up, down):  1.389E-03 0.000E+00

     total cpu time spent up to now is        2.3 secs

     total energy              =     -35.13238213 Ry
     estimated scf accuracy    <       3.41293086 Ry

     iteration #  7     ecut=    80.00 Ry     beta= 0.70
     Davidson diagonalization with overlap
     ethr =  5.12E-03,  avg # of iterations =  1.0

     negative rho (up, down):  1.611E-04 0.000E+00

     total cpu time spent up to now is        2.5 secs

     total energy              =     -34.61614273 Ry
     estimated scf accuracy    <       3.51597766 Ry

     iteration #  8     ecut=    80.00 Ry     beta= 0.70
     Davidson diagonalization with overlap
     ethr =  5.12E-03,  avg # of iterations =  2.0

     negative rho (up, down):  1.258E-01 0.000E+00

     total cpu time spent up to now is        2.7 secs

     total energy              =     -34.44721199 Ry
     estimated scf accuracy    <       1.95839776 Ry

     iteration #  9     ecut=    80.00 Ry     beta= 0.70
     Davidson diagonalization with overlap
     ethr =  5.12E-03,  avg # of iterations =  2.0

     negative rho (up, down):  1.142E-01 0.000E+00

     total cpu time spent up to now is        2.9 secs

     total energy              =     -34.36615008 Ry
     estimated scf accuracy    <       1.14057529 Ry

     iteration # 10     ecut=    80.00 Ry     beta= 0.70
     Davidson diagonalization with overlap
     ethr =  5.12E-03,  avg # of iterations =  1.0

     negative rho (up, down):  4.344E-01 0.000E+00

     total cpu time spent up to now is        3.0 secs

     total energy              =     -34.09303626 Ry
     estimated scf accuracy    <       0.66678361 Ry

     iteration # 11     ecut=    80.00 Ry     beta= 0.70
     Davidson diagonalization with overlap
     ethr =  5.12E-03,  avg # of iterations =  3.0

     negative rho (up, down):  4.689E-01 0.000E+00

     total cpu time spent up to now is        3.2 secs

     total energy              =     -34.38285920 Ry
     estimated scf accuracy    <       0.18707540 Ry

     iteration # 12     ecut=    80.00 Ry     beta= 0.70
     Davidson diagonalization with overlap
     ethr =  2.34E-03,  avg # of iterations =  1.0

     negative rho (up, down):  3.295E-03 0.000E+00

     total cpu time spent up to now is        3.4 secs

     total energy              =     -34.25917387 Ry
     estimated scf accuracy    <       0.19775821 Ry

     iteration # 13     ecut=    80.00 Ry     beta= 0.70
     Davidson diagonalization with overlap
     ethr =  2.34E-03,  avg # of iterations =  2.0

     negative rho (up, down):  1.860E-03 0.000E+00

     total cpu time spent up to now is        3.6 secs

     total energy              =     -34.28252877 Ry
     estimated scf accuracy    <       0.00567581 Ry

     iteration # 14     ecut=    80.00 Ry     beta= 0.70
     Davidson diagonalization with overlap
     ethr =  7.09E-05,  avg # of iterations =  2.0

     negative rho (up, down):  4.173E-04 0.000E+00

     total cpu time spent up to now is        3.7 secs

     total energy              =     -34.28352565 Ry
     estimated scf accuracy    <       0.00311338 Ry

     iteration # 15     ecut=    80.00 Ry     beta= 0.70
     Davidson diagonalization with overlap
     ethr =  3.89E-05,  avg # of iterations =  1.0

     negative rho (up, down):  2.000E-06 0.000E+00

     total cpu time spent up to now is        3.9 secs

     total energy              =     -34.28350312 Ry
     estimated scf accuracy    <       0.00251291 Ry

     iteration # 16     ecut=    80.00 Ry     beta= 0.70
     Davidson diagonalization with overlap
     ethr =  3.14E-05,  avg # of iterations =  1.0

     negative rho (up, down):  1.851E-07 0.000E+00

     total cpu time spent up to now is        4.1 secs

     total energy              =     -34.28327336 Ry
     estimated scf accuracy    <       0.00184357 Ry

     iteration # 17     ecut=    80.00 Ry     beta= 0.70
     Davidson diagonalization with overlap
     ethr =  2.30E-05,  avg # of iterations =  1.0

     negative rho (up, down):  1.532E-05 0.000E+00

     total cpu time spent up to now is        4.2 secs

     total energy              =     -34.28331529 Ry
     estimated scf accuracy    <       0.00044434 Ry

     iteration # 18     ecut=    80.00 Ry     beta= 0.70
     Davidson diagonalization with overlap
     ethr =  5.55E-06,  avg # of iterations =  2.0

     negative rho (up, down):  4.286E-05 0.000E+00

     total cpu time spent up to now is        4.4 secs

     total energy              =     -34.28335054 Ry
     estimated scf accuracy    <       0.00005995 Ry

     iteration # 19     ecut=    80.00 Ry     beta= 0.70
     Davidson diagonalization with overlap
     ethr =  7.49E-07,  avg # of iterations =  3.0

     negative rho (up, down):  9.423E-06 0.000E+00

     total cpu time spent up to now is        4.6 secs

     total energy              =     -34.28337100 Ry
     estimated scf accuracy    <       0.00002523 Ry

     iteration # 20     ecut=    80.00 Ry     beta= 0.70
     Davidson diagonalization with overlap
     ethr =  3.15E-07,  avg # of iterations =  1.0

     negative rho (up, down):  6.476E-07 0.000E+00

     total cpu time spent up to now is        4.8 secs

     total energy              =     -34.28336952 Ry
     estimated scf accuracy    <       0.00000732 Ry

     iteration # 21     ecut=    80.00 Ry     beta= 0.70
     Davidson diagonalization with overlap
     ethr =  9.15E-08,  avg # of iterations =  2.0

     negative rho (up, down):  9.168E-08 0.000E+00

     total cpu time spent up to now is        5.0 secs

     total energy              =     -34.28337135 Ry
     estimated scf accuracy    <       0.00000003 Ry

     iteration # 22     ecut=    80.00 Ry     beta= 0.70
     Davidson diagonalization with overlap
     ethr =  3.70E-10,  avg # of iterations =  5.0

     negative rho (up, down):  2.070E-08 0.000E+00

     total cpu time spent up to now is        5.2 secs

     total energy              =     -34.28337140 Ry
     estimated scf accuracy    <       0.00000005 Ry

     iteration # 23     ecut=    80.00 Ry     beta= 0.70
     Davidson diagonalization with overlap
     ethr =  3.70E-10,  avg # of iterations =  2.0

     total cpu time spent up to now is        5.3 secs

     total energy              =     -34.28337139 Ry
     estimated scf accuracy    <          5.3E-09 Ry

     iteration # 24     ecut=    80.00 Ry     beta= 0.70
     Davidson diagonalization with overlap
     ethr =  6.59E-11,  avg # of iterations =  3.0

     total cpu time spent up to now is        5.5 secs

     total energy              =     -34.28337139 Ry
     estimated scf accuracy    <          2.5E-10 Ry

     iteration # 25     ecut=    80.00 Ry     beta= 0.70
     Davidson diagonalization with overlap
     ethr =  3.14E-12,  avg # of iterations =  2.0

     total cpu time spent up to now is        5.7 secs

     total energy              =     -34.28337139 Ry
     estimated scf accuracy    <          1.8E-10 Ry

     iteration # 26     ecut=    80.00 Ry     beta= 0.70
     Davidson diagonalization with overlap
     ethr =  2.29E-12,  avg # of iterations =  1.0

     total cpu time spent up to now is        5.9 secs

     total energy              =     -34.28337139 Ry
     estimated scf accuracy    <          5.1E-11 Ry

     iteration # 27     ecut=    80.00 Ry     beta= 0.70
     Davidson diagonalization with overlap
     ethr =  6.36E-13,  avg # of iterations =  2.0

     total cpu time spent up to now is        6.0 secs

     total energy              =     -34.28337139 Ry
     estimated scf accuracy    <          3.8E-12 Ry

     iteration # 28     ecut=    80.00 Ry     beta= 0.70
     Davidson diagonalization with overlap
     ethr =  1.00E-13,  avg # of iterations =  2.0

     total cpu time spent up to now is        6.2 secs

     total energy              =     -34.28337139 Ry
     estimated scf accuracy    <          6.1E-13 Ry

     iteration # 29     ecut=    80.00 Ry     beta= 0.70
     Davidson diagonalization with overlap
     ethr =  1.00E-13,  avg # of iterations =  1.0

     total cpu time spent up to now is        6.4 secs

     total energy              =     -34.28337139 Ry
     estimated scf accuracy    <          5.1E-13 Ry

     iteration # 30     ecut=    80.00 Ry     beta= 0.70
     Davidson diagonalization with overlap
     ethr =  1.00E-13,  avg # of iterations =  1.0

     total cpu time spent up to now is        6.6 secs

     total energy              =     -34.28337139 Ry
     estimated scf accuracy    <          5.0E-14 Ry

     iteration # 31     ecut=    80.00 Ry     beta= 0.70
     Davidson diagonalization with overlap
     ethr =  1.00E-13,  avg # of iterations =  1.0

     total cpu time spent up to now is        6.7 secs

     total energy              =     -34.28337139 Ry
     estimated scf accuracy    <          2.4E-16 Ry

     iteration # 32     ecut=    80.00 Ry     beta= 0.70
     Davidson diagonalization with overlap
     ethr =  1.00E-13,  avg # of iterations =  1.0

     total cpu time spent up to now is        6.9 secs

     total energy              =     -34.28337139 Ry
     estimated scf accuracy    <          1.9E-16 Ry

     iteration # 33     ecut=    80.00 Ry     beta= 0.70
     Davidson diagonalization with overlap
     ethr =  1.00E-13,  avg # of iterations =  1.0

     total cpu time spent up to now is        7.1 secs

     total energy              =     -34.28337139 Ry
     estimated scf accuracy    <          2.1E-15 Ry

     iteration # 34     ecut=    80.00 Ry     beta= 0.70
     Davidson diagonalization with overlap
     ethr =  1.00E-13,  avg # of iterations =  1.0

     total cpu time spent up to now is        7.2 secs

     total energy              =     -34.28337139 Ry
     estimated scf accuracy    <          1.4E-15 Ry

     iteration # 35     ecut=    80.00 Ry     beta= 0.70
     Davidson diagonalization with overlap
     ethr =  1.00E-13,  avg # of iterations =  1.0

     total cpu time spent up to now is        7.4 secs

     total energy              =     -34.28337139 Ry
     estimated scf accuracy    <          2.2E-16 Ry

     iteration # 36     ecut=    80.00 Ry     beta= 0.70
     Davidson diagonalization with overlap
     ethr =  1.00E-13,  avg # of iterations =  1.0

     total cpu time spent up to now is        7.6 secs

     total energy              =     -34.28337139 Ry
     estimated scf accuracy    <          5.9E-17 Ry

     iteration # 37     ecut=    80.00 Ry     beta= 0.70
     Davidson diagonalization with overlap
     ethr =  1.00E-13,  avg # of iterations =  1.0

     total cpu time spent up to now is        7.7 secs

     total energy              =     -34.28337139 Ry
     estimated scf accuracy    <          1.1E-17 Ry

     iteration # 38     ecut=    80.00 Ry     beta= 0.70
     Davidson diagonalization with overlap
     ethr =  1.00E-13,  avg # of iterations =  1.0

     total cpu time spent up to now is        7.9 secs

     End of self-consistent calculation

          k = 0.0000 0.0000 0.0000 (  6027 PWs)   bands (ev):

   -22.7962 -10.5678  -8.2574  -5.9287

     highest occupied level (ev):    -5.9287

!    total energy              =     -34.28337139 Ry
     estimated scf accuracy    <          2.8E-18 Ry

     convergence has been achieved in  38 iterations
     charge density from previous step

     total cpu time spent up to now is        8.0 secs

     Self-consistent Calculation

     iteration #  1     ecut=    80.00 Ry     beta= 0.70
     Davidson diagonalization with overlap
     ethr =  1.00E-03,  avg # of iterations = 18.0

     total cpu time spent up to now is        8.4 secs

     total energy              =     -36.08045154 Ry
     estimated scf accuracy    <      23.97479804 Ry

     iteration #  2     ecut=    80.00 Ry     beta= 0.70
     Davidson diagonalization with overlap
     ethr =  1.00E-02,  avg # of iterations =  4.0

     negative rho (up, down):  4.834E-01 0.000E+00

     total cpu time spent up to now is        8.6 secs

     total energy              =     -30.85901369 Ry
     estimated scf accuracy    <       9.04362837 Ry

     iteration #  3     ecut=    80.00 Ry     beta= 0.70
     Davidson diagonalization with overlap
     ethr =  1.00E-02,  avg # of iterations =  9.0

     total cpu time spent up to now is        8.8 secs

     total energy              =     -26.13870120 Ry
     estimated scf accuracy    <      41.58975225 Ry

     iteration #  4     ecut=    80.00 Ry     beta= 0.70
     Davidson diagonalization with overlap
     ethr =  1.00E-02,  avg # of iterations =  9.0

     total cpu time spent up to now is        9.0 secs

     total energy              =     -34.17078574 Ry
     estimated scf accuracy    <       0.85758337 Ry

     iteration #  5     ecut=    80.00 Ry     beta= 0.70
     Davidson diagonalization with overlap
     ethr =  1.00E-02,  avg # of iterations =  2.0

     total cpu time spent up to now is        9.2 secs

     total energy              =     -34.57406541 Ry
     estimated scf accuracy    <       0.97286690 Ry

     iteration #  6     ecut=    80.00 Ry     beta= 0.70
     Davidson diagonalization with overlap
     ethr =  1.00E-02,  avg # of iterations =  1.0

     total cpu time spent up to now is        9.4 secs

     total energy              =     -34.57081295 Ry
     estimated scf accuracy    <       1.15447081 Ry

     iteration #  7     ecut=    80.00 Ry     beta= 0.70
     Davidson diagonalization with overlap
     ethr =  1.00E-02,  avg # of iterations =  1.0

     total cpu time spent up to now is        9.6 secs

     total energy              =     -34.57831096 Ry
     estimated scf accuracy    <       1.16118870 Ry

     iteration #  8     ecut=    80.00 Ry     beta= 0.70
     Davidson diagonalization with overlap
     ethr =  1.00E-02,  avg # of iterations =  1.0

     total cpu time spent up to now is        9.7 secs

     total energy              =     -34.49495194 Ry
     estimated scf accuracy    <       1.22719280 Ry

     iteration #  9     ecut=    80.00 Ry     beta= 0.70
     Davidson diagonalization with overlap
     ethr =  1.00E-02,  avg # of iterations =  1.0

     total cpu time spent up to now is        9.9 secs

     total energy              =     -34.32551725 Ry
     estimated scf accuracy    <       1.01317555 Ry

     iteration # 10     ecut=    80.00 Ry     beta= 0.70
     Davidson diagonalization with overlap
     ethr =  1.00E-02,  avg # of iterations =  1.0

     negative rho (up, down):  2.719E-01 0.000E+00

     total cpu time spent up to now is       10.1 secs

     total energy              =     -34.17205885 Ry
     estimated scf accuracy    <       0.39488306 Ry

     iteration # 11     ecut=    80.00 Ry     beta= 0.70
     Davidson diagonalization with overlap
     ethr =  4.94E-03,  avg # of iterations =  2.0

     negative rho (up, down):  2.701E-01 0.000E+00

     total cpu time spent up to now is       10.3 secs

     total energy              =     -34.31437213 Ry
     estimated scf accuracy    <       0.11194283 Ry

     iteration # 12     ecut=    80.00 Ry     beta= 0.70
     Davidson diagonalization with overlap
     ethr =  1.40E-03,  avg # of iterations =  1.0

     negative rho (up, down):  3.285E-03 0.000E+00

     total cpu time spent up to now is       10.5 secs

     total energy              =     -34.25659785 Ry
     estimated scf accuracy    <       0.10946679 Ry

     iteration # 13     ecut=    80.00 Ry     beta= 0.70
     Davidson diagonalization with overlap
     ethr =  1.37E-03,  avg # of iterations =  1.0

     negative rho (up, down):  3.490E-03 0.000E+00

     total cpu time spent up to now is       10.6 secs

     total energy              =     -34.26059420 Ry
     estimated scf accuracy    <       0.02094409 Ry

     iteration # 14     ecut=    80.00 Ry     beta= 0.70
     Davidson diagonalization with overlap
     ethr =  2.62E-04,  avg # of iterations =  2.0

     negative rho (up, down):  1.999E-03 0.000E+00

     total cpu time spent up to now is       10.8 secs

     total energy              =     -34.26237545 Ry
     estimated scf accuracy    <       0.00706166 Ry

     iteration # 15     ecut=    80.00 Ry     beta= 0.70
     Davidson diagonalization with overlap
     ethr =  8.83E-05,  avg # of iterations =  1.0

     negative rho (up, down):  3.113E-03 0.000E+00

     total cpu time spent up to now is       11.0 secs

     total energy              =     -34.26297916 Ry
     estimated scf accuracy    <       0.00370517 Ry

     iteration # 16     ecut=    80.00 Ry     beta= 0.70
     Davidson diagonalization with overlap
     ethr =  4.63E-05,  avg # of iterations =  1.0

     negative rho (up, down):  1.445E-04 0.000E+00

     total cpu time spent up to now is       11.2 secs

     total energy              =     -34.26261846 Ry
     estimated scf accuracy    <       0.00467622 Ry

     iteration # 17     ecut=    80.00 Ry     beta= 0.70
     Davidson diagonalization with overlap
     ethr =  4.63E-05,  avg # of iterations =  2.0

     negative rho (up, down):  2.928E-05 0.000E+00

     total cpu time spent up to now is       11.3 secs

     total energy              =     -34.26302654 Ry
     estimated scf accuracy    <       0.00034800 Ry

     iteration # 18     ecut=    80.00 Ry     beta= 0.70
     Davidson diagonalization with overlap
     ethr =  4.35E-06,  avg # of iterations =  4.0

     negative rho (up, down):  7.130E-06 0.000E+00

     total cpu time spent up to now is       11.5 secs

     total energy              =     -34.26319378 Ry
     estimated scf accuracy    <       0.00028700 Ry

     iteration # 19     ecut=    80.00 Ry     beta= 0.70
     Davidson diagonalization with overlap
     ethr =  3.59E-06,  avg # of iterations =  2.0

     negative rho (up, down):  2.495E-07 0.000E+00

     total cpu time spent up to now is       11.7 secs

     total energy              =     -34.26323504 Ry
     estimated scf accuracy    <       0.00000849 Ry

     iteration # 20     ecut=    80.00 Ry     beta= 0.70
     Davidson diagonalization with overlap
     ethr =  1.06E-07,  avg # of iterations =  4.0

     total cpu time spent up to now is       11.9 secs

     total energy              =     -34.26323844 Ry
     estimated scf accuracy    <       0.00000040 Ry

     iteration # 21     ecut=    80.00 Ry     beta= 0.70
     Davidson diagonalization with overlap
     ethr =  5.02E-09,  avg # of iterations =  3.0

     total cpu time spent up to now is       12.1 secs

     total energy              =     -34.26323867 Ry
     estimated scf accuracy    <       0.00000168 Ry

     iteration # 22     ecut=    80.00 Ry     beta= 0.70
     Davidson diagonalization with overlap
     ethr =  5.02E-09,  avg # of iterations =  1.0

     total cpu time spent up to now is       12.2 secs

     total energy              =     -34.26323861 Ry
     estimated scf accuracy    <       0.00000116 Ry

     iteration # 23     ecut=    80.00 Ry     beta= 0.70
     Davidson diagonalization with overlap
     ethr =  5.02E-09,  avg # of iterations =  1.0

     total cpu time spent up to now is       12.4 secs

     total energy              =     -34.26323848 Ry
     estimated scf accuracy    <       0.00000088 Ry

     iteration # 24     ecut=    80.00 Ry     beta= 0.70
     Davidson diagonalization with overlap
     ethr =  5.02E-09,  avg # of iterations =  1.0

     total cpu time spent up to now is       12.6 secs

     total energy              =     -34.26323836 Ry
     estimated scf accuracy    <       0.00000038 Ry

     iteration # 25     ecut=    80.00 Ry     beta= 0.70
     Davidson diagonalization with overlap
     ethr =  4.78E-09,  avg # of iterations =  2.0

     total cpu time spent up to now is       12.7 secs

     total energy              =     -34.26323843 Ry
     estimated scf accuracy    <       0.00000001 Ry

     iteration # 26     ecut=    80.00 Ry     beta= 0.70
     Davidson diagonalization with overlap
     ethr =  1.34E-10,  avg # of iterations =  3.0

     total cpu time spent up to now is       12.9 secs

     total energy              =     -34.26323844 Ry
     estimated scf accuracy    <          1.4E-10 Ry

     iteration # 27     ecut=    80.00 Ry     beta= 0.70
     Davidson diagonalization with overlap
     ethr =  1.75E-12,  avg # of iterations =  5.0

     total cpu time spent up to now is       13.1 secs

     total energy              =     -34.26323844 Ry
     estimated scf accuracy    <          1.7E-10 Ry

     iteration # 28     ecut=    80.00 Ry     beta= 0.70
     Davidson diagonalization with overlap
     ethr =  1.75E-12,  avg # of iterations =  2.0

     total cpu time spent up to now is       13.3 secs

     total energy              =     -34.26323844 Ry
     estimated scf accuracy    <          7.0E-12 Ry

     iteration # 29     ecut=    80.00 Ry     beta= 0.70
     Davidson diagonalization with overlap
     ethr =  1.00E-13,  avg # of iterations =  4.0

     total cpu time spent up to now is       13.5 secs

     total energy              =     -34.26323844 Ry
     estimated scf accuracy    <          1.2E-11 Ry

     iteration # 30     ecut=    80.00 Ry     beta= 0.70
     Davidson diagonalization with overlap
     ethr =  1.00E-13,  avg # of iterations =  2.0

     total cpu time spent up to now is       13.7 secs

     total energy              =     -34.26323844 Ry
     estimated scf accuracy    <          1.4E-13 Ry

     iteration # 31     ecut=    80.00 Ry     beta= 0.70
     Davidson diagonalization with overlap
     ethr =  1.00E-13,  avg # of iterations =  1.0

     total cpu time spent up to now is       13.8 secs

     total energy              =     -34.26323844 Ry
     estimated scf accuracy    <          9.9E-15 Ry

     iteration # 32     ecut=    80.00 Ry     beta= 0.70
     Davidson diagonalization with overlap
     ethr =  1.00E-13,  avg # of iterations =  1.0

     total cpu time spent up to now is       14.0 secs

     total energy              =     -34.26323844 Ry
     estimated scf accuracy    <          1.1E-14 Ry

     iteration # 33     ecut=    80.00 Ry     beta= 0.70
     Davidson diagonalization with overlap
     ethr =  1.00E-13,  avg # of iterations =  1.0

     total cpu time spent up to now is       14.2 secs

     total energy              =     -34.26323844 Ry
     estimated scf accuracy    <          5.4E-15 Ry

     iteration # 34     ecut=    80.00 Ry     beta= 0.70
     Davidson diagonalization with overlap
     ethr =  1.00E-13,  avg # of iterations =  1.0

     total cpu time spent up to now is       14.3 secs

     total energy              =     -34.26323844 Ry
     estimated scf accuracy    <          1.3E-15 Ry

     iteration # 35     ecut=    80.00 Ry     beta= 0.70
     Davidson diagonalization with overlap
     ethr =  1.00E-13,  avg # of iterations =  1.0

     total cpu time spent up to now is       14.5 secs

     total energy              =     -34.26323844 Ry
     estimated scf accuracy    <          2.9E-16 Ry

     iteration # 36     ecut=    80.00 Ry     beta= 0.70
     Davidson diagonalization with overlap
     ethr =  1.00E-13,  avg # of iterations =  1.0

     total cpu time spent up to now is       14.7 secs

     total energy              =     -34.26323844 Ry
     estimated scf accuracy    <          1.8E-16 Ry

     iteration # 37     ecut=    80.00 Ry     beta= 0.70
     Davidson diagonalization with overlap
     ethr =  1.00E-13,  avg # of iterations =  1.0

     total cpu time spent up to now is       14.8 secs

     total energy              =     -34.26323844 Ry
     estimated scf accuracy    <          5.0E-17 Ry

     iteration # 38     ecut=    80.00 Ry     beta= 0.70
     Davidson diagonalization with overlap
     ethr =  1.00E-13,  avg # of iterations =  1.0

     total cpu time spent up to now is       15.0 secs

     total energy              =     -34.26323844 Ry
     estimated scf accuracy    <          2.1E-17 Ry

     iteration # 39     ecut=    80.00 Ry     beta= 0.70
     Davidson diagonalization with overlap
     ethr =  1.00E-13,  avg # of iterations =  1.0

     total cpu time spent up to now is       15.1 secs

     End of self-consistent calculation

          k = 0.0000 0.0000 0.0000 (  6027 PWs)   bands (ev):

   -22.6104 -10.3601  -8.2348  -5.8889

     highest occupied level (ev):    -5.8889

!    total energy              =     -34.26323844 Ry
     estimated scf accuracy    <          2.6E-18 Ry

     convergence has been achieved in  39 iterations
 ROUTINE_ZERO BEGINNING
 check_charge   3.9999999999999996     
     zero_current :      0.07s CPU      0.07s WALL (       1 calls)
 ZERO CURRENT CALCULATED
     routine_zero :      0.07s CPU      0.07s WALL (       1 calls)
     calcolo_i    :      0.00s CPU      0.00s WALL (       1 calls)
 IONIC CURRENT CALCULATED
 BEGIN: HARTREE & KOHN
 check_charge   3.9999999999999996     
 check_charge   4.0000000000000311     
     hartree_curr :      0.05s CPU      0.05s WALL (       1 calls)
 HARTREE CURRENT CALCULATED
     xc_current   :      0.03s CPU      0.03s WALL (       1 calls)
 X-C CURRENT CALCULATED
     charge density from previous step
     project      :      0.31s CPU      0.35s WALL (       1 calls)
     kohn-first   :      0.00s CPU      0.00s WALL (       1 calls)
     kohn-second  :      0.00s CPU      0.00s WALL (       1 calls)
  KOHN POLARIZATION   1 COMPLETED
     project      :      0.58s CPU      0.65s WALL (       2 calls)
     kohn-first   :      0.00s CPU      0.00s WALL (       2 calls)
     kohn-second  :      0.00s CPU      0.00s WALL (       2 calls)
  KOHN POLARIZATION   2 COMPLETED
     project      :      0.86s CPU      0.95s WALL (       3 calls)
     kohn-first   :      0.00s CPU      0.00s WALL (       3 calls)
     kohn-second  :      0.00s CPU      0.00s WALL (       3 calls)
  KOHN POLARIZATION   3 COMPLETED
     kohn_current :      1.00s CPU      1.11s WALL (       1 calls)
 KOHN CURRENT CALCULATED
total energy current:   0.169155750595E+00  0.494736595459E-01 -0.412041391199E+00
center of mass velocity of type   1:   0.216571054201E-01  0.250280869520E-01 -0.478096489241E-01
center of mass velocity of type   2:  -0.270713817752E-02 -0.312851086900E-02  0.597620611552E-02
 REPETITION            1
     charge density from previous step

     total cpu time spent up to now is       16.6 secs

     Self-consistent Calculation

     iteration #  1     ecut=    80.00 Ry     beta= 0.70
     Davidson diagonalization with overlap
     ethr =  1.00E-03,  avg # of iterations = 13.0

     total cpu time spent up to now is       16.9 secs

     total energy              =     -36.11406730 Ry
     estimated scf accuracy    <      24.06699417 Ry

     iteration #  2     ecut=    80.00 Ry     beta= 0.70
     Davidson diagonalization with overlap
     ethr =  1.00E-02,  avg # of iterations =  4.0

     negative rho (up, down):  5.147E-01 0.000E+00

     total cpu time spent up to now is       17.1 secs

     total energy              =     -31.19247212 Ry
     estimated scf accuracy    <       8.36894439 Ry

     iteration #  3     ecut=    80.00 Ry     beta= 0.70
     Davidson diagonalization with overlap
     ethr =  1.00E-02,  avg # of iterations =  9.0

     total cpu time spent up to now is       17.4 secs

     total energy              =     -25.91182406 Ry
     estimated scf accuracy    <      41.38940798 Ry

     iteration #  4     ecut=    80.00 Ry     beta= 0.70
     Davidson diagonalization with overlap
     ethr =  1.00E-02,  avg # of iterations =  9.0

     total cpu time spent up to now is       17.6 secs

     total energy              =     -34.15620382 Ry
     estimated scf accuracy    <       0.91859594 Ry

     iteration #  5     ecut=    80.00 Ry     beta= 0.70
     Davidson diagonalization with overlap
     ethr =  1.00E-02,  avg # of iterations =  2.0

     total cpu time spent up to now is       17.8 secs

     total energy              =     -34.56682142 Ry
     estimated scf accuracy    <       0.85977050 Ry

     iteration #  6     ecut=    80.00 Ry     beta= 0.70
     Davidson diagonalization with overlap
     ethr =  1.00E-02,  avg # of iterations =  1.0

     total cpu time spent up to now is       18.0 secs

     total energy              =     -34.56957023 Ry
     estimated scf accuracy    <       1.03387392 Ry

     iteration #  7     ecut=    80.00 Ry     beta= 0.70
     Davidson diagonalization with overlap
     ethr =  1.00E-02,  avg # of iterations =  1.0

     total cpu time spent up to now is       18.1 secs

     total energy              =     -34.57480302 Ry
     estimated scf accuracy    <       1.05348065 Ry

     iteration #  8     ecut=    80.00 Ry     beta= 0.70
     Davidson diagonalization with overlap
     ethr =  1.00E-02,  avg # of iterations =  1.0

     total cpu time spent up to now is       18.3 secs

     total energy              =     -34.57598463 Ry
     estimated scf accuracy    <       1.10442263 Ry

     iteration #  9     ecut=    80.00 Ry     beta= 0.70
     Davidson diagonalization with overlap
     ethr =  1.00E-02,  avg # of iterations =  1.0

     total cpu time spent up to now is       18.5 secs

     total energy              =     -34.64190148 Ry
     estimated scf accuracy    <       1.12556151 Ry

     iteration # 10     ecut=    80.00 Ry     beta= 0.70
     Davidson diagonalization with overlap
     ethr =  1.00E-02,  avg # of iterations =  1.0

     negative rho (up, down):  3.517E-01 0.000E+00

     total cpu time spent up to now is       18.7 secs

     total energy              =     -33.97088268 Ry
     estimated scf accuracy    <       1.38788361 Ry

     iteration # 11     ecut=    80.00 Ry     beta= 0.70
     Davidson diagonalization with overlap
     ethr =  1.00E-02,  avg # of iterations =  2.0

     negative rho (up, down):  5.208E-01 0.000E+00

     total cpu time spent up to now is       18.8 secs

     total energy              =     -34.41120603 Ry
     estimated scf accuracy    <       0.13404578 Ry

     iteration # 12     ecut=    80.00 Ry     beta= 0.70
     Davidson diagonalization with overlap
     ethr =  1.68E-03,  avg # of iterations =  2.0

     negative rho (up, down):  1.676E-03 0.000E+00

     total cpu time spent up to now is       19.0 secs

     total energy              =     -34.25569266 Ry
     estimated scf accuracy    <       0.24403925 Ry

     iteration # 13     ecut=    80.00 Ry     beta= 0.70
     Davidson diagonalization with overlap
     ethr =  1.68E-03,  avg # of iterations =  2.0

     negative rho (up, down):  5.108E-04 0.000E+00

     total cpu time spent up to now is       19.2 secs

     total energy              =     -34.28287425 Ry
     estimated scf accuracy    <       0.00511017 Ry

     iteration # 14     ecut=    80.00 Ry     beta= 0.70
     Davidson diagonalization with overlap
     ethr =  6.39E-05,  avg # of iterations =  3.0

     negative rho (up, down):  5.681E-04 0.000E+00

     total cpu time spent up to now is       19.4 secs

     total energy              =     -34.28401900 Ry
     estimated scf accuracy    <       0.00230002 Ry

     iteration # 15     ecut=    80.00 Ry     beta= 0.70
     Davidson diagonalization with overlap
     ethr =  2.88E-05,  avg # of iterations =  1.0

     negative rho (up, down):  6.918E-04 0.000E+00

     total cpu time spent up to now is       19.5 secs

     total energy              =     -34.28444299 Ry
     estimated scf accuracy    <       0.00215012 Ry

     iteration # 16     ecut=    80.00 Ry     beta= 0.70
     Davidson diagonalization with overlap
     ethr =  2.69E-05,  avg # of iterations =  1.0

     negative rho (up, down):  5.271E-04 0.000E+00

     total cpu time spent up to now is       19.7 secs

     total energy              =     -34.28458710 Ry
     estimated scf accuracy    <       0.00314541 Ry

     iteration # 17     ecut=    80.00 Ry     beta= 0.70
     Davidson diagonalization with overlap
     ethr =  2.69E-05,  avg # of iterations =  2.0

     negative rho (up, down):  1.372E-03 0.000E+00

     total cpu time spent up to now is       19.9 secs

     total energy              =     -34.28406517 Ry
     estimated scf accuracy    <       0.00400973 Ry

     iteration # 18     ecut=    80.00 Ry     beta= 0.70
     Davidson diagonalization with overlap
     ethr =  2.69E-05,  avg # of iterations =  2.0

     negative rho (up, down):  5.347E-04 0.000E+00

     total cpu time spent up to now is       20.1 secs

     total energy              =     -34.28365105 Ry
     estimated scf accuracy    <       0.00272547 Ry

     iteration # 19     ecut=    80.00 Ry     beta= 0.70
     Davidson diagonalization with overlap
     ethr =  2.69E-05,  avg # of iterations =  3.0

     total cpu time spent up to now is       20.3 secs

     total energy              =     -34.28346544 Ry
     estimated scf accuracy    <       0.00980970 Ry

     iteration # 20     ecut=    80.00 Ry     beta= 0.70
     Davidson diagonalization with overlap
     ethr =  2.69E-05,  avg # of iterations =  2.0

     negative rho (up, down):  2.081E-07 0.000E+00

     total cpu time spent up to now is       20.4 secs

     total energy              =     -34.28300785 Ry
     estimated scf accuracy    <       0.00275585 Ry

     iteration # 21     ecut=    80.00 Ry     beta= 0.70
     Davidson diagonalization with overlap
     ethr =  2.69E-05,  avg # of iterations =  2.0

     negative rho (up, down):  4.336E-07 0.000E+00

     total cpu time spent up to now is       20.6 secs

     total energy              =     -34.28332903 Ry
     estimated scf accuracy    <       0.00014719 Ry

     iteration # 22     ecut=    80.00 Ry     beta= 0.70
     Davidson diagonalization with overlap
     ethr =  1.84E-06,  avg # of iterations =  2.0

     negative rho (up, down):  1.249E-08 0.000E+00

     total cpu time spent up to now is       20.8 secs

     total energy              =     -34.28336818 Ry
     estimated scf accuracy    <       0.00000325 Ry

     iteration # 23     ecut=    80.00 Ry     beta= 0.70
     Davidson diagonalization with overlap
     ethr =  4.07E-08,  avg # of iterations =  4.0

     total cpu time spent up to now is       21.0 secs

     total energy              =     -34.28336875 Ry
     estimated scf accuracy    <       0.00002385 Ry

     iteration # 24     ecut=    80.00 Ry     beta= 0.70
     Davidson diagonalization with overlap
     ethr =  4.07E-08,  avg # of iterations =  3.0

     total cpu time spent up to now is       21.2 secs

     total energy              =     -34.28337100 Ry
     estimated scf accuracy    <       0.00000104 Ry

     iteration # 25     ecut=    80.00 Ry     beta= 0.70
     Davidson diagonalization with overlap
     ethr =  1.31E-08,  avg # of iterations =  3.0

     total cpu time spent up to now is       21.4 secs

     total energy              =     -34.28337136 Ry
     estimated scf accuracy    <       0.00000018 Ry

     iteration # 26     ecut=    80.00 Ry     beta= 0.70
     Davidson diagonalization with overlap
     ethr =  2.31E-09,  avg # of iterations =  2.0

     total cpu time spent up to now is       21.5 secs

     total energy              =     -34.28337139 Ry
     estimated scf accuracy    <          4.3E-09 Ry

     iteration # 27     ecut=    80.00 Ry     beta= 0.70
     Davidson diagonalization with overlap
     ethr =  5.32E-11,  avg # of iterations =  4.0

     total cpu time spent up to now is       21.7 secs

     total energy              =     -34.28337139 Ry
     estimated scf accuracy    <          7.4E-09 Ry

     iteration # 28     ecut=    80.00 Ry     beta= 0.70
     Davidson diagonalization with overlap
     ethr =  5.32E-11,  avg # of iterations =  2.0

     total cpu time spent up to now is       21.9 secs

     total energy              =     -34.28337139 Ry
     estimated scf accuracy    <          7.3E-10 Ry

     iteration # 29     ecut=    80.00 Ry     beta= 0.70
     Davidson diagonalization with overlap
     ethr =  9.10E-12,  avg # of iterations =  2.0

     total cpu time spent up to now is       22.1 secs

     total energy              =     -34.28337139 Ry
     estimated scf accuracy    <          6.7E-12 Ry

     iteration # 30     ecut=    80.00 Ry     beta= 0.70
     Davidson diagonalization with overlap
     ethr =  1.00E-13,  avg # of iterations =  5.0

     total cpu time spent up to now is       22.3 secs

     total energy              =     -34.28337139 Ry
     estimated scf accuracy    <          2.3E-11 Ry

     iteration # 31     ecut=    80.00 Ry     beta= 0.70
     Davidson diagonalization with overlap
     ethr =  1.00E-13,  avg # of iterations =  2.0

     total cpu time spent up to now is       22.5 secs

     total energy              =     -34.28337139 Ry
     estimated scf accuracy    <          4.2E-13 Ry

     iteration # 32     ecut=    80.00 Ry     beta= 0.70
     Davidson diagonalization with overlap
     ethr =  1.00E-13,  avg # of iterations =  1.0

     total cpu time spent up to now is       22.6 secs

     total energy              =     -34.28337139 Ry
     estimated scf accuracy    <          4.9E-14 Ry

     iteration # 33     ecut=    80.00 Ry     beta= 0.70
     Davidson diagonalization with overlap
     ethr =  1.00E-13,  avg # of iterations =  1.0

     total cpu time spent up to now is       22.8 secs

     total energy              =     -34.28337139 Ry
     estimated scf accuracy    <          1.3E-15 Ry

     iteration # 34     ecut=    80.00 Ry     beta= 0.70
     Davidson diagonalization with overlap
     ethr =  1.00E-13,  avg # of iterations =  1.0

     total cpu time spent up to now is       23.0 secs

     total energy              =     -34.28337139 Ry
     estimated scf accuracy    <          8.2E-16 Ry

     iteration # 35     ecut=    80.00 Ry     beta= 0.70
     Davidson diagonalization with overlap
     ethr =  1.00E-13,  avg # of iterations =  1.0

     total cpu time spent up to now is       23.1 secs

     total energy              =     -34.28337139 Ry
     estimated scf accuracy    <          8.4E-15 Ry

     iteration # 36     ecut=    80.00 Ry     beta= 0.70
     Davidson diagonalization with overlap
     ethr =  1.00E-13,  avg # of iterations =  1.0

     total cpu time spent up to now is       23.3 secs

     total energy              =     -34.28337139 Ry
     estimated scf accuracy    <          8.4E-15 Ry

     iteration # 37     ecut=    80.00 Ry     beta= 0.70
     Davidson diagonalization with overlap
     ethr =  1.00E-13,  avg # of iterations =  1.0

     total cpu time spent up to now is       23.5 secs

     total energy              =     -34.28337139 Ry
     estimated scf accuracy    <          4.6E-15 Ry

     iteration # 38     ecut=    80.00 Ry     beta= 0.70
     Davidson diagonalization with overlap
     ethr =  1.00E-13,  avg # of iterations =  1.0

     total cpu time spent up to now is       23.6 secs

     total energy              =     -34.28337139 Ry
     estimated scf accuracy    <          5.6E-16 Ry

     iteration # 39     ecut=    80.00 Ry     beta= 0.70
     Davidson diagonalization with overlap
     ethr =  1.00E-13,  avg # of iterations =  1.0

     total cpu time spent up to now is       23.8 secs

     End of self-consistent calculation

          k = 0.0000 0.0000 0.0000 (  6027 PWs)   bands (ev):

   -22.7962 -10.5678  -8.2574  -5.9287

     highest occupied level (ev):    -5.9287

!    total energy              =     -34.28337139 Ry
     estimated scf accuracy    <          9.4E-18 Ry

     convergence has been achieved in  39 iterations
     charge density from previous step

     total cpu time spent up to now is       23.9 secs

     Self-consistent Calculation

     iteration #  1     ecut=    80.00 Ry     beta= 0.70
     Davidson diagonalization with overlap
     ethr =  1.00E-03,  avg # of iterations = 15.0

     total cpu time spent up to now is       24.3 secs

     total energy              =     -35.95156176 Ry
     estimated scf accuracy    <      22.37640479 Ry

     iteration #  2     ecut=    80.00 Ry     beta= 0.70
     Davidson diagonalization with overlap
     ethr =  1.00E-02,  avg # of iterations =  4.0

     negative rho (up, down):  4.647E-01 0.000E+00

     total cpu time spent up to now is       24.5 secs

     total energy              =     -30.95922374 Ry
     estimated scf accuracy    <       8.67579328 Ry

     iteration #  3     ecut=    80.00 Ry     beta= 0.70
     Davidson diagonalization with overlap
     ethr =  1.00E-02,  avg # of iterations =  9.0

     total cpu time spent up to now is       24.7 secs

     total energy              =     -26.14259934 Ry
     estimated scf accuracy    <      41.00365138 Ry

     iteration #  4     ecut=    80.00 Ry     beta= 0.70
     Davidson diagonalization with overlap
     ethr =  1.00E-02,  avg # of iterations =  9.0

     total cpu time spent up to now is       24.9 secs

     total energy              =     -34.14705235 Ry
     estimated scf accuracy    <       0.87514441 Ry

     iteration #  5     ecut=    80.00 Ry     beta= 0.70
     Davidson diagonalization with overlap
     ethr =  1.00E-02,  avg # of iterations =  2.0

     total cpu time spent up to now is       25.1 secs

     total energy              =     -34.56015121 Ry
     estimated scf accuracy    <       0.92453372 Ry

     iteration #  6     ecut=    80.00 Ry     beta= 0.70
     Davidson diagonalization with overlap
     ethr =  1.00E-02,  avg # of iterations =  1.0

     negative rho (up, down):  1.737E-08 0.000E+00

     total cpu time spent up to now is       25.3 secs

     total energy              =     -34.55359504 Ry
     estimated scf accuracy    <       1.10469402 Ry

     iteration #  7     ecut=    80.00 Ry     beta= 0.70
     Davidson diagonalization with overlap
     ethr =  1.00E-02,  avg # of iterations =  1.0

     total cpu time spent up to now is       25.5 secs

     total energy              =     -34.56083982 Ry
     estimated scf accuracy    <       1.09902258 Ry

     iteration #  8     ecut=    80.00 Ry     beta= 0.70
     Davidson diagonalization with overlap
     ethr =  1.00E-02,  avg # of iterations =  1.0

     total cpu time spent up to now is       25.6 secs

     total energy              =     -34.49307189 Ry
     estimated scf accuracy    <       1.16265768 Ry

     iteration #  9     ecut=    80.00 Ry     beta= 0.70
     Davidson diagonalization with overlap
     ethr =  1.00E-02,  avg # of iterations =  1.0

     total cpu time spent up to now is       25.8 secs

     total energy              =     -34.35878312 Ry
     estimated scf accuracy    <       0.98956720 Ry

     iteration # 10     ecut=    80.00 Ry     beta= 0.70
     Davidson diagonalization with overlap
     ethr =  1.00E-02,  avg # of iterations =  1.0

     negative rho (up, down):  2.454E-01 0.000E+00

     total cpu time spent up to now is       26.0 secs

     total energy              =     -34.15501919 Ry
     estimated scf accuracy    <       0.49121445 Ry

     iteration # 11     ecut=    80.00 Ry     beta= 0.70
     Davidson diagonalization with overlap
     ethr =  6.14E-03,  avg # of iterations =  2.0

     negative rho (up, down):  2.919E-01 0.000E+00

     total cpu time spent up to now is       26.2 secs

     total energy              =     -34.31781654 Ry
     estimated scf accuracy    <       0.07822601 Ry

     iteration # 12     ecut=    80.00 Ry     beta= 0.70
     Davidson diagonalization with overlap
     ethr =  9.78E-04,  avg # of iterations =  1.0

     negative rho (up, down):  4.207E-03 0.000E+00

     total cpu time spent up to now is       26.3 secs

     total energy              =     -34.26374833 Ry
     estimated scf accuracy    <       0.10780076 Ry

     iteration # 13     ecut=    80.00 Ry     beta= 0.70
     Davidson diagonalization with overlap
     ethr =  9.78E-04,  avg # of iterations =  1.0

     negative rho (up, down):  5.477E-03 0.000E+00

     total cpu time spent up to now is       26.5 secs

     total energy              =     -34.26172358 Ry
     estimated scf accuracy    <       0.03941112 Ry

     iteration # 14     ecut=    80.00 Ry     beta= 0.70
     Davidson diagonalization with overlap
     ethr =  4.93E-04,  avg # of iterations =  1.0

     negative rho (up, down):  3.896E-03 0.000E+00

     total cpu time spent up to now is       26.7 secs

     total energy              =     -34.26277040 Ry
     estimated scf accuracy    <       0.01459539 Ry

     iteration # 15     ecut=    80.00 Ry     beta= 0.70
     Davidson diagonalization with overlap
     ethr =  1.82E-04,  avg # of iterations =  1.0

     negative rho (up, down):  4.757E-03 0.000E+00

     total cpu time spent up to now is       26.9 secs

     total energy              =     -34.26386013 Ry
     estimated scf accuracy    <       0.01006252 Ry

     iteration # 16     ecut=    80.00 Ry     beta= 0.70
     Davidson diagonalization with overlap
     ethr =  1.26E-04,  avg # of iterations =  1.0

     negative rho (up, down):  6.892E-04 0.000E+00

     total cpu time spent up to now is       27.0 secs

     total energy              =     -34.26143806 Ry
     estimated scf accuracy    <       0.01061618 Ry

     iteration # 17     ecut=    80.00 Ry     beta= 0.70
     Davidson diagonalization with overlap
     ethr =  1.26E-04,  avg # of iterations =  2.0

     negative rho (up, down):  5.567E-05 0.000E+00

     total cpu time spent up to now is       27.2 secs

     total energy              =     -34.26306696 Ry
     estimated scf accuracy    <       0.00074994 Ry

     iteration # 18     ecut=    80.00 Ry     beta= 0.70
     Davidson diagonalization with overlap
     ethr =  9.37E-06,  avg # of iterations =  3.0

     negative rho (up, down):  4.230E-05 0.000E+00

     total cpu time spent up to now is       27.4 secs

     total energy              =     -34.26322574 Ry
     estimated scf accuracy    <       0.00005994 Ry

     iteration # 19     ecut=    80.00 Ry     beta= 0.70
     Davidson diagonalization with overlap
     ethr =  7.49E-07,  avg # of iterations =  3.0

     negative rho (up, down):  1.543E-06 0.000E+00

     total cpu time spent up to now is       27.6 secs

     total energy              =     -34.26323812 Ry
     estimated scf accuracy    <       0.00001527 Ry

     iteration # 20     ecut=    80.00 Ry     beta= 0.70
     Davidson diagonalization with overlap
     ethr =  1.91E-07,  avg # of iterations =  1.0

     negative rho (up, down):  4.952E-07 0.000E+00

     total cpu time spent up to now is       27.7 secs

     total energy              =     -34.26323775 Ry
     estimated scf accuracy    <       0.00000562 Ry

     iteration # 21     ecut=    80.00 Ry     beta= 0.70
     Davidson diagonalization with overlap
     ethr =  7.03E-08,  avg # of iterations =  2.0

     total cpu time spent up to now is       27.9 secs

     total energy              =     -34.26323818 Ry
     estimated scf accuracy    <       0.00000130 Ry

     iteration # 22     ecut=    80.00 Ry     beta= 0.70
     Davidson diagonalization with overlap
     ethr =  1.63E-08,  avg # of iterations =  2.0

     total cpu time spent up to now is       28.1 secs

     total energy              =     -34.26323840 Ry
     estimated scf accuracy    <       0.00000014 Ry

     iteration # 23     ecut=    80.00 Ry     beta= 0.70
     Davidson diagonalization with overlap
     ethr =  1.74E-09,  avg # of iterations =  2.0

     total cpu time spent up to now is       28.3 secs

     total energy              =     -34.26323843 Ry
     estimated scf accuracy    <       0.00000001 Ry

     iteration # 24     ecut=    80.00 Ry     beta= 0.70
     Davidson diagonalization with overlap
     ethr =  1.36E-10,  avg # of iterations =  4.0

     total cpu time spent up to now is       28.5 secs

     total energy              =     -34.26323843 Ry
     estimated scf accuracy    <          2.0E-09 Ry

     iteration # 25     ecut=    80.00 Ry     beta= 0.70
     Davidson diagonalization with overlap
     ethr =  2.45E-11,  avg # of iterations =  1.0

     total cpu time spent up to now is       28.6 secs

     total energy              =     -34.26323844 Ry
     estimated scf accuracy    <          9.2E-10 Ry

     iteration # 26     ecut=    80.00 Ry     beta= 0.70
     Davidson diagonalization with overlap
     ethr =  1.15E-11,  avg # of iterations =  2.0

     total cpu time spent up to now is       28.8 secs

     total energy              =     -34.26323844 Ry
     estimated scf accuracy    <          1.5E-10 Ry

     iteration # 27     ecut=    80.00 Ry     beta= 0.70
     Davidson diagonalization with overlap
     ethr =  1.82E-12,  avg # of iterations =  3.0

     total cpu time spent up to now is       29.0 secs

     total energy              =     -34.26323844 Ry
     estimated scf accuracy    <          3.7E-12 Ry

     iteration # 28     ecut=    80.00 Ry     beta= 0.70
     Davidson diagonalization with overlap
     ethr =  1.00E-13,  avg # of iterations =  2.0

     total cpu time spent up to now is       29.2 secs

     total energy              =     -34.26323844 Ry
     estimated scf accuracy    <          3.8E-12 Ry

     iteration # 29     ecut=    80.00 Ry     beta= 0.70
     Davidson diagonalization with overlap
     ethr =  1.00E-13,  avg # of iterations =  1.0

     total cpu time spent up to now is       29.3 secs

     total energy              =     -34.26323844 Ry
     estimated scf accuracy    <          7.2E-13 Ry

     iteration # 30     ecut=    80.00 Ry     beta= 0.70
     Davidson diagonalization with overlap
     ethr =  1.00E-13,  avg # of iterations =  1.0

     total cpu time spent up to now is       29.5 secs

     total energy              =     -34.26323844 Ry
     estimated scf accuracy    <          1.2E-13 Ry

     iteration # 31     ecut=    80.00 Ry     beta= 0.70
     Davidson diagonalization with overlap
     ethr =  1.00E-13,  avg # of iterations =  1.0

     total cpu time spent up to now is       29.7 secs

     total energy              =     -34.26323844 Ry
     estimated scf accuracy    <          1.1E-14 Ry

     iteration # 32     ecut=    80.00 Ry     beta= 0.70
     Davidson diagonalization with overlap
     ethr =  1.00E-13,  avg # of iterations =  1.0

     total cpu time spent up to now is       29.8 secs

     total energy              =     -34.26323844 Ry
     estimated scf accuracy    <          7.8E-16 Ry

     iteration # 33     ecut=    80.00 Ry     beta= 0.70
     Davidson diagonalization with overlap
     ethr =  1.00E-13,  avg # of iterations =  1.0

     total cpu time spent up to now is       30.0 secs

     total energy              =     -34.26323844 Ry
     estimated scf accuracy    <          3.0E-15 Ry

     iteration # 34     ecut=    80.00 Ry     beta= 0.70
     Davidson diagonalization with overlap
     ethr =  1.00E-13,  avg # of iterations =  1.0

     total cpu time spent up to now is       30.2 secs

     total energy              =     -34.26323844 Ry
     estimated scf accuracy    <          2.4E-15 Ry

     iteration # 35     ecut=    80.00 Ry     beta= 0.70
     Davidson diagonalization with overlap
     ethr =  1.00E-13,  avg # of iterations =  1.0

     total cpu time spent up to now is       30.4 secs

     total energy              =     -34.26323844 Ry
     estimated scf accuracy    <          2.0E-15 Ry

     iteration # 36     ecut=    80.00 Ry     beta= 0.70
     Davidson diagonalization with overlap
     ethr =  1.00E-13,  avg # of iterations =  1.0

     total cpu time spent up to now is       30.5 secs

     total energy              =     -34.26323844 Ry
     estimated scf accuracy    <          1.8E-15 Ry

     iteration # 37     ecut=    80.00 Ry     beta= 0.70
     Davidson diagonalization with overlap
     ethr =  1.00E-13,  avg # of iterations =  1.0

     total cpu time spent up to now is       30.7 secs

     total energy              =     -34.26323844 Ry
     estimated scf accuracy    <          1.9E-15 Ry

     iteration # 38     ecut=    80.00 Ry     beta= 0.70
     Davidson diagonalization with overlap
     ethr =  1.00E-13,  avg # of iterations =  1.0

     total cpu time spent up to now is       30.9 secs

     total energy              =     -34.26323844 Ry
     estimated scf accuracy    <          5.0E-15 Ry

     iteration # 39     ecut=    80.00 Ry     beta= 0.70
     Davidson diagonalization with overlap
     ethr =  1.00E-13,  avg # of iterations =  1.0

     total cpu time spent up to now is       31.0 secs

     total energy              =     -34.26323844 Ry
     estimated scf accuracy    <          1.9E-15 Ry

     iteration # 40     ecut=    80.00 Ry     beta= 0.70
     Davidson diagonalization with overlap
     ethr =  1.00E-13,  avg # of iterations =  1.0

     total cpu time spent up to now is       31.2 secs

     total energy              =     -34.26323844 Ry
     estimated scf accuracy    <          1.1E-15 Ry

     iteration # 41     ecut=    80.00 Ry     beta= 0.70
     Davidson diagonalization with overlap
     ethr =  1.00E-13,  avg # of iterations =  1.0

     total cpu time spent up to now is       31.4 secs

     total energy              =     -34.26323844 Ry
     estimated scf accuracy    <          6.8E-16 Ry

     iteration # 42     ecut=    80.00 Ry     beta= 0.70
     Davidson diagonalization with overlap
     ethr =  1.00E-13,  avg # of iterations =  1.0

     total cpu time spent up to now is       31.5 secs

     total energy              =     -34.26323844 Ry
     estimated scf accuracy    <          6.1E-16 Ry

     iteration # 43     ecut=    80.00 Ry     beta= 0.70
     Davidson diagonalization with overlap
     ethr =  1.00E-13,  avg # of iterations =  1.0

     total cpu time spent up to now is       31.7 secs

     total energy              =     -34.26323844 Ry
     estimated scf accuracy    <          8.5E-16 Ry

     iteration # 44     ecut=    80.00 Ry     beta= 0.70
     Davidson diagonalization with overlap
     ethr =  1.00E-13,  avg # of iterations =  1.0

     total cpu time spent up to now is       31.9 secs

     total energy              =     -34.26323844 Ry
     estimated scf accuracy    <          6.7E-16 Ry

     iteration # 45     ecut=    80.00 Ry     beta= 0.70
     Davidson diagonalization with overlap
     ethr =  1.00E-13,  avg # of iterations =  1.0

     total cpu time spent up to now is       32.0 secs

     total energy              =     -34.26323844 Ry
     estimated scf accuracy    <          2.2E-16 Ry

     iteration # 46     ecut=    80.00 Ry     beta= 0.70
     Davidson diagonalization with overlap
     ethr =  1.00E-13,  avg # of iterations =  1.0

     total cpu time spent up to now is       32.2 secs

     total energy              =     -34.26323844 Ry
     estimated scf accuracy    <          1.9E-16 Ry

     iteration # 47     ecut=    80.00 Ry     beta= 0.70
     Davidson diagonalization with overlap
     ethr =  1.00E-13,  avg # of iterations =  1.0

     total cpu time spent up to now is       32.4 secs

     total energy              =     -34.26323844 Ry
     estimated scf accuracy    <          1.2E-16 Ry

     iteration # 48     ecut=    80.00 Ry     beta= 0.70
     Davidson diagonalization with overlap
     ethr =  1.00E-13,  avg # of iterations =  1.0

     total cpu time spent up to now is       32.6 secs

     total energy              =     -34.26323844 Ry
     estimated scf accuracy    <          6.5E-17 Ry

     iteration # 49     ecut=    80.00 Ry     beta= 0.70
     Davidson diagonalization with overlap
     ethr =  1.00E-13,  avg # of iterations =  1.0

     total cpu time spent up to now is       32.7 secs

     total energy              =     -34.26323844 Ry
     estimated scf accuracy    <          1.7E-17 Ry

     iteration # 50     ecut=    80.00 Ry     beta= 0.70
     Davidson diagonalization with overlap
     ethr =  1.00E-13,  avg # of iterations =  1.0

     total cpu time spent up to now is       32.9 secs

     End of self-consistent calculation

          k = 0.0000 0.0000 0.0000 (  6027 PWs)   bands (ev):

   -22.6104 -10.3601  -8.2348  -5.8889

     highest occupied level (ev):    -5.8889

!    total energy              =     -34.26323844 Ry
     estimated scf accuracy    <          4.0E-18 Ry

     convergence has been achieved in  50 iterations
 ROUTINE_ZERO BEGINNING
 check_charge   3.9999999999998885     
     zero_current :      0.14s CPU      0.14s WALL (       2 calls)
 ZERO CURRENT CALCULATED
     routine_zero :      0.14s CPU      0.14s WALL (       2 calls)
     calcolo_i    :      0.00s CPU      0.00s WALL (       2 calls)
 IONIC CURRENT CALCULATED
 BEGIN: HARTREE & KOHN
 check_charge   3.9999999999998885     
 check_charge   3.9999999999999272     
     hartree_curr :      0.10s CPU      0.11s WALL (       2 calls)
 HARTREE CURRENT CALCULATED
     xc_current   :      0.06s CPU      0.06s WALL (       2 calls)
 X-C CURRENT CALCULATED
     charge density from previous step
     project      :      1.03s CPU      1.14s WALL (       4 calls)
     kohn-first   :      0.00s CPU      0.00s WALL (       4 calls)
     kohn-second  :      0.00s CPU      0.00s WALL (       4 calls)
  KOHN POLARIZATION   1 COMPLETED
     project      :      1.22s CPU      1.35s WALL (       5 calls)
     kohn-first   :      0.00s CPU      0.00s WALL (       5 calls)
     kohn-second  :      0.00s CPU      0.00s WALL (       5 calls)
  KOHN POLARIZATION   2 COMPLETED
     project      :      1.40s CPU      1.54s WALL (       6 calls)
     kohn-first   :      0.00s CPU      0.00s WALL (       6 calls)
     kohn-second  :      0.00s CPU      0.00s WALL (       6 calls)
  KOHN POLARIZATION   3 COMPLETED
     kohn_current :      1.69s CPU      1.86s WALL (       2 calls)
 KOHN CURRENT CALCULATED
total energy current:   0.169155767334E+00  0.494735766688E-01 -0.412041357756E+00
center of mass velocity of type   1:   0.216571054201E-01  0.250280869520E-01 -0.478096489241E-01
center of mass velocity of type   2:  -0.270713817752E-02 -0.312851086900E-02  0.597620611552E-02
 REPETITION            2
     charge density from previous step

     total cpu time spent up to now is       33.9 secs

     Self-consistent Calculation

     iteration #  1     ecut=    80.00 Ry     beta= 0.70
     Davidson diagonalization with overlap
     ethr =  1.00E-03,  avg # of iterations = 19.0

     total cpu time spent up to now is       34.3 secs

     total energy              =     -36.16690452 Ry
     estimated scf accuracy    <      24.68910791 Ry

     iteration #  2     ecut=    80.00 Ry     beta= 0.70
     Davidson diagonalization with overlap
     ethr =  1.00E-02,  avg # of iterations =  4.0

     negative rho (up, down):  5.194E-01 0.000E+00

     total cpu time spent up to now is       34.4 secs

     total energy              =     -31.20451073 Ry
     estimated scf accuracy    <       8.30077604 Ry

     iteration #  3     ecut=    80.00 Ry     beta= 0.70
     Davidson diagonalization with overlap
     ethr =  1.00E-02,  avg # of iterations =  8.0

     total cpu time spent up to now is       34.7 secs

     total energy              =     -26.04844659 Ry
     estimated scf accuracy    <      41.22484552 Ry

     iteration #  4     ecut=    80.00 Ry     beta= 0.70
     Davidson diagonalization with overlap
     ethr =  1.00E-02,  avg # of iterations =  9.0

     total cpu time spent up to now is       35.0 secs

     total energy              =     -34.17778640 Ry
     estimated scf accuracy    <       0.85542694 Ry

     iteration #  5     ecut=    80.00 Ry     beta= 0.70
     Davidson diagonalization with overlap
     ethr =  1.00E-02,  avg # of iterations =  2.0

     total cpu time spent up to now is       35.2 secs

     total energy              =     -34.60038312 Ry
     estimated scf accuracy    <       0.96436578 Ry

     iteration #  6     ecut=    80.00 Ry     beta= 0.70
     Davidson diagonalization with overlap
     ethr =  1.00E-02,  avg # of iterations =  1.0

     total cpu time spent up to now is       35.3 secs

     total energy              =     -34.61083610 Ry
     estimated scf accuracy    <       1.17046316 Ry

     iteration #  7     ecut=    80.00 Ry     beta= 0.70
     Davidson diagonalization with overlap
     ethr =  1.00E-02,  avg # of iterations =  1.0

     total cpu time spent up to now is       35.5 secs

     total energy              =     -34.60755210 Ry
     estimated scf accuracy    <       1.21774434 Ry

     iteration #  8     ecut=    80.00 Ry     beta= 0.70
     Davidson diagonalization with overlap
     ethr =  1.00E-02,  avg # of iterations =  1.0

     total cpu time spent up to now is       35.7 secs

     total energy              =     -34.53673028 Ry
     estimated scf accuracy    <       1.24135439 Ry

     iteration #  9     ecut=    80.00 Ry     beta= 0.70
     Davidson diagonalization with overlap
     ethr =  1.00E-02,  avg # of iterations =  1.0

     total cpu time spent up to now is       35.9 secs

     total energy              =     -34.45031771 Ry
     estimated scf accuracy    <       1.05700367 Ry

     iteration # 10     ecut=    80.00 Ry     beta= 0.70
     Davidson diagonalization with overlap
     ethr =  1.00E-02,  avg # of iterations =  1.0

     negative rho (up, down):  3.140E-01 0.000E+00

     total cpu time spent up to now is       36.0 secs

     total energy              =     -34.11854075 Ry
     estimated scf accuracy    <       0.71881303 Ry

     iteration # 11     ecut=    80.00 Ry     beta= 0.70
     Davidson diagonalization with overlap
     ethr =  8.99E-03,  avg # of iterations =  2.0

     negative rho (up, down):  3.415E-01 0.000E+00

     total cpu time spent up to now is       36.2 secs

     total energy              =     -34.36226028 Ry
     estimated scf accuracy    <       0.15233697 Ry

     iteration # 12     ecut=    80.00 Ry     beta= 0.70
     Davidson diagonalization with overlap
     ethr =  1.90E-03,  avg # of iterations =  1.0

     negative rho (up, down):  2.239E-04 0.000E+00

     total cpu time spent up to now is       36.4 secs

     total energy              =     -34.26750669 Ry
     estimated scf accuracy    <       0.15873146 Ry

     iteration # 13     ecut=    80.00 Ry     beta= 0.70
     Davidson diagonalization with overlap
     ethr =  1.90E-03,  avg # of iterations =  2.0

     negative rho (up, down):  1.580E-04 0.000E+00

     total cpu time spent up to now is       36.6 secs

     total energy              =     -34.28212735 Ry
     estimated scf accuracy    <       0.00779164 Ry

     iteration # 14     ecut=    80.00 Ry     beta= 0.70
     Davidson diagonalization with overlap
     ethr =  9.74E-05,  avg # of iterations =  2.0

     negative rho (up, down):  1.424E-04 0.000E+00

     total cpu time spent up to now is       36.7 secs

     total energy              =     -34.28328794 Ry
     estimated scf accuracy    <       0.00331682 Ry

     iteration # 15     ecut=    80.00 Ry     beta= 0.70
     Davidson diagonalization with overlap
     ethr =  4.15E-05,  avg # of iterations =  2.0

     negative rho (up, down):  1.564E-04 0.000E+00

     total cpu time spent up to now is       36.9 secs

     total energy              =     -34.28385910 Ry
     estimated scf accuracy    <       0.00176262 Ry

     iteration # 16     ecut=    80.00 Ry     beta= 0.70
     Davidson diagonalization with overlap
     ethr =  2.20E-05,  avg # of iterations =  1.0

     negative rho (up, down):  1.029E-04 0.000E+00

     total cpu time spent up to now is       37.1 secs

     total energy              =     -34.28380727 Ry
     estimated scf accuracy    <       0.00241817 Ry

     iteration # 17     ecut=    80.00 Ry     beta= 0.70
     Davidson diagonalization with overlap
     ethr =  2.20E-05,  avg # of iterations =  1.0

     negative rho (up, down):  3.066E-04 0.000E+00

     total cpu time spent up to now is       37.3 secs

     total energy              =     -34.28321342 Ry
     estimated scf accuracy    <       0.00217384 Ry

     iteration # 18     ecut=    80.00 Ry     beta= 0.70
     Davidson diagonalization with overlap
     ethr =  2.20E-05,  avg # of iterations =  2.0

     negative rho (up, down):  3.214E-04 0.000E+00

     total cpu time spent up to now is       37.4 secs

     total energy              =     -34.28335755 Ry
     estimated scf accuracy    <       0.00026374 Ry

     iteration # 19     ecut=    80.00 Ry     beta= 0.70
     Davidson diagonalization with overlap
     ethr =  3.30E-06,  avg # of iterations =  3.0

     negative rho (up, down):  6.926E-05 0.000E+00

     total cpu time spent up to now is       37.6 secs

     total energy              =     -34.28378573 Ry
     estimated scf accuracy    <       0.00193052 Ry

     iteration # 20     ecut=    80.00 Ry     beta= 0.70
     Davidson diagonalization with overlap
     ethr =  3.30E-06,  avg # of iterations =  1.0

     negative rho (up, down):  2.790E-06 0.000E+00

     total cpu time spent up to now is       37.8 secs

     total energy              =     -34.28358690 Ry
     estimated scf accuracy    <       0.00173732 Ry

     iteration # 21     ecut=    80.00 Ry     beta= 0.70
     Davidson diagonalization with overlap
     ethr =  3.30E-06,  avg # of iterations =  1.0

     negative rho (up, down):  1.082E-06 0.000E+00

     total cpu time spent up to now is       38.0 secs

     total energy              =     -34.28333172 Ry
     estimated scf accuracy    <       0.00106206 Ry

     iteration # 22     ecut=    80.00 Ry     beta= 0.70
     Davidson diagonalization with overlap
     ethr =  3.30E-06,  avg # of iterations =  2.0

     negative rho (up, down):  8.926E-07 0.000E+00

     total cpu time spent up to now is       38.2 secs

     total energy              =     -34.28333730 Ry
     estimated scf accuracy    <       0.00015859 Ry

     iteration # 23     ecut=    80.00 Ry     beta= 0.70
     Davidson diagonalization with overlap
     ethr =  1.98E-06,  avg # of iterations =  2.0

     total cpu time spent up to now is       38.3 secs

     total energy              =     -34.28337134 Ry
     estimated scf accuracy    <       0.00000061 Ry

     iteration # 24     ecut=    80.00 Ry     beta= 0.70
     Davidson diagonalization with overlap
     ethr =  7.66E-09,  avg # of iterations =  5.0

     total cpu time spent up to now is       38.5 secs

     total energy              =     -34.28337075 Ry
     estimated scf accuracy    <       0.00000534 Ry

     iteration # 25     ecut=    80.00 Ry     beta= 0.70
     Davidson diagonalization with overlap
     ethr =  7.66E-09,  avg # of iterations =  3.0

     total cpu time spent up to now is       38.7 secs

     total energy              =     -34.28337135 Ry
     estimated scf accuracy    <       0.00000011 Ry

     iteration # 26     ecut=    80.00 Ry     beta= 0.70
     Davidson diagonalization with overlap
     ethr =  1.37E-09,  avg # of iterations =  3.0

     total cpu time spent up to now is       38.9 secs

     total energy              =     -34.28337139 Ry
     estimated scf accuracy    <       0.00000003 Ry

     iteration # 27     ecut=    80.00 Ry     beta= 0.70
     Davidson diagonalization with overlap
     ethr =  3.47E-10,  avg # of iterations =  1.0

     total cpu time spent up to now is       39.1 secs

     total energy              =     -34.28337139 Ry
     estimated scf accuracy    <          3.9E-09 Ry

     iteration # 28     ecut=    80.00 Ry     beta= 0.70
     Davidson diagonalization with overlap
     ethr =  4.92E-11,  avg # of iterations =  3.0

     total cpu time spent up to now is       39.3 secs

     total energy              =     -34.28337139 Ry
     estimated scf accuracy    <          1.1E-10 Ry

     iteration # 29     ecut=    80.00 Ry     beta= 0.70
     Davidson diagonalization with overlap
     ethr =  1.43E-12,  avg # of iterations =  4.0

     total cpu time spent up to now is       39.4 secs

     total energy              =     -34.28337139 Ry
     estimated scf accuracy    <          2.9E-10 Ry

     iteration # 30     ecut=    80.00 Ry     beta= 0.70
     Davidson diagonalization with overlap
     ethr =  1.43E-12,  avg # of iterations =  2.0

     total cpu time spent up to now is       39.6 secs

     total energy              =     -34.28337139 Ry
     estimated scf accuracy    <          3.2E-11 Ry

     iteration # 31     ecut=    80.00 Ry     beta= 0.70
     Davidson diagonalization with overlap
     ethr =  3.95E-13,  avg # of iterations =  2.0

     total cpu time spent up to now is       39.8 secs

     total energy              =     -34.28337139 Ry
     estimated scf accuracy    <          1.0E-12 Ry

     iteration # 32     ecut=    80.00 Ry     beta= 0.70
     Davidson diagonalization with overlap
     ethr =  1.00E-13,  avg # of iterations =  1.0

     total cpu time spent up to now is       40.0 secs

     total energy              =     -34.28337139 Ry
     estimated scf accuracy    <          8.4E-13 Ry

     iteration # 33     ecut=    80.00 Ry     beta= 0.70
     Davidson diagonalization with overlap
     ethr =  1.00E-13,  avg # of iterations =  1.0

     total cpu time spent up to now is       40.1 secs

     total energy              =     -34.28337139 Ry
     estimated scf accuracy    <          4.7E-13 Ry

     iteration # 34     ecut=    80.00 Ry     beta= 0.70
     Davidson diagonalization with overlap
     ethr =  1.00E-13,  avg # of iterations =  1.0

     total cpu time spent up to now is       40.3 secs

     total energy              =     -34.28337139 Ry
     estimated scf accuracy    <          1.1E-15 Ry

     iteration # 35     ecut=    80.00 Ry     beta= 0.70
     Davidson diagonalization with overlap
     ethr =  1.00E-13,  avg # of iterations =  1.0

     total cpu time spent up to now is       40.5 secs

     total energy              =     -34.28337139 Ry
     estimated scf accuracy    <          2.9E-15 Ry

     iteration # 36     ecut=    80.00 Ry     beta= 0.70
     Davidson diagonalization with overlap
     ethr =  1.00E-13,  avg # of iterations =  1.0

     total cpu time spent up to now is       40.6 secs

     total energy              =     -34.28337139 Ry
     estimated scf accuracy    <          5.1E-16 Ry

     iteration # 37     ecut=    80.00 Ry     beta= 0.70
     Davidson diagonalization with overlap
     ethr =  1.00E-13,  avg # of iterations =  1.0

     total cpu time spent up to now is       40.8 secs

     total energy              =     -34.28337139 Ry
     estimated scf accuracy    <          1.5E-15 Ry

     iteration # 38     ecut=    80.00 Ry     beta= 0.70
     Davidson diagonalization with overlap
     ethr =  1.00E-13,  avg # of iterations =  1.0

     total cpu time spent up to now is       41.0 secs

     total energy              =     -34.28337139 Ry
     estimated scf accuracy    <          4.1E-17 Ry

     iteration # 39     ecut=    80.00 Ry     beta= 0.70
     Davidson diagonalization with overlap
     ethr =  1.00E-13,  avg # of iterations =  1.0

     total cpu time spent up to now is       41.2 secs

     total energy              =     -34.28337139 Ry
     estimated scf accuracy    <          8.0E-17 Ry

     iteration # 40     ecut=    80.00 Ry     beta= 0.70
     Davidson diagonalization with overlap
     ethr =  1.00E-13,  avg # of iterations =  1.0

     total cpu time spent up to now is       41.3 secs

     total energy              =     -34.28337139 Ry
     estimated scf accuracy    <          9.6E-17 Ry

     iteration # 41     ecut=    80.00 Ry     beta= 0.70
     Davidson diagonalization with overlap
     ethr =  1.00E-13,  avg # of iterations =  1.0

     total cpu time spent up to now is       41.5 secs

     total energy              =     -34.28337139 Ry
     estimated scf accuracy    <          3.6E-17 Ry

     iteration # 42     ecut=    80.00 Ry     beta= 0.70
     Davidson diagonalization with overlap
     ethr =  1.00E-13,  avg # of iterations =  1.0

     total cpu time spent up to now is       41.6 secs

     End of self-consistent calculation

          k = 0.0000 0.0000 0.0000 (  6027 PWs)   bands (ev):

   -22.7962 -10.5678  -8.2574  -5.9287

     highest occupied level (ev):    -5.9287

!    total energy              =     -34.28337139 Ry
     estimated scf accuracy    <          8.3E-18 Ry

     convergence has been achieved in  42 iterations
     charge density from previous step

     total cpu time spent up to now is       41.8 secs

     Self-consistent Calculation

     iteration #  1     ecut=    80.00 Ry     beta= 0.70
     Davidson diagonalization with overlap
     ethr =  1.00E-03,  avg # of iterations = 14.0

     total cpu time spent up to now is       42.1 secs

     total energy              =     -35.95256009 Ry
     estimated scf accuracy    <      22.39085589 Ry

     iteration #  2     ecut=    80.00 Ry     beta= 0.70
     Davidson diagonalization with overlap
[...]
     ethr =  1.00E-13,  avg # of iterations =  1.0

     total cpu time spent up to now is       88.4 secs

     total energy              =     -34.26861671 Ry
     estimated scf accuracy    <          4.9E-16 Ry

     iteration # 36     ecut=    80.00 Ry     beta= 0.70
     Davidson diagonalization with overlap
     ethr =  1.00E-13,  avg # of iterations =  1.0

     total cpu time spent up to now is       88.5 secs

     total energy              =     -34.26861671 Ry
     estimated scf accuracy    <          2.1E-15 Ry

     iteration # 37     ecut=    80.00 Ry     beta= 0.70
     Davidson diagonalization with overlap
     ethr =  1.00E-13,  avg # of iterations =  1.0

     total cpu time spent up to now is       88.7 secs

     total energy              =     -34.26861671 Ry
     estimated scf accuracy    <          8.1E-16 Ry

     iteration # 38     ecut=    80.00 Ry     beta= 0.70
     Davidson diagonalization with overlap
     ethr =  1.00E-13,  avg # of iterations =  1.0

     total cpu time spent up to now is       88.9 secs

     total energy              =     -34.26861671 Ry
     estimated scf accuracy    <          5.3E-17 Ry

     iteration # 39     ecut=    80.00 Ry     beta= 0.70
     Davidson diagonalization with overlap
     ethr =  1.00E-13,  avg # of iterations =  1.0

     total cpu time spent up to now is       89.0 secs

     End of self-consistent calculation

          k = 0.0000 0.0000 0.0000 (  6027 PWs)   bands (ev):

   -22.6578 -10.4148  -8.2394  -5.8989

     highest occupied level (ev):    -5.8989

!    total energy              =     -34.26861671 Ry
     estimated scf accuracy    <          3.0E-18 Ry

     convergence has been achieved in  39 iterations
     charge density from previous step

     total cpu time spent up to now is       89.2 secs

     Self-consistent Calculation

     iteration #  1     ecut=    80.00 Ry     beta= 0.70
     Davidson diagonalization with overlap
     ethr =  1.00E-03,  avg # of iterations = 18.0

     total cpu time spent up to now is       89.5 secs

     total energy              =     -35.95833891 Ry
     estimated scf accuracy    <      22.62572683 Ry

     iteration #  2     ecut=    80.00 Ry     beta= 0.70
     Davidson diagonalization with overlap
     ethr =  1.00E-02,  avg # of iterations =  4.0

     negative rho (up, down):  5.055E-01 0.000E+00

     total cpu time spent up to now is       89.7 secs

     total energy              =     -30.86054106 Ry
     estimated scf accuracy    <       8.94032925 Ry

     iteration #  3     ecut=    80.00 Ry     beta= 0.70
     Davidson diagonalization with overlap
     ethr =  1.00E-02,  avg # of iterations =  9.0

     total cpu time spent up to now is       90.0 secs

     total energy              =     -25.81180357 Ry
     estimated scf accuracy    <      42.65601243 Ry

     iteration #  4     ecut=    80.00 Ry     beta= 0.70
     Davidson diagonalization with overlap
     ethr =  1.00E-02,  avg # of iterations =  9.0

     total cpu time spent up to now is       90.2 secs

     total energy              =     -34.10387065 Ry
     estimated scf accuracy    <       0.96596145 Ry

     iteration #  5     ecut=    80.00 Ry     beta= 0.70
     Davidson diagonalization with overlap
     ethr =  1.00E-02,  avg # of iterations =  3.0

     total cpu time spent up to now is       90.4 secs

     total energy              =     -34.61114047 Ry
     estimated scf accuracy    <       1.10687167 Ry

     iteration #  6     ecut=    80.00 Ry     beta= 0.70
     Davidson diagonalization with overlap
     ethr =  1.00E-02,  avg # of iterations =  1.0

     total cpu time spent up to now is       90.6 secs

     total energy              =     -34.60938749 Ry
     estimated scf accuracy    <       1.39020791 Ry

     iteration #  7     ecut=    80.00 Ry     beta= 0.70
     Davidson diagonalization with overlap
     ethr =  1.00E-02,  avg # of iterations =  1.0

     total cpu time spent up to now is       90.8 secs

     total energy              =     -34.67985168 Ry
     estimated scf accuracy    <       1.40093203 Ry

     iteration #  8     ecut=    80.00 Ry     beta= 0.70
     Davidson diagonalization with overlap
     ethr =  1.00E-02,  avg # of iterations =  1.0

     total cpu time spent up to now is       91.0 secs

     total energy              =     -34.45710938 Ry
     estimated scf accuracy    <       1.68021091 Ry

     iteration #  9     ecut=    80.00 Ry     beta= 0.70
     Davidson diagonalization with overlap
     ethr =  1.00E-02,  avg # of iterations =  1.0

     total cpu time spent up to now is       91.1 secs

     total energy              =     -34.43725240 Ry
     estimated scf accuracy    <       1.07465227 Ry

     iteration # 10     ecut=    80.00 Ry     beta= 0.70
     Davidson diagonalization with overlap
     ethr =  1.00E-02,  avg # of iterations =  1.0

     negative rho (up, down):  3.798E-01 0.000E+00

     total cpu time spent up to now is       91.3 secs

     total energy              =     -33.95469090 Ry
     estimated scf accuracy    <       0.93755029 Ry

     iteration # 11     ecut=    80.00 Ry     beta= 0.70
     Davidson diagonalization with overlap
     ethr =  1.00E-02,  avg # of iterations =  3.0

     negative rho (up, down):  4.405E-01 0.000E+00

     total cpu time spent up to now is       91.5 secs

     total energy              =     -34.40383976 Ry
     estimated scf accuracy    <       0.49089957 Ry

     iteration # 12     ecut=    80.00 Ry     beta= 0.70
     Davidson diagonalization with overlap
     ethr =  6.14E-03,  avg # of iterations =  1.0

     negative rho (up, down):  1.516E-03 0.000E+00

     total cpu time spent up to now is       91.7 secs

     total energy              =     -34.13914194 Ry
     estimated scf accuracy    <       0.43294962 Ry

     iteration # 13     ecut=    80.00 Ry     beta= 0.70
     Davidson diagonalization with overlap
     ethr =  5.41E-03,  avg # of iterations =  2.0

     negative rho (up, down):  9.535E-05 0.000E+00

     total cpu time spent up to now is       91.9 secs

     total energy              =     -34.25849455 Ry
     estimated scf accuracy    <       0.06367938 Ry

     iteration # 14     ecut=    80.00 Ry     beta= 0.70
     Davidson diagonalization with overlap
     ethr =  7.96E-04,  avg # of iterations =  1.0

     negative rho (up, down):  1.184E-04 0.000E+00

     total cpu time spent up to now is       92.0 secs

     total energy              =     -34.25163232 Ry
     estimated scf accuracy    <       0.04205535 Ry

     iteration # 15     ecut=    80.00 Ry     beta= 0.70
     Davidson diagonalization with overlap
     ethr =  5.26E-04,  avg # of iterations =  1.0

     negative rho (up, down):  6.286E-06 0.000E+00

     total cpu time spent up to now is       92.2 secs

     total energy              =     -34.25268299 Ry
     estimated scf accuracy    <       0.01949847 Ry

     iteration # 16     ecut=    80.00 Ry     beta= 0.70
     Davidson diagonalization with overlap
     ethr =  2.44E-04,  avg # of iterations =  1.0

     negative rho (up, down):  1.451E-06 0.000E+00

     total cpu time spent up to now is       92.4 secs

     total energy              =     -34.24799969 Ry
     estimated scf accuracy    <       0.01851670 Ry

     iteration # 17     ecut=    80.00 Ry     beta= 0.70
     Davidson diagonalization with overlap
     ethr =  2.31E-04,  avg # of iterations =  1.0

     negative rho (up, down):  5.474E-05 0.000E+00

     total cpu time spent up to now is       92.5 secs

     total energy              =     -34.24890973 Ry
     estimated scf accuracy    <       0.00360488 Ry

     iteration # 18     ecut=    80.00 Ry     beta= 0.70
     Davidson diagonalization with overlap
     ethr =  4.51E-05,  avg # of iterations =  2.0

     negative rho (up, down):  3.838E-04 0.000E+00

     total cpu time spent up to now is       92.7 secs

     total energy              =     -34.24832920 Ry
     estimated scf accuracy    <       0.00168048 Ry

     iteration # 19     ecut=    80.00 Ry     beta= 0.70
     Davidson diagonalization with overlap
     ethr =  2.10E-05,  avg # of iterations =  3.0

     total cpu time spent up to now is       92.9 secs

     total energy              =     -34.24873142 Ry
     estimated scf accuracy    <       0.00176506 Ry

     iteration # 20     ecut=    80.00 Ry     beta= 0.70
     Davidson diagonalization with overlap
     ethr =  2.10E-05,  avg # of iterations =  2.0

     total cpu time spent up to now is       93.1 secs

     total energy              =     -34.24912929 Ry
     estimated scf accuracy    <       0.00002923 Ry

     iteration # 21     ecut=    80.00 Ry     beta= 0.70
     Davidson diagonalization with overlap
     ethr =  3.65E-07,  avg # of iterations =  4.0

     total cpu time spent up to now is       93.3 secs

     total energy              =     -34.24913281 Ry
     estimated scf accuracy    <       0.00006130 Ry

     iteration # 22     ecut=    80.00 Ry     beta= 0.70
     Davidson diagonalization with overlap
     ethr =  3.65E-07,  avg # of iterations =  2.0

     total cpu time spent up to now is       93.5 secs

     total energy              =     -34.24913326 Ry
     estimated scf accuracy    <       0.00001700 Ry

     iteration # 23     ecut=    80.00 Ry     beta= 0.70
     Davidson diagonalization with overlap
     ethr =  2.12E-07,  avg # of iterations =  1.0

     total cpu time spent up to now is       93.6 secs

     total energy              =     -34.24913117 Ry
     estimated scf accuracy    <       0.00000717 Ry

     iteration # 24     ecut=    80.00 Ry     beta= 0.70
     Davidson diagonalization with overlap
     ethr =  8.96E-08,  avg # of iterations =  2.0

     total cpu time spent up to now is       93.8 secs

     total energy              =     -34.24913281 Ry
     estimated scf accuracy    <       0.00000002 Ry

     iteration # 25     ecut=    80.00 Ry     beta= 0.70
     Davidson diagonalization with overlap
     ethr =  2.18E-10,  avg # of iterations =  5.0

     total cpu time spent up to now is       94.0 secs

     total energy              =     -34.24913287 Ry
     estimated scf accuracy    <       0.00000009 Ry

     iteration # 26     ecut=    80.00 Ry     beta= 0.70
     Davidson diagonalization with overlap
     ethr =  2.18E-10,  avg # of iterations =  1.0

     total cpu time spent up to now is       94.2 secs

     total energy              =     -34.24913283 Ry
     estimated scf accuracy    <       0.00000011 Ry

     iteration # 27     ecut=    80.00 Ry     beta= 0.70
     Davidson diagonalization with overlap
     ethr =  2.18E-10,  avg # of iterations =  3.0

     total cpu time spent up to now is       94.4 secs

     total energy              =     -34.24913284 Ry
     estimated scf accuracy    <          2.9E-09 Ry

     iteration # 28     ecut=    80.00 Ry     beta= 0.70
     Davidson diagonalization with overlap
     ethr =  3.59E-11,  avg # of iterations =  3.0

     total cpu time spent up to now is       94.6 secs

     total energy              =     -34.24913284 Ry
     estimated scf accuracy    <          8.2E-10 Ry

     iteration # 29     ecut=    80.00 Ry     beta= 0.70
     Davidson diagonalization with overlap
     ethr =  1.02E-11,  avg # of iterations =  2.0

     total cpu time spent up to now is       94.7 secs

     total energy              =     -34.24913284 Ry
     estimated scf accuracy    <          1.1E-10 Ry

     iteration # 30     ecut=    80.00 Ry     beta= 0.70
     Davidson diagonalization with overlap
     ethr =  1.37E-12,  avg # of iterations =  2.0

     total cpu time spent up to now is       94.9 secs

     total energy              =     -34.24913284 Ry
     estimated scf accuracy    <          2.5E-11 Ry

     iteration # 31     ecut=    80.00 Ry     beta= 0.70
     Davidson diagonalization with overlap
     ethr =  3.14E-13,  avg # of iterations =  3.0

     total cpu time spent up to now is       95.1 secs

     total energy              =     -34.24913284 Ry
     estimated scf accuracy    <          1.3E-12 Ry

     iteration # 32     ecut=    80.00 Ry     beta= 0.70
     Davidson diagonalization with overlap
     ethr =  1.00E-13,  avg # of iterations =  1.0

     total cpu time spent up to now is       95.3 secs

     total energy              =     -34.24913284 Ry
     estimated scf accuracy    <          3.9E-13 Ry

     iteration # 33     ecut=    80.00 Ry     beta= 0.70
     Davidson diagonalization with overlap
     ethr =  1.00E-13,  avg # of iterations =  1.0

     total cpu time spent up to now is       95.5 secs

     total energy              =     -34.24913284 Ry
     estimated scf accuracy    <          6.9E-14 Ry

     iteration # 34     ecut=    80.00 Ry     beta= 0.70
     Davidson diagonalization with overlap
     ethr =  1.00E-13,  avg # of iterations =  1.0

     total cpu time spent up to now is       95.6 secs

     total energy              =     -34.24913284 Ry
     estimated scf accuracy    <          2.0E-14 Ry

     iteration # 35     ecut=    80.00 Ry     beta= 0.70
     Davidson diagonalization with overlap
     ethr =  1.00E-13,  avg # of iterations =  1.0

     total cpu time spent up to now is       95.8 secs

     total energy              =     -34.24913284 Ry
     estimated scf accuracy    <          3.5E-16 Ry

     iteration # 36     ecut=    80.00 Ry     beta= 0.70
     Davidson diagonalization with overlap
     ethr =  1.00E-13,  avg # of iterations =  1.0

     total cpu time spent up to now is       96.0 secs

     total energy              =     -34.24913284 Ry
     estimated scf accuracy    <          1.6E-15 Ry

     iteration # 37     ecut=    80.00 Ry     beta= 0.70
     Davidson diagonalization with overlap
     ethr =  1.00E-13,  avg # of iterations =  1.0

     total cpu time spent up to now is       96.2 secs

     total energy              =     -34.24913284 Ry
     estimated scf accuracy    <          1.5E-15 Ry

     iteration # 38     ecut=    80.00 Ry     beta= 0.70
     Davidson diagonalization with overlap
     ethr =  1.00E-13,  avg # of iterations =  1.0

     total cpu time spent up to now is       96.3 secs

     total energy              =     -34.24913284 Ry
     estimated scf accuracy    <          1.6E-15 Ry

     iteration # 39     ecut=    80.00 Ry     beta= 0.70
     Davidson diagonalization with overlap
     ethr =  1.00E-13,  avg # of iterations =  1.0

     total cpu time spent up to now is       96.5 secs

     total energy              =     -34.24913284 Ry
     estimated scf accuracy    <          9.9E-17 Ry

     iteration # 40     ecut=    80.00 Ry     beta= 0.70
     Davidson diagonalization with overlap
     ethr =  1.00E-13,  avg # of iterations =  1.0

     total cpu time spent up to now is       96.7 secs

     total energy              =     -34.24913284 Ry
     estimated scf accuracy    <          6.2E-16 Ry

     iteration # 41     ecut=    80.00 Ry     beta= 0.70
     Davidson diagonalization with overlap
     ethr =  1.00E-13,  avg # of iterations =  1.0

     total cpu time spent up to now is       96.8 secs

     total energy              =     -34.24913284 Ry
     estimated scf accuracy    <          9.4E-16 Ry

     iteration # 42     ecut=    80.00 Ry     beta= 0.70
     Davidson diagonalization with overlap
     ethr =  1.00E-13,  avg # of iterations =  1.0

     total cpu time spent up to now is       97.0 secs

     total energy              =     -34.24913284 Ry
     estimated scf accuracy    <          2.6E-17 Ry

     iteration # 43     ecut=    80.00 Ry     beta= 0.70
     Davidson diagonalization with overlap
     ethr =  1.00E-13,  avg # of iterations =  1.0

     total cpu time spent up to now is       97.2 secs

     End of self-consistent calculation

          k = 0.0000 0.0000 0.0000 (  6027 PWs)   bands (ev):

   -22.4944 -10.2268  -8.2199  -5.8642

     highest occupied level (ev):    -5.8642

!    total energy              =     -34.24913284 Ry
     estimated scf accuracy    <          1.7E-18 Ry

     convergence has been achieved in  43 iterations
 ROUTINE_ZERO BEGINNING
 check_charge   4.0000000000000799     
     zero_current :      0.41s CPU      0.43s WALL (       6 calls)
 ZERO CURRENT CALCULATED
     routine_zero :      0.41s CPU      0.43s WALL (       6 calls)
     calcolo_i    :      0.01s CPU      0.01s WALL (       6 calls)
 IONIC CURRENT CALCULATED
 BEGIN: HARTREE & KOHN
 check_charge   4.0000000000000799     
 check_charge   3.9999999999999853     
     hartree_curr :      0.28s CPU      0.32s WALL (       6 calls)
 HARTREE CURRENT CALCULATED
     xc_current   :      0.18s CPU      0.18s WALL (       6 calls)
 X-C CURRENT CALCULATED
     charge density from previous step
     project      :      3.69s CPU      4.04s WALL (      16 calls)
     kohn-first   :      0.00s CPU      0.00s WALL (      16 calls)
     kohn-second  :      0.00s CPU      0.00s WALL (      16 calls)
  KOHN POLARIZATION   1 COMPLETED
     project      :      3.90s CPU      4.27s WALL (      17 calls)
     kohn-first   :      0.00s CPU      0.00s WALL (      17 calls)
     kohn-second  :      0.00s CPU      0.00s WALL (      17 calls)
  KOHN POLARIZATION   2 COMPLETED
     project      :      4.08s CPU      4.46s WALL (      18 calls)
     kohn-first   :      0.00s CPU      0.00s WALL (      18 calls)
     kohn-second  :      0.00s CPU      0.00s WALL (      18 calls)
  KOHN POLARIZATION   3 COMPLETED
     kohn_current :      4.91s CPU      5.45s WALL (       6 calls)
 KOHN CURRENT CALCULATED
total energy current:   0.137478943165E+00  0.502413566191E-01 -0.318243633469E+00
center of mass velocity of type   1:   0.206368127752E-01  0.245365426030E-01 -0.445024814491E-01
center of mass velocity of type   2:  -0.257960159690E-02 -0.306706782538E-02  0.556281018114E-02
 STEP          147   1.0667279999999999E-002  >          146
 Finished reading trajectory traj/cp at step          147

     init_run     :      0.20s CPU      0.27s WALL (       1 calls)
     electrons    :     74.57s CPU     88.94s WALL (      12 calls)
     update_pot   :      1.66s CPU      2.11s WALL (      18 calls)

     Called by init_run:
     wfcinit      :      0.01s CPU      0.02s WALL (       1 calls)
     potinit      :      0.11s CPU      0.16s WALL (       1 calls)
     hinit0       :      0.06s CPU      0.08s WALL (       1 calls)

     Called by electrons:
     c_bands      :     16.54s CPU     17.74s WALL (     484 calls)
     sum_band     :      8.08s CPU      8.62s WALL (     502 calls)
     v_of_rho     :     43.40s CPU     53.66s WALL (     503 calls)
     mix_rho      :      7.66s CPU     10.35s WALL (     484 calls)

     Called by c_bands:
     init_us_2    :      0.15s CPU      0.16s WALL (     999 calls)
     regterg      :     16.43s CPU     17.61s WALL (     484 calls)

     Called by *egterg:
     rdiaghg      :      0.05s CPU      0.05s WALL (    1673 calls)
     h_psi        :     18.00s CPU     19.38s WALL (    2198 calls)
     g_psi        :      0.07s CPU      0.08s WALL (    1188 calls)

     Called by h_psi:
     h_psi:calbec :      0.12s CPU      0.13s WALL (    2198 calls)
     vloc_psi     :     17.75s CPU     19.12s WALL (    2198 calls)
     add_vuspsi   :      0.07s CPU      0.07s WALL (    2198 calls)

     General routines
     calbec       :      0.14s CPU      0.15s WALL (    2843 calls)
     fft          :     21.10s CPU     22.72s WALL (    4030 calls)
     ffts         :      1.42s CPU      1.47s WALL (     538 calls)
     fftw         :     19.08s CPU     20.56s WALL (    8716 calls)

     Parallel routines

     PWSCF        :   1m22.67s CPU   1m38.15s WALL


   This run was terminated on:  15:30:22   7Jan2021            

=------------------------------------------------------------------------------=
   JOB DONE.
=------------------------------------------------------------------------------=
