
     Program PWSCF v.6.7MaX starts on  7Jan2021 at 12:50: 0 

     This program is part of the open-source Quantum ESPRESSO suite
     for quantum simulation of materials; please cite
         "P. Giannozzi et al., J. Phys.:Condens. Matter 21 395502 (2009);
         "P. Giannozzi et al., J. Phys.:Condens. Matter 29 465901 (2017);
          URL http://www.quantum-espresso.org", 
     in publications or presentations arising from this work. More details at
     http://www.quantum-espresso.org/quote

     Parallel version (MPI), running on     1 processors

     MPI processes distributed on     1 nodes
 WARNING: VELOCITIES FROM INPUT FILE WILL BE IGNORED
 Using CP units for velocities
     Message from routine scan_end:
     No INFO block end statement, possibly corrupted file
 After first step from input file, I will read from the CPV trajectory traj/cp
 SKIPPING STEP FROM INPUT FILE
 SKIPPED STEP          111   8.0548800000000004E-003
 SKIPPED STEP          114   8.2725799999999999E-003
 SKIPPED STEP          117   8.4902799999999994E-003
 SKIPPED STEP          120   8.7079800000000006E-003
 SKIPPED STEP          123   8.9256800000000001E-003
 SKIPPED STEP          126   9.1433799999999996E-003
 SKIPPED STEP          129   9.3610800000000008E-003
 SKIPPED STEP          132   9.5787800000000003E-003
 SKIPPED STEP          135   9.7964799999999998E-003
 SKIPPED STEP          138   1.0014179999999999E-002
 STEP          141   1.0231880000000000E-002

     Subspace diagonalization in iterative solution of the eigenvalue problem:
     a serial algorithm will be used


     G-vector sticks info
     --------------------
     sticks:   dense  smooth     PW     G-vecs:    dense   smooth      PW
     Sum        2561    2561    641                96969    96969   12053



     bravais-lattice index     =            1
     lattice parameter (alat)  =      10.0000  a.u.
     unit-cell volume          =    1000.0000 (a.u.)^3
     number of atoms/cell      =            3
     number of atomic types    =            2
     number of electrons       =         8.00
     number of Kohn-Sham states=            4
     kinetic-energy cutoff     =      80.0000  Ry
     charge density cutoff     =     320.0000  Ry
     scf convergence threshold =      1.0E-17
     mixing beta               =       0.7000
     number of iterations used =            8  plain     mixing
     energy convergence thresh.=      0.0E+00
     force convergence thresh. =      0.0E+00
     Exchange-correlation=  SLA  PW   PBX  PBC
                           (   1   4   3   4   0   0   0)
     nstep                     =           50


     celldm(1)=  10.000000  celldm(2)=   0.000000  celldm(3)=   0.000000
     celldm(4)=   0.000000  celldm(5)=   0.000000  celldm(6)=   0.000000

     crystal axes: (cart. coord. in units of alat)
               a(1) = (   1.000000   0.000000   0.000000 )  
               a(2) = (   0.000000   1.000000   0.000000 )  
               a(3) = (   0.000000   0.000000   1.000000 )  

     reciprocal axes: (cart. coord. in units 2 pi/alat)
               b(1) = (  1.000000  0.000000  0.000000 )  
               b(2) = (  0.000000  1.000000  0.000000 )  
               b(3) = (  0.000000  0.000000  1.000000 )  


     PseudoPot. # 1 for H  read from file:
     ../pseudo/H_HSCV_PBE-1.0.upf
     MD5 check sum: 9381039c3e76055a91507fe4cf572eb6
     Pseudo is Norm-conserving, Zval =  1.0
     Generated by new atomic code, or converted to UPF format
     Using radial grid of 2000 points,  0 beta functions with: 

     PseudoPot. # 2 for O  read from file:
     ../pseudo/O_HSCV_PBE-1.0.upf
     MD5 check sum: d1ac96ff7cc4673fd84f2420bd578511
     Pseudo is Norm-conserving, Zval =  6.0
     Generated by new atomic code, or converted to UPF format
     Using radial grid of 2000 points,  1 beta functions with: 
                l(1) =   0

     atomic species   valence    mass     pseudopotential
        H              1.00     1.00000     H ( 1.00)
        O              6.00    16.00000     O ( 1.00)

     No symmetry found



   Cartesian axes

     site n.     atom                  positions (alat units)
         1           H   tau(   1) = (   0.0389613   0.1402703   0.0857337  )
         2           H   tau(   2) = (   0.0146434  -0.0661703  -0.1804127  )
         3           O   tau(   3) = (  -0.0341233  -0.0523067   0.0446450  )

     number of k points=     1
                       cart. coord. in units 2pi/alat
        k(    1) = (   0.0000000   0.0000000   0.0000000), wk =   2.0000000

     Dense  grid:    48485 G-vectors     FFT dimensions: (  60,  60,  60)

     Estimated max dynamical RAM per process >      38.44 MB

     Initial potential from superposition of free atoms

     starting charge    7.99998, renormalised to    8.00000
     Starting wfcs are random
     charge density from previous step

     total cpu time spent up to now is        1.2 secs

     Self-consistent Calculation

     iteration #  1     ecut=    80.00 Ry     beta= 0.70
     Davidson diagonalization with overlap
     ethr =  1.00E-03,  avg # of iterations = 14.0

     total cpu time spent up to now is        1.7 secs

     total energy              =     -36.14511080 Ry
     estimated scf accuracy    <      26.66566743 Ry

     iteration #  2     ecut=    80.00 Ry     beta= 0.70
     Davidson diagonalization with overlap
     ethr =  1.00E-02,  avg # of iterations =  3.0

     negative rho (up, down):  4.356E-01 0.000E+00

     total cpu time spent up to now is        2.0 secs

     total energy              =     -32.03028713 Ry
     estimated scf accuracy    <       5.86386917 Ry

     iteration #  3     ecut=    80.00 Ry     beta= 0.70
     Davidson diagonalization with overlap
     ethr =  1.00E-02,  avg # of iterations =  9.0

     total cpu time spent up to now is        2.3 secs

     total energy              =     -28.27978320 Ry
     estimated scf accuracy    <      35.08853984 Ry

     iteration #  4     ecut=    80.00 Ry     beta= 0.70
     Davidson diagonalization with overlap
     ethr =  1.00E-02,  avg # of iterations =  9.0

     negative rho (up, down):  1.147E-03 0.000E+00

     total cpu time spent up to now is        2.6 secs

     total energy              =     -34.48595864 Ry
     estimated scf accuracy    <       0.40870186 Ry

     iteration #  5     ecut=    80.00 Ry     beta= 0.70
     Davidson diagonalization with overlap
     ethr =  5.11E-03,  avg # of iterations =  3.0

     negative rho (up, down):  2.440E-03 0.000E+00

     total cpu time spent up to now is        2.9 secs

     total energy              =     -35.10665180 Ry
     estimated scf accuracy    <       3.18897409 Ry

     iteration #  6     ecut=    80.00 Ry     beta= 0.70
     Davidson diagonalization with overlap
     ethr =  5.11E-03,  avg # of iterations =  1.0

     negative rho (up, down):  8.123E-04 0.000E+00

     total cpu time spent up to now is        3.1 secs

     total energy              =     -35.10274712 Ry
     estimated scf accuracy    <       3.40284931 Ry

     iteration #  7     ecut=    80.00 Ry     beta= 0.70
     Davidson diagonalization with overlap
     ethr =  5.11E-03,  avg # of iterations =  1.0

     negative rho (up, down):  1.883E-07 0.000E+00

     total cpu time spent up to now is        3.4 secs

     total energy              =     -34.63488921 Ry
     estimated scf accuracy    <       3.49073158 Ry

     iteration #  8     ecut=    80.00 Ry     beta= 0.70
     Davidson diagonalization with overlap
     ethr =  5.11E-03,  avg # of iterations =  2.0

     negative rho (up, down):  1.669E-02 0.000E+00

     total cpu time spent up to now is        3.6 secs

     total energy              =     -34.53622963 Ry
     estimated scf accuracy    <       2.09362925 Ry

     iteration #  9     ecut=    80.00 Ry     beta= 0.70
     Davidson diagonalization with overlap
     ethr =  5.11E-03,  avg # of iterations =  1.0

     negative rho (up, down):  2.338E-02 0.000E+00

     total cpu time spent up to now is        3.8 secs

     total energy              =     -34.45486148 Ry
     estimated scf accuracy    <       1.57093700 Ry

     iteration # 10     ecut=    80.00 Ry     beta= 0.70
     Davidson diagonalization with overlap
     ethr =  5.11E-03,  avg # of iterations =  1.0

     negative rho (up, down):  4.393E-01 0.000E+00

     total cpu time spent up to now is        4.1 secs

     total energy              =     -33.95298234 Ry
     estimated scf accuracy    <       1.19103321 Ry

     iteration # 11     ecut=    80.00 Ry     beta= 0.70
     Davidson diagonalization with overlap
     ethr =  5.11E-03,  avg # of iterations =  3.0

     negative rho (up, down):  4.392E-01 0.000E+00

     total cpu time spent up to now is        4.3 secs

     total energy              =     -34.36695608 Ry
     estimated scf accuracy    <       0.21634852 Ry

     iteration # 12     ecut=    80.00 Ry     beta= 0.70
     Davidson diagonalization with overlap
     ethr =  2.70E-03,  avg # of iterations =  1.0

     negative rho (up, down):  1.175E-04 0.000E+00

     total cpu time spent up to now is        4.6 secs

     total energy              =     -34.23710311 Ry
     estimated scf accuracy    <       0.22120893 Ry

     iteration # 13     ecut=    80.00 Ry     beta= 0.70
     Davidson diagonalization with overlap
     ethr =  2.70E-03,  avg # of iterations =  2.0

     negative rho (up, down):  2.952E-05 0.000E+00

     total cpu time spent up to now is        4.8 secs

     total energy              =     -34.26533894 Ry
     estimated scf accuracy    <       0.01183891 Ry

     iteration # 14     ecut=    80.00 Ry     beta= 0.70
     Davidson diagonalization with overlap
     ethr =  1.48E-04,  avg # of iterations =  2.0

     negative rho (up, down):  5.779E-05 0.000E+00

     total cpu time spent up to now is        5.1 secs

     total energy              =     -34.26619719 Ry
     estimated scf accuracy    <       0.00728469 Ry

     iteration # 15     ecut=    80.00 Ry     beta= 0.70
     Davidson diagonalization with overlap
     ethr =  9.11E-05,  avg # of iterations =  1.0

     negative rho (up, down):  1.638E-04 0.000E+00

     total cpu time spent up to now is        5.3 secs

     total energy              =     -34.26582080 Ry
     estimated scf accuracy    <       0.00505205 Ry

     iteration # 16     ecut=    80.00 Ry     beta= 0.70
     Davidson diagonalization with overlap
     ethr =  6.32E-05,  avg # of iterations =  1.0

     negative rho (up, down):  2.016E-08 0.000E+00

     total cpu time spent up to now is        5.5 secs

     total energy              =     -34.26505633 Ry
     estimated scf accuracy    <       0.00257064 Ry

     iteration # 17     ecut=    80.00 Ry     beta= 0.70
     Davidson diagonalization with overlap
     ethr =  3.21E-05,  avg # of iterations =  2.0

     negative rho (up, down):  3.833E-04 0.000E+00

     total cpu time spent up to now is        5.8 secs

     total energy              =     -34.26531956 Ry
     estimated scf accuracy    <       0.00159666 Ry

     iteration # 18     ecut=    80.00 Ry     beta= 0.70
     Davidson diagonalization with overlap
     ethr =  2.00E-05,  avg # of iterations =  1.0

     negative rho (up, down):  1.939E-04 0.000E+00

     total cpu time spent up to now is        6.0 secs

     total energy              =     -34.26530975 Ry
     estimated scf accuracy    <       0.00033121 Ry

     iteration # 19     ecut=    80.00 Ry     beta= 0.70
     Davidson diagonalization with overlap
     ethr =  4.14E-06,  avg # of iterations =  1.0

     negative rho (up, down):  1.733E-05 0.000E+00

     total cpu time spent up to now is        6.3 secs

     total energy              =     -34.26529762 Ry
     estimated scf accuracy    <       0.00012540 Ry

     iteration # 20     ecut=    80.00 Ry     beta= 0.70
     Davidson diagonalization with overlap
     ethr =  1.57E-06,  avg # of iterations =  2.0

     negative rho (up, down):  5.894E-06 0.000E+00

     total cpu time spent up to now is        6.5 secs

     total energy              =     -34.26529039 Ry
     estimated scf accuracy    <       0.00003501 Ry

     iteration # 21     ecut=    80.00 Ry     beta= 0.70
     Davidson diagonalization with overlap
     ethr =  4.38E-07,  avg # of iterations =  3.0

     negative rho (up, down):  1.464E-07 0.000E+00

     total cpu time spent up to now is        6.8 secs

     total energy              =     -34.26530652 Ry
     estimated scf accuracy    <       0.00000865 Ry

     iteration # 22     ecut=    80.00 Ry     beta= 0.70
     Davidson diagonalization with overlap
     ethr =  1.08E-07,  avg # of iterations =  1.0

     negative rho (up, down):  2.505E-08 0.000E+00

     total cpu time spent up to now is        7.0 secs

     total energy              =     -34.26530587 Ry
     estimated scf accuracy    <       0.00000279 Ry

     iteration # 23     ecut=    80.00 Ry     beta= 0.70
     Davidson diagonalization with overlap
     ethr =  3.49E-08,  avg # of iterations =  2.0

     total cpu time spent up to now is        7.2 secs

     total energy              =     -34.26530653 Ry
     estimated scf accuracy    <          6.3E-09 Ry

     iteration # 24     ecut=    80.00 Ry     beta= 0.70
     Davidson diagonalization with overlap
     ethr =  7.83E-11,  avg # of iterations =  6.0

     total cpu time spent up to now is        7.5 secs

     total energy              =     -34.26530654 Ry
     estimated scf accuracy    <       0.00000003 Ry

     iteration # 25     ecut=    80.00 Ry     beta= 0.70
     Davidson diagonalization with overlap
     ethr =  7.83E-11,  avg # of iterations =  3.0

     total cpu time spent up to now is        7.8 secs

     total energy              =     -34.26530654 Ry
     estimated scf accuracy    <          9.2E-10 Ry

     iteration # 26     ecut=    80.00 Ry     beta= 0.70
     Davidson diagonalization with overlap
     ethr =  1.16E-11,  avg # of iterations =  3.0

     total cpu time spent up to now is        8.0 secs

     total energy              =     -34.26530654 Ry
     estimated scf accuracy    <          3.3E-10 Ry

     iteration # 27     ecut=    80.00 Ry     beta= 0.70
     Davidson diagonalization with overlap
     ethr =  4.15E-12,  avg # of iterations =  1.0

     total cpu time spent up to now is        8.2 secs

     total energy              =     -34.26530654 Ry
     estimated scf accuracy    <          1.5E-10 Ry

     iteration # 28     ecut=    80.00 Ry     beta= 0.70
     Davidson diagonalization with overlap
     ethr =  1.82E-12,  avg # of iterations =  2.0

     total cpu time spent up to now is        8.5 secs

     total energy              =     -34.26530654 Ry
     estimated scf accuracy    <          3.5E-13 Ry

     iteration # 29     ecut=    80.00 Ry     beta= 0.70
     Davidson diagonalization with overlap
     ethr =  1.00E-13,  avg # of iterations =  2.0

     total cpu time spent up to now is        8.7 secs

     total energy              =     -34.26530654 Ry
     estimated scf accuracy    <          2.1E-13 Ry

     iteration # 30     ecut=    80.00 Ry     beta= 0.70
     Davidson diagonalization with overlap
     ethr =  1.00E-13,  avg # of iterations =  1.0

     total cpu time spent up to now is        8.9 secs

     total energy              =     -34.26530654 Ry
     estimated scf accuracy    <          2.2E-13 Ry

     iteration # 31     ecut=    80.00 Ry     beta= 0.70
     Davidson diagonalization with overlap
     ethr =  1.00E-13,  avg # of iterations =  1.0

     total cpu time spent up to now is        9.1 secs

     total energy              =     -34.26530654 Ry
     estimated scf accuracy    <          9.4E-14 Ry

     iteration # 32     ecut=    80.00 Ry     beta= 0.70
     Davidson diagonalization with overlap
     ethr =  1.00E-13,  avg # of iterations =  1.0

     total cpu time spent up to now is        9.4 secs

     total energy              =     -34.26530654 Ry
     estimated scf accuracy    <          3.3E-14 Ry

     iteration # 33     ecut=    80.00 Ry     beta= 0.70
     Davidson diagonalization with overlap
     ethr =  1.00E-13,  avg # of iterations =  1.0

     total cpu time spent up to now is        9.6 secs

     total energy              =     -34.26530654 Ry
     estimated scf accuracy    <          3.5E-16 Ry

     iteration # 34     ecut=    80.00 Ry     beta= 0.70
     Davidson diagonalization with overlap
     ethr =  1.00E-13,  avg # of iterations =  1.0

     total cpu time spent up to now is        9.8 secs

     total energy              =     -34.26530654 Ry
     estimated scf accuracy    <          1.9E-16 Ry

     iteration # 35     ecut=    80.00 Ry     beta= 0.70
     Davidson diagonalization with overlap
     ethr =  1.00E-13,  avg # of iterations =  1.0

     total cpu time spent up to now is       10.0 secs

     total energy              =     -34.26530654 Ry
     estimated scf accuracy    <          5.6E-16 Ry

     iteration # 36     ecut=    80.00 Ry     beta= 0.70
     Davidson diagonalization with overlap
     ethr =  1.00E-13,  avg # of iterations =  1.0

     total cpu time spent up to now is       10.3 secs

     total energy              =     -34.26530654 Ry
     estimated scf accuracy    <          3.3E-16 Ry

     iteration # 37     ecut=    80.00 Ry     beta= 0.70
     Davidson diagonalization with overlap
     ethr =  1.00E-13,  avg # of iterations =  1.0

     total cpu time spent up to now is       10.5 secs

     End of self-consistent calculation

          k = 0.0000 0.0000 0.0000 (  6027 PWs)   bands (ev):

   -22.6282 -10.3804  -8.2371  -5.8927

     highest occupied level (ev):    -5.8927

!    total energy              =     -34.26530654 Ry
     estimated scf accuracy    <          4.5E-18 Ry

     convergence has been achieved in  37 iterations
     charge density from previous step

     total cpu time spent up to now is       10.7 secs

     Self-consistent Calculation

     iteration #  1     ecut=    80.00 Ry     beta= 0.70
     Davidson diagonalization with overlap
     ethr =  1.00E-03,  avg # of iterations = 18.0

     total cpu time spent up to now is       11.2 secs

     total energy              =     -36.11706232 Ry
     estimated scf accuracy    <      24.36172367 Ry

     iteration #  2     ecut=    80.00 Ry     beta= 0.70
     Davidson diagonalization with overlap
     ethr =  1.00E-02,  avg # of iterations =  4.0

     negative rho (up, down):  5.108E-01 0.000E+00

     total cpu time spent up to now is       11.5 secs

     total energy              =     -31.00721701 Ry
     estimated scf accuracy    <       8.70781060 Ry

     iteration #  3     ecut=    80.00 Ry     beta= 0.70
     Davidson diagonalization with overlap
     ethr =  1.00E-02,  avg # of iterations =  9.0

     total cpu time spent up to now is       11.8 secs

     total energy              =     -26.20662748 Ry
     estimated scf accuracy    <      41.77679081 Ry

     iteration #  4     ecut=    80.00 Ry     beta= 0.70
     Davidson diagonalization with overlap
     ethr =  1.00E-02,  avg # of iterations =  9.0

     total cpu time spent up to now is       12.1 secs

     total energy              =     -34.18713189 Ry
     estimated scf accuracy    <       0.80758387 Ry

     iteration #  5     ecut=    80.00 Ry     beta= 0.70
     Davidson diagonalization with overlap
     ethr =  1.00E-02,  avg # of iterations =  3.0

     total cpu time spent up to now is       12.3 secs

     total energy              =     -34.61429787 Ry
     estimated scf accuracy    <       1.12966626 Ry

     iteration #  6     ecut=    80.00 Ry     beta= 0.70
     Davidson diagonalization with overlap
     ethr =  1.00E-02,  avg # of iterations =  1.0

     total cpu time spent up to now is       12.5 secs

     total energy              =     -34.60963181 Ry
     estimated scf accuracy    <       1.31275947 Ry

     iteration #  7     ecut=    80.00 Ry     beta= 0.70
     Davidson diagonalization with overlap
     ethr =  1.00E-02,  avg # of iterations =  1.0

     total cpu time spent up to now is       12.7 secs

     total energy              =     -34.63320421 Ry
     estimated scf accuracy    <       1.32887699 Ry

     iteration #  8     ecut=    80.00 Ry     beta= 0.70
     Davidson diagonalization with overlap
     ethr =  1.00E-02,  avg # of iterations =  1.0

     total cpu time spent up to now is       12.9 secs

     total energy              =     -34.47901471 Ry
     estimated scf accuracy    <       1.43976331 Ry

     iteration #  9     ecut=    80.00 Ry     beta= 0.70
     Davidson diagonalization with overlap
     ethr =  1.00E-02,  avg # of iterations =  1.0

     total cpu time spent up to now is       13.1 secs

     total energy              =     -34.40367370 Ry
     estimated scf accuracy    <       1.01142558 Ry

     iteration # 10     ecut=    80.00 Ry     beta= 0.70
     Davidson diagonalization with overlap
     ethr =  1.00E-02,  avg # of iterations =  1.0

     negative rho (up, down):  3.599E-01 0.000E+00

     total cpu time spent up to now is       13.3 secs

     total energy              =     -34.06050317 Ry
     estimated scf accuracy    <       0.69856647 Ry

     iteration # 11     ecut=    80.00 Ry     beta= 0.70
     Davidson diagonalization with overlap
     ethr =  8.73E-03,  avg # of iterations =  3.0

     negative rho (up, down):  3.439E-01 0.000E+00

     total cpu time spent up to now is       13.6 secs

     total energy              =     -34.34459452 Ry
     estimated scf accuracy    <       0.30841431 Ry

     iteration # 12     ecut=    80.00 Ry     beta= 0.70
     Davidson diagonalization with overlap
     ethr =  3.86E-03,  avg # of iterations =  1.0

     negative rho (up, down):  2.171E-04 0.000E+00

     total cpu time spent up to now is       13.8 secs

     total energy              =     -34.21500522 Ry
     estimated scf accuracy    <       0.21085999 Ry

     iteration # 13     ecut=    80.00 Ry     beta= 0.70
     Davidson diagonalization with overlap
     ethr =  2.64E-03,  avg # of iterations =  2.0

     negative rho (up, down):  1.748E-05 0.000E+00

     total cpu time spent up to now is       14.0 secs

     total energy              =     -34.26583309 Ry
     estimated scf accuracy    <       0.01744894 Ry

     iteration # 14     ecut=    80.00 Ry     beta= 0.70
     Davidson diagonalization with overlap
     ethr =  2.18E-04,  avg # of iterations =  1.0

     negative rho (up, down):  1.478E-04 0.000E+00

     total cpu time spent up to now is       14.3 secs

     total energy              =     -34.26410251 Ry
     estimated scf accuracy    <       0.01175455 Ry

     iteration # 15     ecut=    80.00 Ry     beta= 0.70
     Davidson diagonalization with overlap
     ethr =  1.47E-04,  avg # of iterations =  1.0

     negative rho (up, down):  1.873E-05 0.000E+00

     total cpu time spent up to now is       14.5 secs

     total energy              =     -34.26468231 Ry
     estimated scf accuracy    <       0.00608459 Ry

     iteration # 16     ecut=    80.00 Ry     beta= 0.70
     Davidson diagonalization with overlap
     ethr =  7.61E-05,  avg # of iterations =  1.0

     negative rho (up, down):  1.007E-05 0.000E+00

     total cpu time spent up to now is       14.7 secs

     total energy              =     -34.26335070 Ry
     estimated scf accuracy    <       0.00668506 Ry

     iteration # 17     ecut=    80.00 Ry     beta= 0.70
     Davidson diagonalization with overlap
     ethr =  7.61E-05,  avg # of iterations =  1.0

     negative rho (up, down):  3.631E-04 0.000E+00

     total cpu time spent up to now is       14.9 secs

     total energy              =     -34.26346147 Ry
     estimated scf accuracy    <       0.00228185 Ry

     iteration # 18     ecut=    80.00 Ry     beta= 0.70
     Davidson diagonalization with overlap
     ethr =  2.85E-05,  avg # of iterations =  1.0

     negative rho (up, down):  4.693E-05 0.000E+00

     total cpu time spent up to now is       15.1 secs

     total energy              =     -34.26269610 Ry
     estimated scf accuracy    <       0.00202529 Ry

     iteration # 19     ecut=    80.00 Ry     beta= 0.70
     Davidson diagonalization with overlap
     ethr =  2.53E-05,  avg # of iterations =  2.0

     total cpu time spent up to now is       15.4 secs

     total energy              =     -34.26321868 Ry
     estimated scf accuracy    <       0.00006589 Ry

     iteration # 20     ecut=    80.00 Ry     beta= 0.70
     Davidson diagonalization with overlap
     ethr =  8.24E-07,  avg # of iterations =  3.0

     total cpu time spent up to now is       15.6 secs

     total energy              =     -34.26323625 Ry
     estimated scf accuracy    <       0.00001100 Ry

     iteration # 21     ecut=    80.00 Ry     beta= 0.70
     Davidson diagonalization with overlap
     ethr =  1.37E-07,  avg # of iterations =  2.0

     total cpu time spent up to now is       15.9 secs

     total energy              =     -34.26323834 Ry
     estimated scf accuracy    <       0.00000045 Ry

     iteration # 22     ecut=    80.00 Ry     beta= 0.70
     Davidson diagonalization with overlap
     ethr =  5.68E-09,  avg # of iterations =  2.0

     total cpu time spent up to now is       16.1 secs

     total energy              =     -34.26323843 Ry
     estimated scf accuracy    <       0.00000002 Ry

     iteration # 23     ecut=    80.00 Ry     beta= 0.70
     Davidson diagonalization with overlap
     ethr =  2.04E-10,  avg # of iterations =  2.0

     total cpu time spent up to now is       16.3 secs

     total energy              =     -34.26323843 Ry
     estimated scf accuracy    <          4.8E-09 Ry

     iteration # 24     ecut=    80.00 Ry     beta= 0.70
     Davidson diagonalization with overlap
     ethr =  6.00E-11,  avg # of iterations =  3.0

     total cpu time spent up to now is       16.5 secs

     total energy              =     -34.26323844 Ry
     estimated scf accuracy    <          3.3E-10 Ry

     iteration # 25     ecut=    80.00 Ry     beta= 0.70
     Davidson diagonalization with overlap
     ethr =  4.16E-12,  avg # of iterations =  2.0

     total cpu time spent up to now is       16.8 secs

     total energy              =     -34.26323844 Ry
     estimated scf accuracy    <          6.1E-11 Ry

     iteration # 26     ecut=    80.00 Ry     beta= 0.70
     Davidson diagonalization with overlap
     ethr =  7.60E-13,  avg # of iterations =  2.0

     total cpu time spent up to now is       17.0 secs

     total energy              =     -34.26323844 Ry
     estimated scf accuracy    <          1.5E-12 Ry

     iteration # 27     ecut=    80.00 Ry     beta= 0.70
     Davidson diagonalization with overlap
     ethr =  1.00E-13,  avg # of iterations =  1.0

     total cpu time spent up to now is       17.2 secs

     total energy              =     -34.26323844 Ry
     estimated scf accuracy    <          5.9E-14 Ry

     iteration # 28     ecut=    80.00 Ry     beta= 0.70
     Davidson diagonalization with overlap
     ethr =  1.00E-13,  avg # of iterations =  1.0

     total cpu time spent up to now is       17.5 secs

     total energy              =     -34.26323844 Ry
     estimated scf accuracy    <          5.4E-14 Ry

     iteration # 29     ecut=    80.00 Ry     beta= 0.70
     Davidson diagonalization with overlap
     ethr =  1.00E-13,  avg # of iterations =  1.0

     total cpu time spent up to now is       17.7 secs

     total energy              =     -34.26323844 Ry
     estimated scf accuracy    <          2.5E-15 Ry

     iteration # 30     ecut=    80.00 Ry     beta= 0.70
     Davidson diagonalization with overlap
     ethr =  1.00E-13,  avg # of iterations =  1.0

     total cpu time spent up to now is       17.9 secs

     total energy              =     -34.26323844 Ry
     estimated scf accuracy    <          4.7E-16 Ry

     iteration # 31     ecut=    80.00 Ry     beta= 0.70
     Davidson diagonalization with overlap
     ethr =  1.00E-13,  avg # of iterations =  1.0

     total cpu time spent up to now is       18.1 secs

     total energy              =     -34.26323844 Ry
     estimated scf accuracy    <          3.9E-16 Ry

     iteration # 32     ecut=    80.00 Ry     beta= 0.70
     Davidson diagonalization with overlap
     ethr =  1.00E-13,  avg # of iterations =  1.0

     total cpu time spent up to now is       18.3 secs

     total energy              =     -34.26323844 Ry
     estimated scf accuracy    <          2.6E-16 Ry

     iteration # 33     ecut=    80.00 Ry     beta= 0.70
     Davidson diagonalization with overlap
     ethr =  1.00E-13,  avg # of iterations =  1.0

     total cpu time spent up to now is       18.6 secs

     total energy              =     -34.26323844 Ry
     estimated scf accuracy    <          1.2E-16 Ry

     iteration # 34     ecut=    80.00 Ry     beta= 0.70
     Davidson diagonalization with overlap
     ethr =  1.00E-13,  avg # of iterations =  1.0

     total cpu time spent up to now is       18.8 secs

     total energy              =     -34.26323844 Ry
     estimated scf accuracy    <          3.2E-17 Ry

     iteration # 35     ecut=    80.00 Ry     beta= 0.70
     Davidson diagonalization with overlap
     ethr =  1.00E-13,  avg # of iterations =  1.0

     total cpu time spent up to now is       19.0 secs

     End of self-consistent calculation

          k = 0.0000 0.0000 0.0000 (  6027 PWs)   bands (ev):

   -22.6104 -10.3601  -8.2348  -5.8889

     highest occupied level (ev):    -5.8889

!    total energy              =     -34.26323844 Ry
     estimated scf accuracy    <          2.8E-18 Ry

     convergence has been achieved in  35 iterations
 ROUTINE_ZERO BEGINNING
 check_charge   4.0000000000001315     
     zero_current :      0.08s CPU      0.09s WALL (       1 calls)
 ZERO CURRENT CALCULATED
     routine_zero :      0.08s CPU      0.09s WALL (       1 calls)
     calcolo_i    :      0.00s CPU      0.00s WALL (       1 calls)
 IONIC CURRENT CALCULATED
 BEGIN: HARTREE & KOHN
 check_charge   4.0000000000001315     
 check_charge   3.9999999999999427     
     hartree_curr :      0.05s CPU      0.06s WALL (       1 calls)
 HARTREE CURRENT CALCULATED
     xc_current   :      0.04s CPU      0.04s WALL (       1 calls)
 X-C CURRENT CALCULATED
     charge density from previous step
     project      :      0.34s CPU      0.36s WALL (       1 calls)
     kohn-first   :      0.00s CPU      0.00s WALL (       1 calls)
     kohn-second  :      0.00s CPU      0.00s WALL (       1 calls)
  KOHN POLARIZATION   1 COMPLETED
     project      :      0.70s CPU      0.77s WALL (       2 calls)
     kohn-first   :      0.00s CPU      0.00s WALL (       2 calls)
     kohn-second  :      0.00s CPU      0.00s WALL (       2 calls)
  KOHN POLARIZATION   2 COMPLETED
     project      :      1.02s CPU      1.09s WALL (       3 calls)
     kohn-first   :      0.00s CPU      0.00s WALL (       3 calls)
     kohn-second  :      0.00s CPU      0.00s WALL (       3 calls)
  KOHN POLARIZATION   3 COMPLETED
     kohn_current :      1.16s CPU      1.27s WALL (       1 calls)
 KOHN CURRENT CALCULATED
total energy current:   0.665680153566E-04 -0.281088736119E-03  0.115200793526E-02
center of mass velocity of type   1:   0.216571054201E-02  0.250280869520E-02 -0.478096489241E-02
center of mass velocity of type   2:  -0.270713817752E-03 -0.312851086900E-03  0.597620611552E-03
 REPETITION            1
     charge density from previous step

     total cpu time spent up to now is       20.6 secs

     Self-consistent Calculation

     iteration #  1     ecut=    80.00 Ry     beta= 0.70
     Davidson diagonalization with overlap
     ethr =  1.00E-03,  avg # of iterations = 15.0

     total cpu time spent up to now is       21.0 secs

     total energy              =     -36.05606053 Ry
     estimated scf accuracy    <      23.57567406 Ry

     iteration #  2     ecut=    80.00 Ry     beta= 0.70
     Davidson diagonalization with overlap
     ethr =  1.00E-02,  avg # of iterations =  4.0

     negative rho (up, down):  5.082E-01 0.000E+00

     total cpu time spent up to now is       21.2 secs

     total energy              =     -30.99868224 Ry
     estimated scf accuracy    <       8.73172595 Ry

     iteration #  3     ecut=    80.00 Ry     beta= 0.70
     Davidson diagonalization with overlap
     ethr =  1.00E-02,  avg # of iterations =  9.0

     total cpu time spent up to now is       21.4 secs

     total energy              =     -25.85274013 Ry
     estimated scf accuracy    <      42.13656626 Ry

     iteration #  4     ecut=    80.00 Ry     beta= 0.70
     Davidson diagonalization with overlap
     ethr =  1.00E-02,  avg # of iterations =  9.0

     total cpu time spent up to now is       21.7 secs

     total energy              =     -34.13097411 Ry
     estimated scf accuracy    <       0.94375421 Ry

     iteration #  5     ecut=    80.00 Ry     beta= 0.70
     Davidson diagonalization with overlap
     ethr =  1.00E-02,  avg # of iterations =  3.0

     total cpu time spent up to now is       21.9 secs

     total energy              =     -34.58916228 Ry
     estimated scf accuracy    <       0.99474396 Ry

     iteration #  6     ecut=    80.00 Ry     beta= 0.70
     Davidson diagonalization with overlap
     ethr =  1.00E-02,  avg # of iterations =  1.0

     total cpu time spent up to now is       22.1 secs

     total energy              =     -34.57476447 Ry
     estimated scf accuracy    <       1.20227510 Ry

     iteration #  7     ecut=    80.00 Ry     beta= 0.70
     Davidson diagonalization with overlap
     ethr =  1.00E-02,  avg # of iterations =  1.0

     total cpu time spent up to now is       22.3 secs

     total energy              =     -34.59596149 Ry
     estimated scf accuracy    <       1.18144286 Ry

     iteration #  8     ecut=    80.00 Ry     beta= 0.70
     Davidson diagonalization with overlap
     ethr =  1.00E-02,  avg # of iterations =  1.0

     total cpu time spent up to now is       22.5 secs

     total energy              =     -34.47073626 Ry
     estimated scf accuracy    <       1.28893026 Ry

     iteration #  9     ecut=    80.00 Ry     beta= 0.70
     Davidson diagonalization with overlap
     ethr =  1.00E-02,  avg # of iterations =  1.0

     total cpu time spent up to now is       22.7 secs

     total energy              =     -34.39661625 Ry
     estimated scf accuracy    <       0.94525688 Ry

     iteration # 10     ecut=    80.00 Ry     beta= 0.70
     Davidson diagonalization with overlap
     ethr =  1.00E-02,  avg # of iterations =  1.0

     negative rho (up, down):  3.641E-01 0.000E+00

     total cpu time spent up to now is       22.8 secs

     total energy              =     -34.09840345 Ry
     estimated scf accuracy    <       0.63627143 Ry

     iteration # 11     ecut=    80.00 Ry     beta= 0.70
     Davidson diagonalization with overlap
     ethr =  7.95E-03,  avg # of iterations =  2.0

     negative rho (up, down):  3.253E-01 0.000E+00

     total cpu time spent up to now is       23.0 secs

     total energy              =     -34.33281675 Ry
     estimated scf accuracy    <       0.21119455 Ry

     iteration # 12     ecut=    80.00 Ry     beta= 0.70
     Davidson diagonalization with overlap
     ethr =  2.64E-03,  avg # of iterations =  1.0

     negative rho (up, down):  3.731E-04 0.000E+00

     total cpu time spent up to now is       23.2 secs

     total energy              =     -34.23413500 Ry
     estimated scf accuracy    <       0.14793103 Ry

     iteration # 13     ecut=    80.00 Ry     beta= 0.70
     Davidson diagonalization with overlap
     ethr =  1.85E-03,  avg # of iterations =  2.0

     negative rho (up, down):  7.368E-05 0.000E+00

     total cpu time spent up to now is       23.4 secs

     total energy              =     -34.26568505 Ry
     estimated scf accuracy    <       0.01276983 Ry

     iteration # 14     ecut=    80.00 Ry     beta= 0.70
     Davidson diagonalization with overlap
     ethr =  1.60E-04,  avg # of iterations =  1.0

     negative rho (up, down):  2.937E-05 0.000E+00

     total cpu time spent up to now is       23.7 secs

     total energy              =     -34.26542274 Ry
     estimated scf accuracy    <       0.00492103 Ry

     iteration # 15     ecut=    80.00 Ry     beta= 0.70
     Davidson diagonalization with overlap
     ethr =  6.15E-05,  avg # of iterations =  1.0

     negative rho (up, down):  4.328E-06 0.000E+00

     total cpu time spent up to now is       23.9 secs

     total energy              =     -34.26577971 Ry
     estimated scf accuracy    <       0.00225550 Ry

     iteration # 16     ecut=    80.00 Ry     beta= 0.70
     Davidson diagonalization with overlap
     ethr =  2.82E-05,  avg # of iterations =  1.0

     total cpu time spent up to now is       24.1 secs

     total energy              =     -34.26549563 Ry
     estimated scf accuracy    <       0.00247956 Ry

     iteration # 17     ecut=    80.00 Ry     beta= 0.70
     Davidson diagonalization with overlap
     ethr =  2.82E-05,  avg # of iterations =  1.0

     negative rho (up, down):  4.698E-04 0.000E+00

     total cpu time spent up to now is       24.3 secs

     total energy              =     -34.26598208 Ry
     estimated scf accuracy    <       0.00141218 Ry

     iteration # 18     ecut=    80.00 Ry     beta= 0.70
     Davidson diagonalization with overlap
     ethr =  1.77E-05,  avg # of iterations =  2.0

     negative rho (up, down):  4.622E-05 0.000E+00

     total cpu time spent up to now is       24.5 secs

     total energy              =     -34.26526813 Ry
     estimated scf accuracy    <       0.00301479 Ry

     iteration # 19     ecut=    80.00 Ry     beta= 0.70
     Davidson diagonalization with overlap
     ethr =  1.77E-05,  avg # of iterations =  2.0

     negative rho (up, down):  6.864E-05 0.000E+00

     total cpu time spent up to now is       24.7 secs

     total energy              =     -34.26512988 Ry
     estimated scf accuracy    <       0.00071973 Ry

     iteration # 20     ecut=    80.00 Ry     beta= 0.70
     Davidson diagonalization with overlap
     ethr =  9.00E-06,  avg # of iterations =  2.0

     negative rho (up, down):  7.904E-07 0.000E+00

     total cpu time spent up to now is       24.9 secs

     total energy              =     -34.26530235 Ry
     estimated scf accuracy    <       0.00000626 Ry

     iteration # 21     ecut=    80.00 Ry     beta= 0.70
     Davidson diagonalization with overlap
     ethr =  7.83E-08,  avg # of iterations =  5.0

     total cpu time spent up to now is       25.1 secs

     total energy              =     -34.26530635 Ry
     estimated scf accuracy    <       0.00000888 Ry

     iteration # 22     ecut=    80.00 Ry     beta= 0.70
     Davidson diagonalization with overlap
     ethr =  7.83E-08,  avg # of iterations =  2.0

     total cpu time spent up to now is       25.3 secs

     total energy              =     -34.26530600 Ry
     estimated scf accuracy    <       0.00000212 Ry

     iteration # 23     ecut=    80.00 Ry     beta= 0.70
     Davidson diagonalization with overlap
     ethr =  2.65E-08,  avg # of iterations =  2.0

     total cpu time spent up to now is       25.5 secs

     total energy              =     -34.26530653 Ry
     estimated scf accuracy    <          8.7E-09 Ry

     iteration # 24     ecut=    80.00 Ry     beta= 0.70
     Davidson diagonalization with overlap
     ethr =  1.09E-10,  avg # of iterations =  5.0

     total cpu time spent up to now is       25.7 secs

     total energy              =     -34.26530654 Ry
     estimated scf accuracy    <       0.00000001 Ry

     iteration # 25     ecut=    80.00 Ry     beta= 0.70
     Davidson diagonalization with overlap
     ethr =  1.09E-10,  avg # of iterations =  2.0

     total cpu time spent up to now is       25.9 secs

     total energy              =     -34.26530654 Ry
     estimated scf accuracy    <          5.0E-10 Ry

     iteration # 26     ecut=    80.00 Ry     beta= 0.70
     Davidson diagonalization with overlap
     ethr =  6.27E-12,  avg # of iterations =  3.0

     total cpu time spent up to now is       26.1 secs

     total energy              =     -34.26530654 Ry
     estimated scf accuracy    <          9.7E-11 Ry

     iteration # 27     ecut=    80.00 Ry     beta= 0.70
     Davidson diagonalization with overlap
     ethr =  1.21E-12,  avg # of iterations =  2.0

     total cpu time spent up to now is       26.3 secs

     total energy              =     -34.26530654 Ry
     estimated scf accuracy    <          3.3E-11 Ry

     iteration # 28     ecut=    80.00 Ry     beta= 0.70
     Davidson diagonalization with overlap
     ethr =  4.16E-13,  avg # of iterations =  2.0

     total cpu time spent up to now is       26.5 secs

     total energy              =     -34.26530654 Ry
     estimated scf accuracy    <          8.3E-14 Ry

     iteration # 29     ecut=    80.00 Ry     beta= 0.70
     Davidson diagonalization with overlap
     ethr =  1.00E-13,  avg # of iterations =  1.0

     total cpu time spent up to now is       26.7 secs

     total energy              =     -34.26530654 Ry
     estimated scf accuracy    <          3.9E-13 Ry

     iteration # 30     ecut=    80.00 Ry     beta= 0.70
     Davidson diagonalization with overlap
     ethr =  1.00E-13,  avg # of iterations =  1.0

     total cpu time spent up to now is       26.8 secs

     total energy              =     -34.26530654 Ry
     estimated scf accuracy    <          7.5E-14 Ry

     iteration # 31     ecut=    80.00 Ry     beta= 0.70
     Davidson diagonalization with overlap
     ethr =  1.00E-13,  avg # of iterations =  1.0

     total cpu time spent up to now is       27.0 secs

     total energy              =     -34.26530654 Ry
     estimated scf accuracy    <          2.9E-15 Ry

     iteration # 32     ecut=    80.00 Ry     beta= 0.70
     Davidson diagonalization with overlap
     ethr =  1.00E-13,  avg # of iterations =  1.0

     total cpu time spent up to now is       27.3 secs

     total energy              =     -34.26530654 Ry
     estimated scf accuracy    <          7.2E-16 Ry

     iteration # 33     ecut=    80.00 Ry     beta= 0.70
     Davidson diagonalization with overlap
     ethr =  1.00E-13,  avg # of iterations =  1.0

     total cpu time spent up to now is       27.4 secs

     total energy              =     -34.26530654 Ry
     estimated scf accuracy    <          2.1E-15 Ry

     iteration # 34     ecut=    80.00 Ry     beta= 0.70
     Davidson diagonalization with overlap
     ethr =  1.00E-13,  avg # of iterations =  1.0

     total cpu time spent up to now is       27.6 secs

     total energy              =     -34.26530654 Ry
     estimated scf accuracy    <          5.1E-16 Ry

     iteration # 35     ecut=    80.00 Ry     beta= 0.70
     Davidson diagonalization with overlap
     ethr =  1.00E-13,  avg # of iterations =  1.0

     total cpu time spent up to now is       27.8 secs

     total energy              =     -34.26530654 Ry
     estimated scf accuracy    <          1.4E-16 Ry

     iteration # 36     ecut=    80.00 Ry     beta= 0.70
     Davidson diagonalization with overlap
     ethr =  1.00E-13,  avg # of iterations =  1.0

     total cpu time spent up to now is       28.0 secs

     total energy              =     -34.26530654 Ry
     estimated scf accuracy    <          4.1E-17 Ry

     iteration # 37     ecut=    80.00 Ry     beta= 0.70
     Davidson diagonalization with overlap
     ethr =  1.00E-13,  avg # of iterations =  1.0

     total cpu time spent up to now is       28.2 secs

     total energy              =     -34.26530654 Ry
     estimated scf accuracy    <          1.1E-17 Ry

     iteration # 38     ecut=    80.00 Ry     beta= 0.70
     Davidson diagonalization with overlap
     ethr =  1.00E-13,  avg # of iterations =  1.0

     total cpu time spent up to now is       28.3 secs

     End of self-consistent calculation

          k = 0.0000 0.0000 0.0000 (  6027 PWs)   bands (ev):

   -22.6282 -10.3804  -8.2371  -5.8927

     highest occupied level (ev):    -5.8927

!    total energy              =     -34.26530654 Ry
     estimated scf accuracy    <          3.4E-18 Ry

     convergence has been achieved in  38 iterations
     charge density from previous step

     total cpu time spent up to now is       28.5 secs

     Self-consistent Calculation

     iteration #  1     ecut=    80.00 Ry     beta= 0.70
     Davidson diagonalization with overlap
     ethr =  1.00E-03,  avg # of iterations = 15.0

     total cpu time spent up to now is       28.8 secs

     total energy              =     -35.99145451 Ry
     estimated scf accuracy    <      22.80117078 Ry

     iteration #  2     ecut=    80.00 Ry     beta= 0.70
     Davidson diagonalization with overlap
     ethr =  1.00E-02,  avg # of iterations =  4.0

     negative rho (up, down):  4.961E-01 0.000E+00

     total cpu time spent up to now is       29.1 secs

     total energy              =     -31.12739928 Ry
     estimated scf accuracy    <       8.30345587 Ry

     iteration #  3     ecut=    80.00 Ry     beta= 0.70
     Davidson diagonalization with overlap
     ethr =  1.00E-02,  avg # of iterations =  9.0

     total cpu time spent up to now is       29.3 secs

     total energy              =     -26.21549967 Ry
     estimated scf accuracy    <      41.23090218 Ry

     iteration #  4     ecut=    80.00 Ry     beta= 0.70
     Davidson diagonalization with overlap
     ethr =  1.00E-02,  avg # of iterations =  9.0

     total cpu time spent up to now is       29.6 secs

     total energy              =     -34.16475076 Ry
     estimated scf accuracy    <       0.81637436 Ry

     iteration #  5     ecut=    80.00 Ry     beta= 0.70
     Davidson diagonalization with overlap
     ethr =  1.00E-02,  avg # of iterations =  2.0

     total cpu time spent up to now is       29.7 secs

     total energy              =     -34.58066675 Ry
     estimated scf accuracy    <       0.99924612 Ry

     iteration #  6     ecut=    80.00 Ry     beta= 0.70
     Davidson diagonalization with overlap
     ethr =  1.00E-02,  avg # of iterations =  1.0

     total cpu time spent up to now is       29.9 secs

     total energy              =     -34.58318190 Ry
     estimated scf accuracy    <       1.18557589 Ry

     iteration #  7     ecut=    80.00 Ry     beta= 0.70
     Davidson diagonalization with overlap
     ethr =  1.00E-02,  avg # of iterations =  1.0

     total cpu time spent up to now is       30.1 secs

     total energy              =     -34.58844469 Ry
     estimated scf accuracy    <       1.21154693 Ry

     iteration #  8     ecut=    80.00 Ry     beta= 0.70
     Davidson diagonalization with overlap
     ethr =  1.00E-02,  avg # of iterations =  1.0

     total cpu time spent up to now is       30.3 secs

     total energy              =     -34.53514254 Ry
     estimated scf accuracy    <       1.26868827 Ry

     iteration #  9     ecut=    80.00 Ry     beta= 0.70
     Davidson diagonalization with overlap
     ethr =  1.00E-02,  avg # of iterations =  1.0

     total cpu time spent up to now is       30.5 secs

     total energy              =     -34.39149154 Ry
     estimated scf accuracy    <       1.13873721 Ry

     iteration # 10     ecut=    80.00 Ry     beta= 0.70
     Davidson diagonalization with overlap
     ethr =  1.00E-02,  avg # of iterations =  1.0

     negative rho (up, down):  2.282E-01 0.000E+00

     total cpu time spent up to now is       30.7 secs

     total energy              =     -34.10154667 Ry
     estimated scf accuracy    <       0.62529592 Ry

     iteration # 11     ecut=    80.00 Ry     beta= 0.70
     Davidson diagonalization with overlap
     ethr =  7.82E-03,  avg # of iterations =  2.0

     negative rho (up, down):  2.771E-01 0.000E+00

     total cpu time spent up to now is       30.9 secs

     total energy              =     -34.32057105 Ry
     estimated scf accuracy    <       0.12726476 Ry

     iteration # 12     ecut=    80.00 Ry     beta= 0.70
     Davidson diagonalization with overlap
     ethr =  1.59E-03,  avg # of iterations =  1.0

     negative rho (up, down):  2.424E-03 0.000E+00

     total cpu time spent up to now is       31.1 secs

     total energy              =     -34.24905420 Ry
     estimated scf accuracy    <       0.13049984 Ry

     iteration # 13     ecut=    80.00 Ry     beta= 0.70
     Davidson diagonalization with overlap
     ethr =  1.59E-03,  avg # of iterations =  2.0

     negative rho (up, down):  3.011E-03 0.000E+00

     total cpu time spent up to now is       31.2 secs

     total energy              =     -34.26034564 Ry
     estimated scf accuracy    <       0.00908849 Ry

     iteration # 14     ecut=    80.00 Ry     beta= 0.70
     Davidson diagonalization with overlap
     ethr =  1.14E-04,  avg # of iterations =  3.0

     negative rho (up, down):  1.663E-03 0.000E+00

     total cpu time spent up to now is       31.4 secs

     total energy              =     -34.26259705 Ry
     estimated scf accuracy    <       0.00240154 Ry

     iteration # 15     ecut=    80.00 Ry     beta= 0.70
     Davidson diagonalization with overlap
     ethr =  3.00E-05,  avg # of iterations =  1.0

     negative rho (up, down):  2.614E-03 0.000E+00

     total cpu time spent up to now is       31.6 secs

     total energy              =     -34.26269161 Ry
     estimated scf accuracy    <       0.00163748 Ry

     iteration # 16     ecut=    80.00 Ry     beta= 0.70
     Davidson diagonalization with overlap
     ethr =  2.05E-05,  avg # of iterations =  1.0

     negative rho (up, down):  2.331E-04 0.000E+00

     total cpu time spent up to now is       31.8 secs

     total energy              =     -34.26304496 Ry
     estimated scf accuracy    <       0.00241627 Ry

     iteration # 17     ecut=    80.00 Ry     beta= 0.70
     Davidson diagonalization with overlap
     ethr =  2.05E-05,  avg # of iterations =  2.0

     negative rho (up, down):  1.708E-04 0.000E+00

     total cpu time spent up to now is       32.0 secs

     total energy              =     -34.26352443 Ry
     estimated scf accuracy    <       0.00034624 Ry

     iteration # 18     ecut=    80.00 Ry     beta= 0.70
     Davidson diagonalization with overlap
     ethr =  4.33E-06,  avg # of iterations =  3.0

     negative rho (up, down):  1.698E-05 0.000E+00

     total cpu time spent up to now is       32.2 secs

     total energy              =     -34.26332961 Ry
     estimated scf accuracy    <       0.00226352 Ry

     iteration # 19     ecut=    80.00 Ry     beta= 0.70
     Davidson diagonalization with overlap
     ethr =  4.33E-06,  avg # of iterations =  2.0

     negative rho (up, down):  7.034E-06 0.000E+00

     total cpu time spent up to now is       32.4 secs

     total energy              =     -34.26334334 Ry
     estimated scf accuracy    <       0.00088466 Ry

     iteration # 20     ecut=    80.00 Ry     beta= 0.70
     Davidson diagonalization with overlap
     ethr =  4.33E-06,  avg # of iterations =  1.0

     negative rho (up, down):  2.224E-05 0.000E+00

     total cpu time spent up to now is       32.5 secs

     total energy              =     -34.26324378 Ry
     estimated scf accuracy    <       0.00060967 Ry

     iteration # 21     ecut=    80.00 Ry     beta= 0.70
     Davidson diagonalization with overlap
     ethr =  4.33E-06,  avg # of iterations =  1.0

     negative rho (up, down):  2.497E-06 0.000E+00

     total cpu time spent up to now is       32.7 secs

     total energy              =     -34.26321579 Ry
     estimated scf accuracy    <       0.00023969 Ry

     iteration # 22     ecut=    80.00 Ry     beta= 0.70
     Davidson diagonalization with overlap
     ethr =  3.00E-06,  avg # of iterations =  2.0

     negative rho (up, down):  1.318E-07 0.000E+00

     total cpu time spent up to now is       32.9 secs

     total energy              =     -34.26321611 Ry
     estimated scf accuracy    <       0.00005709 Ry

     iteration # 23     ecut=    80.00 Ry     beta= 0.70
     Davidson diagonalization with overlap
     ethr =  7.14E-07,  avg # of iterations =  3.0

     negative rho (up, down):  2.047E-07 0.000E+00

     total cpu time spent up to now is       33.1 secs

     total energy              =     -34.26323852 Ry
     estimated scf accuracy    <       0.00000619 Ry

     iteration # 24     ecut=    80.00 Ry     beta= 0.70
     Davidson diagonalization with overlap
     ethr =  7.74E-08,  avg # of iterations =  1.0

     negative rho (up, down):  6.003E-08 0.000E+00

     total cpu time spent up to now is       33.3 secs

     total energy              =     -34.26323807 Ry
     estimated scf accuracy    <       0.00000242 Ry

     iteration # 25     ecut=    80.00 Ry     beta= 0.70
     Davidson diagonalization with overlap
     ethr =  3.02E-08,  avg # of iterations =  2.0

     total cpu time spent up to now is       33.4 secs

     total energy              =     -34.26323840 Ry
     estimated scf accuracy    <       0.00000009 Ry

     iteration # 26     ecut=    80.00 Ry     beta= 0.70
     Davidson diagonalization with overlap
     ethr =  1.19E-09,  avg # of iterations =  3.0

     total cpu time spent up to now is       33.6 secs

     total energy              =     -34.26323844 Ry
     estimated scf accuracy    <          2.4E-09 Ry

     iteration # 27     ecut=    80.00 Ry     beta= 0.70
     Davidson diagonalization with overlap
     ethr =  2.94E-11,  avg # of iterations =  5.0

     total cpu time spent up to now is       33.8 secs

     total energy              =     -34.26323843 Ry
     estimated scf accuracy    <       0.00000003 Ry

     iteration # 28     ecut=    80.00 Ry     beta= 0.70
     Davidson diagonalization with overlap
     ethr =  2.94E-11,  avg # of iterations =  3.0

     total cpu time spent up to now is       34.0 secs

     total energy              =     -34.26323844 Ry
     estimated scf accuracy    <          1.3E-11 Ry

     iteration # 29     ecut=    80.00 Ry     beta= 0.70
     Davidson diagonalization with overlap
     ethr =  1.66E-13,  avg # of iterations =  6.0

     total cpu time spent up to now is       34.3 secs

     total energy              =     -34.26323844 Ry
     estimated scf accuracy    <          2.0E-10 Ry

     iteration # 30     ecut=    80.00 Ry     beta= 0.70
     Davidson diagonalization with overlap
     ethr =  1.66E-13,  avg # of iterations =  3.0

     total cpu time spent up to now is       34.4 secs

     total energy              =     -34.26323844 Ry
     estimated scf accuracy    <          1.0E-11 Ry

     iteration # 31     ecut=    80.00 Ry     beta= 0.70
     Davidson diagonalization with overlap
     ethr =  1.25E-13,  avg # of iterations =  3.0

     total cpu time spent up to now is       34.6 secs

     total energy              =     -34.26323844 Ry
     estimated scf accuracy    <          2.4E-12 Ry

     iteration # 32     ecut=    80.00 Ry     beta= 0.70
     Davidson diagonalization with overlap
     ethr =  1.00E-13,  avg # of iterations =  1.0

     total cpu time spent up to now is       34.8 secs

     total energy              =     -34.26323844 Ry
     estimated scf accuracy    <          8.7E-13 Ry

     iteration # 33     ecut=    80.00 Ry     beta= 0.70
     Davidson diagonalization with overlap
     ethr =  1.00E-13,  avg # of iterations =  1.0

     total cpu time spent up to now is       35.0 secs

     total energy              =     -34.26323844 Ry
     estimated scf accuracy    <          6.7E-15 Ry

     iteration # 34     ecut=    80.00 Ry     beta= 0.70
     Davidson diagonalization with overlap
     ethr =  1.00E-13,  avg # of iterations =  1.0

     total cpu time spent up to now is       35.2 secs

     total energy              =     -34.26323844 Ry
     estimated scf accuracy    <          1.4E-14 Ry

     iteration # 35     ecut=    80.00 Ry     beta= 0.70
     Davidson diagonalization with overlap
     ethr =  1.00E-13,  avg # of iterations =  1.0

     total cpu time spent up to now is       35.3 secs

     total energy              =     -34.26323844 Ry
     estimated scf accuracy    <          4.5E-15 Ry

     iteration # 36     ecut=    80.00 Ry     beta= 0.70
     Davidson diagonalization with overlap
     ethr =  1.00E-13,  avg # of iterations =  1.0

     total cpu time spent up to now is       35.5 secs

     total energy              =     -34.26323844 Ry
     estimated scf accuracy    <          2.1E-15 Ry

     iteration # 37     ecut=    80.00 Ry     beta= 0.70
     Davidson diagonalization with overlap
     ethr =  1.00E-13,  avg # of iterations =  1.0

     total cpu time spent up to now is       35.7 secs

     total energy              =     -34.26323844 Ry
     estimated scf accuracy    <          7.4E-17 Ry

     iteration # 38     ecut=    80.00 Ry     beta= 0.70
     Davidson diagonalization with overlap
     ethr =  1.00E-13,  avg # of iterations =  1.0

     total cpu time spent up to now is       35.9 secs

     total energy              =     -34.26323844 Ry
     estimated scf accuracy    <          1.8E-17 Ry

     iteration # 39     ecut=    80.00 Ry     beta= 0.70
     Davidson diagonalization with overlap
     ethr =  1.00E-13,  avg # of iterations =  1.0

     total cpu time spent up to now is       36.1 secs

     total energy              =     -34.26323844 Ry
     estimated scf accuracy    <          2.9E-17 Ry

     iteration # 40     ecut=    80.00 Ry     beta= 0.70
     Davidson diagonalization with overlap
     ethr =  1.00E-13,  avg # of iterations =  1.0

     total cpu time spent up to now is       36.2 secs

     total energy              =     -34.26323844 Ry
     estimated scf accuracy    <          3.1E-17 Ry

     iteration # 41     ecut=    80.00 Ry     beta= 0.70
     Davidson diagonalization with overlap
     ethr =  1.00E-13,  avg # of iterations =  1.0

     total cpu time spent up to now is       36.4 secs

     End of self-consistent calculation

          k = 0.0000 0.0000 0.0000 (  6027 PWs)   bands (ev):

   -22.6104 -10.3601  -8.2348  -5.8889

     highest occupied level (ev):    -5.8889

!    total energy              =     -34.26323844 Ry
     estimated scf accuracy    <          5.0E-18 Ry

     convergence has been achieved in  41 iterations
 ROUTINE_ZERO BEGINNING
 check_charge   4.0000000000000853     
     zero_current :      0.14s CPU      0.16s WALL (       2 calls)
 ZERO CURRENT CALCULATED
     routine_zero :      0.15s CPU      0.16s WALL (       2 calls)
     calcolo_i    :      0.00s CPU      0.00s WALL (       2 calls)
 IONIC CURRENT CALCULATED
 BEGIN: HARTREE & KOHN
 check_charge   4.0000000000000853     
 check_charge   3.9999999999999982     
     hartree_curr :      0.10s CPU      0.11s WALL (       2 calls)
 HARTREE CURRENT CALCULATED
     xc_current   :      0.07s CPU      0.07s WALL (       2 calls)
 X-C CURRENT CALCULATED
     charge density from previous step
     project      :      1.22s CPU      1.33s WALL (       4 calls)
     kohn-first   :      0.00s CPU      0.00s WALL (       4 calls)
     kohn-second  :      0.00s CPU      0.00s WALL (       4 calls)
  KOHN POLARIZATION   1 COMPLETED
     project      :      1.45s CPU      1.58s WALL (       5 calls)
     kohn-first   :      0.00s CPU      0.00s WALL (       5 calls)
     kohn-second  :      0.00s CPU      0.00s WALL (       5 calls)
  KOHN POLARIZATION   2 COMPLETED
     project      :      1.67s CPU      1.80s WALL (       6 calls)
     kohn-first   :      0.00s CPU      0.00s WALL (       6 calls)
     kohn-second  :      0.00s CPU      0.00s WALL (       6 calls)
  KOHN POLARIZATION   3 COMPLETED
     kohn_current :      1.96s CPU      2.15s WALL (       2 calls)
 KOHN CURRENT CALCULATED
total energy current:   0.665687888037E-04 -0.281100256437E-03  0.115200523473E-02
center of mass velocity of type   1:   0.216571054201E-02  0.250280869520E-02 -0.478096489241E-02
center of mass velocity of type   2:  -0.270713817752E-03 -0.312851086900E-03  0.597620611552E-03
 REPETITION            2
     charge density from previous step

     total cpu time spent up to now is       37.6 secs

     Self-consistent Calculation

     iteration #  1     ecut=    80.00 Ry     beta= 0.70
     Davidson diagonalization with overlap
     ethr =  1.00E-03,  avg # of iterations = 19.0

     total cpu time spent up to now is       37.9 secs

     total energy              =     -36.09965897 Ry
     estimated scf accuracy    <      24.09849255 Ry

     iteration #  2     ecut=    80.00 Ry     beta= 0.70
     Davidson diagonalization with overlap
     ethr =  1.00E-02,  avg # of iterations =  4.0

     negative rho (up, down):  4.952E-01 0.000E+00

     total cpu time spent up to now is       38.1 secs

     total energy              =     -31.00016328 Ry
     estimated scf accuracy    <       8.71747535 Ry

     iteration #  3     ecut=    80.00 Ry     beta= 0.70
     Davidson diagonalization with overlap
     ethr =  1.00E-02,  avg # of iterations =  9.0

     total cpu time spent up to now is       38.4 secs

     total energy              =     -26.01513521 Ry
     estimated scf accuracy    <      41.70904481 Ry

     iteration #  4     ecut=    80.00 Ry     beta= 0.70
     Davidson diagonalization with overlap
     ethr =  1.00E-02,  avg # of iterations =  9.0

     total cpu time spent up to now is       38.6 secs

     total energy              =     -34.15457851 Ry
     estimated scf accuracy    <       0.88803360 Ry

     iteration #  5     ecut=    80.00 Ry     beta= 0.70
     Davidson diagonalization with overlap
     ethr =  1.00E-02,  avg # of iterations =  2.0

     total cpu time spent up to now is       38.8 secs

     total energy              =     -34.57889053 Ry
     estimated scf accuracy    <       0.94826291 Ry

     iteration #  6     ecut=    80.00 Ry     beta= 0.70
     Davidson diagonalization with overlap
     ethr =  1.00E-02,  avg # of iterations =  1.0

     total cpu time spent up to now is       39.0 secs

     total energy              =     -34.58227729 Ry
     estimated scf accuracy    <       1.16739805 Ry

     iteration #  7     ecut=    80.00 Ry     beta= 0.70
     Davidson diagonalization with overlap
     ethr =  1.00E-02,  avg # of iterations =  1.0

     total cpu time spent up to now is       39.2 secs

     total energy              =     -34.58990063 Ry
     estimated scf accuracy    <       1.18961269 Ry

     iteration #  8     ecut=    80.00 Ry     beta= 0.70
     Davidson diagonalization with overlap
     ethr =  1.00E-02,  avg # of iterations =  1.0

     total cpu time spent up to now is       39.4 secs

     total energy              =     -34.52257648 Ry
     estimated scf accuracy    <       1.25455873 Ry

     iteration #  9     ecut=    80.00 Ry     beta= 0.70
     Davidson diagonalization with overlap
     ethr =  1.00E-02,  avg # of iterations =  1.0

     total cpu time spent up to now is       39.5 secs

     total energy              =     -34.39588018 Ry
     estimated scf accuracy    <       1.08752329 Ry

     iteration # 10     ecut=    80.00 Ry     beta= 0.70
     Davidson diagonalization with overlap
     ethr =  1.00E-02,  avg # of iterations =  1.0

     negative rho (up, down):  2.298E-01 0.000E+00

     total cpu time spent up to now is       39.7 secs

     total energy              =     -34.11034214 Ry
     estimated scf accuracy    <       0.61728331 Ry

     iteration # 11     ecut=    80.00 Ry     beta= 0.70
     Davidson diagonalization with overlap
     ethr =  7.72E-03,  avg # of iterations =  2.0

     negative rho (up, down):  2.942E-01 0.000E+00

     total cpu time spent up to now is       39.9 secs

     total energy              =     -34.32423412 Ry
     estimated scf accuracy    <       0.11613788 Ry

     iteration # 12     ecut=    80.00 Ry     beta= 0.70
     Davidson diagonalization with overlap
     ethr =  1.45E-03,  avg # of iterations =  1.0

     negative rho (up, down):  1.285E-03 0.000E+00

     total cpu time spent up to now is       40.1 secs

     total energy              =     -34.25105821 Ry
     estimated scf accuracy    <       0.12567003 Ry

     iteration # 13     ecut=    80.00 Ry     beta= 0.70
     Davidson diagonalization with overlap
     ethr =  1.45E-03,  avg # of iterations =  2.0

     negative rho (up, down):  1.379E-03 0.000E+00

     total cpu time spent up to now is       40.3 secs

     total energy              =     -34.26364237 Ry
     estimated scf accuracy    <       0.00559895 Ry

     iteration # 14     ecut=    80.00 Ry     beta= 0.70
     Davidson diagonalization with overlap
     ethr =  7.00E-05,  avg # of iterations =  2.0

     negative rho (up, down):  9.285E-04 0.000E+00

     total cpu time spent up to now is       40.5 secs

     total energy              =     -34.26464506 Ry
     estimated scf accuracy    <       0.00167639 Ry

     iteration # 15     ecut=    80.00 Ry     beta= 0.70
     Davidson diagonalization with overlap
     ethr =  2.10E-05,  avg # of iterations =  2.0

     negative rho (up, down):  6.929E-04 0.000E+00

     total cpu time spent up to now is       40.7 secs

     total energy              =     -34.26501401 Ry
     estimated scf accuracy    <       0.00107734 Ry

     iteration # 16     ecut=    80.00 Ry     beta= 0.70
     Davidson diagonalization with overlap
     ethr =  1.35E-05,  avg # of iterations =  1.0

     negative rho (up, down):  8.472E-05 0.000E+00

     total cpu time spent up to now is       40.8 secs

     total energy              =     -34.26522488 Ry
     estimated scf accuracy    <       0.00108960 Ry

     iteration # 17     ecut=    80.00 Ry     beta= 0.70
     Davidson diagonalization with overlap
     ethr =  1.35E-05,  avg # of iterations =  1.0

     negative rho (up, down):  1.651E-05 0.000E+00

     total cpu time spent up to now is       41.0 secs

     total energy              =     -34.26529177 Ry
     estimated scf accuracy    <       0.00004392 Ry

     iteration # 18     ecut=    80.00 Ry     beta= 0.70
     Davidson diagonalization with overlap
     ethr =  5.49E-07,  avg # of iterations =  3.0

     negative rho (up, down):  6.792E-07 0.000E+00

     total cpu time spent up to now is       41.2 secs

     total energy              =     -34.26531483 Ry
     estimated scf accuracy    <       0.00002301 Ry

     iteration # 19     ecut=    80.00 Ry     beta= 0.70
     Davidson diagonalization with overlap
     ethr =  2.88E-07,  avg # of iterations =  2.0

     total cpu time spent up to now is       41.4 secs

     total energy              =     -34.26531202 Ry
     estimated scf accuracy    <       0.00004086 Ry

     iteration # 20     ecut=    80.00 Ry     beta= 0.70
     Davidson diagonalization with overlap
     ethr =  2.88E-07,  avg # of iterations =  1.0

     total cpu time spent up to now is       41.6 secs

     total energy              =     -34.26530813 Ry
     estimated scf accuracy    <       0.00002749 Ry

     iteration # 21     ecut=    80.00 Ry     beta= 0.70
     Davidson diagonalization with overlap
     ethr =  2.88E-07,  avg # of iterations =  1.0

     total cpu time spent up to now is       41.7 secs

     total energy              =     -34.26530627 Ry
     estimated scf accuracy    <       0.00001160 Ry

     iteration # 22     ecut=    80.00 Ry     beta= 0.70
     Davidson diagonalization with overlap
     ethr =  1.45E-07,  avg # of iterations =  1.0

     total cpu time spent up to now is       41.9 secs

     total energy              =     -34.26530559 Ry
     estimated scf accuracy    <       0.00000371 Ry

     iteration # 23     ecut=    80.00 Ry     beta= 0.70
     Davidson diagonalization with overlap
     ethr =  4.64E-08,  avg # of iterations =  3.0

     total cpu time spent up to now is       42.1 secs

     total energy              =     -34.26530649 Ry
     estimated scf accuracy    <       0.00000002 Ry

     iteration # 24     ecut=    80.00 Ry     beta= 0.70
     Davidson diagonalization with overlap
     ethr =  2.57E-10,  avg # of iterations =  5.0

     total cpu time spent up to now is       42.3 secs

     total energy              =     -34.26530654 Ry
     estimated scf accuracy    <          5.1E-09 Ry

     iteration # 25     ecut=    80.00 Ry     beta= 0.70
     Davidson diagonalization with overlap
     ethr =  6.44E-11,  avg # of iterations =  3.0

     total cpu time spent up to now is       42.5 secs

     total energy              =     -34.26530655 Ry
     estimated scf accuracy    <       0.00000001 Ry

     iteration # 26     ecut=    80.00 Ry     beta= 0.70
     Davidson diagonalization with overlap
     ethr =  6.44E-11,  avg # of iterations =  2.0

     total cpu time spent up to now is       42.7 secs

     total energy              =     -34.26530654 Ry
     estimated scf accuracy    <       0.00000003 Ry

     iteration # 27     ecut=    80.00 Ry     beta= 0.70
     Davidson diagonalization with overlap
     ethr =  6.44E-11,  avg # of iterations =  1.0

     total cpu time spent up to now is       42.9 secs

     total energy              =     -34.26530654 Ry
     estimated scf accuracy    <       0.00000002 Ry

     iteration # 28     ecut=    80.00 Ry     beta= 0.70
     Davidson diagonalization with overlap
     ethr =  6.44E-11,  avg # of iterations =  2.0

     total cpu time spent up to now is       43.1 secs

     total energy              =     -34.26530654 Ry
     estimated scf accuracy    <          4.2E-09 Ry

     iteration # 29     ecut=    80.00 Ry     beta= 0.70
     Davidson diagonalization with overlap
     ethr =  5.24E-11,  avg # of iterations =  1.0

     total cpu time spent up to now is       43.3 secs

     total energy              =     -34.26530654 Ry
     estimated scf accuracy    <          1.5E-09 Ry

     iteration # 30     ecut=    80.00 Ry     beta= 0.70
     Davidson diagonalization with overlap
     ethr =  1.88E-11,  avg # of iterations =  1.0

     total cpu time spent up to now is       43.4 secs

     total energy              =     -34.26530654 Ry
     estimated scf accuracy    <          1.2E-09 Ry

     iteration # 31     ecut=    80.00 Ry     beta= 0.70
     Davidson diagonalization with overlap
     ethr =  1.55E-11,  avg # of iterations =  1.0

     total cpu time spent up to now is       43.6 secs

     total energy              =     -34.26530654 Ry
     estimated scf accuracy    <          1.6E-09 Ry

     iteration # 32     ecut=    80.00 Ry     beta= 0.70
     Davidson diagonalization with overlap
     ethr =  1.55E-11,  avg # of iterations =  1.0

     total cpu time spent up to now is       43.8 secs

     total energy              =     -34.26530654 Ry
     estimated scf accuracy    <          1.1E-09 Ry

     iteration # 33     ecut=    80.00 Ry     beta= 0.70
     Davidson diagonalization with overlap
     ethr =  1.33E-11,  avg # of iterations =  2.0

     total cpu time spent up to now is       44.0 secs

     total energy              =     -34.26530654 Ry
     estimated scf accuracy    <          1.4E-10 Ry

     iteration # 34     ecut=    80.00 Ry     beta= 0.70
     Davidson diagonalization with overlap
     ethr =  1.72E-12,  avg # of iterations =  3.0

     total cpu time spent up to now is       44.2 secs

     total energy              =     -34.26530654 Ry
     estimated scf accuracy    <          1.3E-12 Ry

     iteration # 35     ecut=    80.00 Ry     beta= 0.70
     Davidson diagonalization with overlap
     ethr =  1.00E-13,  avg # of iterations =  2.0

     total cpu time spent up to now is       44.3 secs

     total energy              =     -34.26530654 Ry
     estimated scf accuracy    <          3.9E-13 Ry

     iteration # 36     ecut=    80.00 Ry     beta= 0.70
     Davidson diagonalization with overlap
     ethr =  1.00E-13,  avg # of iterations =  2.0

     total cpu time spent up to now is       44.5 secs

     total energy              =     -34.26530654 Ry
     estimated scf accuracy    <          6.7E-12 Ry

     iteration # 37     ecut=    80.00 Ry     beta= 0.70
     Davidson diagonalization with overlap
     ethr =  1.00E-13,  avg # of iterations =  1.0

     total cpu time spent up to now is       44.7 secs

     total energy              =     -34.26530654 Ry
     estimated scf accuracy    <          7.4E-13 Ry

     iteration # 38     ecut=    80.00 Ry     beta= 0.70
     Davidson diagonalization with overlap
     ethr =  1.00E-13,  avg # of iterations =  1.0

     total cpu time spent up to now is       44.9 secs

     total energy              =     -34.26530654 Ry
     estimated scf accuracy    <          6.0E-14 Ry

     iteration # 39     ecut=    80.00 Ry     beta= 0.70
     Davidson diagonalization with overlap
     ethr =  1.00E-13,  avg # of iterations =  1.0

     total cpu time spent up to now is       45.1 secs

     total energy              =     -34.26530654 Ry
     estimated scf accuracy    <          1.5E-13 Ry

     iteration # 40     ecut=    80.00 Ry     beta= 0.70
     Davidson diagonalization with overlap
     ethr =  1.00E-13,  avg # of iterations =  1.0

     total cpu time spent up to now is       45.2 secs

     total energy              =     -34.26530654 Ry
     estimated scf accuracy    <          7.4E-14 Ry

     iteration # 41     ecut=    80.00 Ry     beta= 0.70
     Davidson diagonalization with overlap
     ethr =  1.00E-13,  avg # of iterations =  1.0

     total cpu time spent up to now is       45.4 secs

     total energy              =     -34.26530654 Ry
     estimated scf accuracy    <          6.4E-15 Ry

     iteration # 42     ecut=    80.00 Ry     beta= 0.70
     Davidson diagonalization with overlap
     ethr =  1.00E-13,  avg # of iterations =  1.0

     total cpu time spent up to now is       45.6 secs

     total energy              =     -34.26530654 Ry
     estimated scf accuracy    <          3.2E-16 Ry

     iteration # 43     ecut=    80.00 Ry     beta= 0.70
     Davidson diagonalization with overlap
     ethr =  1.00E-13,  avg # of iterations =  1.0

     total cpu time spent up to now is       45.8 secs

     total energy              =     -34.26530654 Ry
     estimated scf accuracy    <          3.9E-16 Ry

     iteration # 44     ecut=    80.00 Ry     beta= 0.70
     Davidson diagonalization with overlap
     ethr =  1.00E-13,  avg # of iterations =  1.0

     total cpu time spent up to now is       46.0 secs

     total energy              =     -34.26530654 Ry
     estimated scf accuracy    <          1.7E-15 Ry

     iteration # 45     ecut=    80.00 Ry     beta= 0.70
     Davidson diagonalization with overlap
     ethr =  1.00E-13,  avg # of iterations =  1.0

     total cpu time spent up to now is       46.2 secs

     total energy              =     -34.26530654 Ry
     estimated scf accuracy    <          3.3E-16 Ry

     iteration # 46     ecut=    80.00 Ry     beta= 0.70
     Davidson diagonalization with overlap
     ethr =  1.00E-13,  avg # of iterations =  1.0

     total cpu time spent up to now is       46.4 secs

     total energy              =     -34.26530654 Ry
     estimated scf accuracy    <          5.9E-17 Ry

     iteration # 47     ecut=    80.00 Ry     beta= 0.70
     Davidson diagonalization with overlap
     ethr =  1.00E-13,  avg # of iterations =  1.0

     total cpu time spent up to now is       46.5 secs

     total energy              =     -34.26530654 Ry
     estimated scf accuracy    <          1.6E-17 Ry

     iteration # 48     ecut=    80.00 Ry     beta= 0.70
     Davidson diagonalization with overlap
     ethr =  1.00E-13,  avg # of iterations =  1.0

     total cpu time spent up to now is       46.7 secs

     End of self-consistent calculation

          k = 0.0000 0.0000 0.0000 (  6027 PWs)   bands (ev):

   -22.6282 -10.3804  -8.2371  -5.8927

     highest occupied level (ev):    -5.8927

!    total energy              =     -34.26530654 Ry
     estimated scf accuracy    <          5.7E-19 Ry

     convergence has been achieved in  48 iterations
     charge density from previous step

     total cpu time spent up to now is       46.9 secs

     Self-consistent Calculation

     iteration #  1     ecut=    80.00 Ry     beta= 0.70
     Davidson diagonalization with overlap
     ethr =  1.00E-03,  avg # of iterations = 14.0

     total cpu time spent up to now is       47.3 secs

     total energy              =     -35.99039852 Ry
     estimated scf accuracy    <      22.76680994 Ry

     iteration #  2     ecut=    80.00 Ry     beta= 0.70
     Davidson diagonalization with overlap
     ethr =  1.00E-02,  avg # of iterations =  4.0

     negative rho (up, down):  5.186E-01 0.000E+00

     total cpu time spent up to now is       47.6 secs

     total energy              =     -31.03135356 Ry
     estimated scf accuracy    <       8.64742468 Ry

     iteration #  3     ecut=    80.00 Ry     beta= 0.70
     Davidson diagonalization with overlap
     ethr =  1.00E-02,  avg # of iterations =  9.0

     total cpu time spent up to now is       47.8 secs

     total energy              =     -25.81285444 Ry
     estimated scf accuracy    <      42.41454121 Ry

     iteration #  4     ecut=    80.00 Ry     beta= 0.70
     Davidson diagonalization with overlap
     ethr =  1.00E-02,  avg # of iterations =  9.0

     total cpu time spent up to now is       48.1 secs

     total energy              =     -34.12260247 Ry
     estimated scf accuracy    <       0.94475817 Ry

     iteration #  5     ecut=    80.00 Ry     beta= 0.70
     Davidson diagonalization with overlap
     ethr =  1.00E-02,  avg # of iterations =  3.0

     total cpu time spent up to now is       48.3 secs

     total energy              =     -34.60002201 Ry
     estimated scf accuracy    <       1.06384600 Ry

     iteration #  6     ecut=    80.00 Ry     beta= 0.70
     Davidson diagonalization with overlap
     ethr =  1.00E-02,  avg # of iterations =  1.0

     total cpu time spent up to now is       48.5 secs

     total energy              =     -34.59474558 Ry
     estimated scf accuracy    <       1.26811278 Ry

     iteration #  7     ecut=    80.00 Ry     beta= 0.70
     Davidson diagonalization with overlap
     ethr =  1.00E-02,  avg # of iterations =  1.0

     total cpu time spent up to now is       48.6 secs

     total energy              =     -34.62916351 Ry
     estimated scf accuracy    <       1.27342203 Ry

     iteration #  8     ecut=    80.00 Ry     beta= 0.70
     Davidson diagonalization with overlap
     ethr =  1.00E-02,  avg # of iterations =  1.0

     total cpu time spent up to now is       48.8 secs

     total energy              =     -34.47545536 Ry
     estimated scf accuracy    <       1.43015850 Ry

     iteration #  9     ecut=    80.00 Ry     beta= 0.70
     Davidson diagonalization with overlap
     ethr =  1.00E-02,  avg # of iterations =  1.0

     total cpu time spent up to now is       49.0 secs

     total energy              =     -34.41711296 Ry
     estimated scf accuracy    <       1.00631916 Ry

     iteration # 10     ecut=    80.00 Ry     beta= 0.70
     Davidson diagonalization with overlap
     ethr =  1.00E-02,  avg # of iterations =  1.0

     negative rho (up, down):  4.046E-01 0.000E+00

     total cpu time spent up to now is       49.2 secs

     total energy              =     -34.05501037 Ry
     estimated scf accuracy    <       0.75586434 Ry

     iteration # 11     ecut=    80.00 Ry     beta= 0.70
     Davidson diagonalization with overlap
     ethr =  9.45E-03,  avg # of iterations =  3.0

     negative rho (up, down):  4.100E-01 0.000E+00

[...]
     ethr =  1.00E-13,  avg # of iterations =  1.0

     total cpu time spent up to now is      100.8 secs

     total energy              =     -34.25112028 Ry
     estimated scf accuracy    <          6.5E-15 Ry

     iteration # 38     ecut=    80.00 Ry     beta= 0.70
     Davidson diagonalization with overlap
     ethr =  1.00E-13,  avg # of iterations =  1.0

     total cpu time spent up to now is      101.0 secs

     total energy              =     -34.25112028 Ry
     estimated scf accuracy    <          1.9E-15 Ry

     iteration # 39     ecut=    80.00 Ry     beta= 0.70
     Davidson diagonalization with overlap
     ethr =  1.00E-13,  avg # of iterations =  1.0

     total cpu time spent up to now is      101.2 secs

     total energy              =     -34.25112028 Ry
     estimated scf accuracy    <          1.5E-16 Ry

     iteration # 40     ecut=    80.00 Ry     beta= 0.70
     Davidson diagonalization with overlap
     ethr =  1.00E-13,  avg # of iterations =  1.0

     total cpu time spent up to now is      101.3 secs

     total energy              =     -34.25112028 Ry
     estimated scf accuracy    <          1.0E-17 Ry

     iteration # 41     ecut=    80.00 Ry     beta= 0.70
     Davidson diagonalization with overlap
     ethr =  1.00E-13,  avg # of iterations =  1.0

     total cpu time spent up to now is      101.5 secs

     End of self-consistent calculation

          k = 0.0000 0.0000 0.0000 (  6027 PWs)   bands (ev):

   -22.5101 -10.2452  -8.2219  -5.8675

     highest occupied level (ev):    -5.8675

!    total energy              =     -34.25112028 Ry
     estimated scf accuracy    <          5.9E-18 Ry

     convergence has been achieved in  41 iterations
     charge density from previous step

     total cpu time spent up to now is      101.6 secs

     Self-consistent Calculation

     iteration #  1     ecut=    80.00 Ry     beta= 0.70
     Davidson diagonalization with overlap
     ethr =  1.00E-03,  avg # of iterations = 18.0

     total cpu time spent up to now is      102.0 secs

     total energy              =     -35.99136230 Ry
     estimated scf accuracy    <      22.97797157 Ry

     iteration #  2     ecut=    80.00 Ry     beta= 0.70
     Davidson diagonalization with overlap
     ethr =  1.00E-02,  avg # of iterations =  4.0

     negative rho (up, down):  5.338E-01 0.000E+00

     total cpu time spent up to now is      102.2 secs

     total energy              =     -31.00506635 Ry
     estimated scf accuracy    <       8.62991037 Ry

     iteration #  3     ecut=    80.00 Ry     beta= 0.70
     Davidson diagonalization with overlap
     ethr =  1.00E-02,  avg # of iterations =  9.0

     total cpu time spent up to now is      102.5 secs

     total energy              =     -25.99456898 Ry
     estimated scf accuracy    <      42.71795787 Ry

     iteration #  4     ecut=    80.00 Ry     beta= 0.70
     Davidson diagonalization with overlap
     ethr =  1.00E-02,  avg # of iterations =  9.0

     total cpu time spent up to now is      102.7 secs

     total energy              =     -34.12847293 Ry
     estimated scf accuracy    <       0.88097466 Ry

     iteration #  5     ecut=    80.00 Ry     beta= 0.70
     Davidson diagonalization with overlap
     ethr =  1.00E-02,  avg # of iterations =  3.0

     total cpu time spent up to now is      102.9 secs

     total energy              =     -34.63515156 Ry
     estimated scf accuracy    <       1.21225748 Ry

     iteration #  6     ecut=    80.00 Ry     beta= 0.70
     Davidson diagonalization with overlap
     ethr =  1.00E-02,  avg # of iterations =  1.0

     total cpu time spent up to now is      103.1 secs

     total energy              =     -34.64214157 Ry
     estimated scf accuracy    <       1.48334834 Ry

     iteration #  7     ecut=    80.00 Ry     beta= 0.70
     Davidson diagonalization with overlap
     ethr =  1.00E-02,  avg # of iterations =  1.0

     total cpu time spent up to now is      103.3 secs

     total energy              =     -34.69004713 Ry
     estimated scf accuracy    <       1.52732343 Ry

     iteration #  8     ecut=    80.00 Ry     beta= 0.70
     Davidson diagonalization with overlap
     ethr =  1.00E-02,  avg # of iterations =  1.0

     total cpu time spent up to now is      103.4 secs

     total energy              =     -34.54696176 Ry
     estimated scf accuracy    <       1.72091382 Ry

     iteration #  9     ecut=    80.00 Ry     beta= 0.70
     Davidson diagonalization with overlap
     ethr =  1.00E-02,  avg # of iterations =  1.0

     total cpu time spent up to now is      103.6 secs

     total energy              =     -34.51557644 Ry
     estimated scf accuracy    <       1.35416660 Ry

     iteration # 10     ecut=    80.00 Ry     beta= 0.70
     Davidson diagonalization with overlap
     ethr =  1.00E-02,  avg # of iterations =  1.0

     negative rho (up, down):  4.109E-01 0.000E+00

     total cpu time spent up to now is      103.8 secs

     total energy              =     -33.88518104 Ry
     estimated scf accuracy    <       1.19460650 Ry

     iteration # 11     ecut=    80.00 Ry     beta= 0.70
     Davidson diagonalization with overlap
     ethr =  1.00E-02,  avg # of iterations =  3.0

     negative rho (up, down):  4.285E-01 0.000E+00

     total cpu time spent up to now is      104.0 secs

     total energy              =     -34.41636795 Ry
     estimated scf accuracy    <       0.61533577 Ry

     iteration # 12     ecut=    80.00 Ry     beta= 0.70
     Davidson diagonalization with overlap
     ethr =  7.69E-03,  avg # of iterations =  1.0

     negative rho (up, down):  4.859E-04 0.000E+00

     total cpu time spent up to now is      104.2 secs

     total energy              =     -34.13531434 Ry
     estimated scf accuracy    <       0.50471570 Ry

     iteration # 13     ecut=    80.00 Ry     beta= 0.70
     Davidson diagonalization with overlap
     ethr =  6.31E-03,  avg # of iterations =  2.0

     total cpu time spent up to now is      104.3 secs

     total energy              =     -34.25316380 Ry
     estimated scf accuracy    <       0.02591255 Ry

     iteration # 14     ecut=    80.00 Ry     beta= 0.70
     Davidson diagonalization with overlap
     ethr =  3.24E-04,  avg # of iterations =  2.0

     negative rho (up, down):  6.364E-08 0.000E+00

     total cpu time spent up to now is      104.5 secs

     total energy              =     -34.25338949 Ry
     estimated scf accuracy    <       0.02094869 Ry

     iteration # 15     ecut=    80.00 Ry     beta= 0.70
     Davidson diagonalization with overlap
     ethr =  2.62E-04,  avg # of iterations =  1.0

     negative rho (up, down):  1.064E-07 0.000E+00

     total cpu time spent up to now is      104.7 secs

     total energy              =     -34.25282632 Ry
     estimated scf accuracy    <       0.01797989 Ry

     iteration # 16     ecut=    80.00 Ry     beta= 0.70
     Davidson diagonalization with overlap
     ethr =  2.25E-04,  avg # of iterations =  1.0

     negative rho (up, down):  3.693E-07 0.000E+00

     total cpu time spent up to now is      104.9 secs

     total energy              =     -34.25038248 Ry
     estimated scf accuracy    <       0.01635696 Ry

     iteration # 17     ecut=    80.00 Ry     beta= 0.70
     Davidson diagonalization with overlap
     ethr =  2.04E-04,  avg # of iterations =  1.0

     negative rho (up, down):  1.001E-04 0.000E+00

     total cpu time spent up to now is      105.0 secs

     total energy              =     -34.24960102 Ry
     estimated scf accuracy    <       0.00853998 Ry

     iteration # 18     ecut=    80.00 Ry     beta= 0.70
     Davidson diagonalization with overlap
     ethr =  1.07E-04,  avg # of iterations =  1.0

     negative rho (up, down):  5.752E-04 0.000E+00

     total cpu time spent up to now is      105.2 secs

     total energy              =     -34.24761218 Ry
     estimated scf accuracy    <       0.00445333 Ry

     iteration # 19     ecut=    80.00 Ry     beta= 0.70
     Davidson diagonalization with overlap
     ethr =  5.57E-05,  avg # of iterations =  3.0

     total cpu time spent up to now is      105.4 secs

     total energy              =     -34.24897851 Ry
     estimated scf accuracy    <       0.00112143 Ry

     iteration # 20     ecut=    80.00 Ry     beta= 0.70
     Davidson diagonalization with overlap
     ethr =  1.40E-05,  avg # of iterations =  2.0

     negative rho (up, down):  2.211E-08 0.000E+00

     total cpu time spent up to now is      105.6 secs

     total energy              =     -34.24912227 Ry
     estimated scf accuracy    <       0.00004867 Ry

     iteration # 21     ecut=    80.00 Ry     beta= 0.70
     Davidson diagonalization with overlap
     ethr =  6.08E-07,  avg # of iterations =  2.0

     total cpu time spent up to now is      105.8 secs

     total energy              =     -34.24913148 Ry
     estimated scf accuracy    <       0.00001370 Ry

     iteration # 22     ecut=    80.00 Ry     beta= 0.70
     Davidson diagonalization with overlap
     ethr =  1.71E-07,  avg # of iterations =  2.0

     total cpu time spent up to now is      106.0 secs

     total energy              =     -34.24913146 Ry
     estimated scf accuracy    <       0.00000589 Ry

     iteration # 23     ecut=    80.00 Ry     beta= 0.70
     Davidson diagonalization with overlap
     ethr =  7.37E-08,  avg # of iterations =  2.0

     total cpu time spent up to now is      106.2 secs

     total energy              =     -34.24913261 Ry
     estimated scf accuracy    <       0.00000019 Ry

     iteration # 24     ecut=    80.00 Ry     beta= 0.70
     Davidson diagonalization with overlap
     ethr =  2.34E-09,  avg # of iterations =  4.0

     total cpu time spent up to now is      106.4 secs

     total energy              =     -34.24913281 Ry
     estimated scf accuracy    <       0.00000074 Ry

     iteration # 25     ecut=    80.00 Ry     beta= 0.70
     Davidson diagonalization with overlap
     ethr =  2.34E-09,  avg # of iterations =  2.0

     total cpu time spent up to now is      106.5 secs

     total energy              =     -34.24913283 Ry
     estimated scf accuracy    <       0.00000011 Ry

     iteration # 26     ecut=    80.00 Ry     beta= 0.70
     Davidson diagonalization with overlap
     ethr =  1.40E-09,  avg # of iterations =  2.0

     total cpu time spent up to now is      106.7 secs

     total energy              =     -34.24913284 Ry
     estimated scf accuracy    <          7.8E-09 Ry

     iteration # 27     ecut=    80.00 Ry     beta= 0.70
     Davidson diagonalization with overlap
     ethr =  9.80E-11,  avg # of iterations =  3.0

     total cpu time spent up to now is      106.9 secs

     total energy              =     -34.24913284 Ry
     estimated scf accuracy    <       0.00000001 Ry

     iteration # 28     ecut=    80.00 Ry     beta= 0.70
     Davidson diagonalization with overlap
     ethr =  9.80E-11,  avg # of iterations =  2.0

     total cpu time spent up to now is      107.1 secs

     total energy              =     -34.24913284 Ry
     estimated scf accuracy    <          1.6E-09 Ry

     iteration # 29     ecut=    80.00 Ry     beta= 0.70
     Davidson diagonalization with overlap
     ethr =  1.95E-11,  avg # of iterations =  3.0

     total cpu time spent up to now is      107.3 secs

     total energy              =     -34.24913284 Ry
     estimated scf accuracy    <          5.5E-11 Ry

     iteration # 30     ecut=    80.00 Ry     beta= 0.70
     Davidson diagonalization with overlap
     ethr =  6.91E-13,  avg # of iterations =  3.0

     total cpu time spent up to now is      107.5 secs

     total energy              =     -34.24913284 Ry
     estimated scf accuracy    <          7.1E-11 Ry

     iteration # 31     ecut=    80.00 Ry     beta= 0.70
     Davidson diagonalization with overlap
     ethr =  6.91E-13,  avg # of iterations =  1.0

     total cpu time spent up to now is      107.6 secs

     total energy              =     -34.24913284 Ry
     estimated scf accuracy    <          5.6E-11 Ry

     iteration # 32     ecut=    80.00 Ry     beta= 0.70
     Davidson diagonalization with overlap
     ethr =  6.91E-13,  avg # of iterations =  2.0

     total cpu time spent up to now is      107.8 secs

     total energy              =     -34.24913284 Ry
     estimated scf accuracy    <          4.7E-12 Ry

     iteration # 33     ecut=    80.00 Ry     beta= 0.70
     Davidson diagonalization with overlap
     ethr =  1.00E-13,  avg # of iterations =  2.0

     total cpu time spent up to now is      108.0 secs

     total energy              =     -34.24913284 Ry
     estimated scf accuracy    <          3.2E-14 Ry

     iteration # 34     ecut=    80.00 Ry     beta= 0.70
     Davidson diagonalization with overlap
     ethr =  1.00E-13,  avg # of iterations =  1.0

     total cpu time spent up to now is      108.2 secs

     total energy              =     -34.24913284 Ry
     estimated scf accuracy    <          1.0E-13 Ry

     iteration # 35     ecut=    80.00 Ry     beta= 0.70
     Davidson diagonalization with overlap
     ethr =  1.00E-13,  avg # of iterations =  1.0

     total cpu time spent up to now is      108.4 secs

     total energy              =     -34.24913284 Ry
     estimated scf accuracy    <          3.2E-14 Ry

     iteration # 36     ecut=    80.00 Ry     beta= 0.70
     Davidson diagonalization with overlap
     ethr =  1.00E-13,  avg # of iterations =  1.0

     total cpu time spent up to now is      108.5 secs

     total energy              =     -34.24913284 Ry
     estimated scf accuracy    <          2.0E-15 Ry

     iteration # 37     ecut=    80.00 Ry     beta= 0.70
     Davidson diagonalization with overlap
     ethr =  1.00E-13,  avg # of iterations =  1.0

     total cpu time spent up to now is      108.7 secs

     total energy              =     -34.24913284 Ry
     estimated scf accuracy    <          1.1E-15 Ry

     iteration # 38     ecut=    80.00 Ry     beta= 0.70
     Davidson diagonalization with overlap
     ethr =  1.00E-13,  avg # of iterations =  1.0

     total cpu time spent up to now is      108.9 secs

     total energy              =     -34.24913284 Ry
     estimated scf accuracy    <          1.6E-15 Ry

     iteration # 39     ecut=    80.00 Ry     beta= 0.70
     Davidson diagonalization with overlap
     ethr =  1.00E-13,  avg # of iterations =  1.0

     total cpu time spent up to now is      109.0 secs

     total energy              =     -34.24913284 Ry
     estimated scf accuracy    <          1.8E-16 Ry

     iteration # 40     ecut=    80.00 Ry     beta= 0.70
     Davidson diagonalization with overlap
     ethr =  1.00E-13,  avg # of iterations =  1.0

     total cpu time spent up to now is      109.2 secs

     total energy              =     -34.24913284 Ry
     estimated scf accuracy    <          3.0E-16 Ry

     iteration # 41     ecut=    80.00 Ry     beta= 0.70
     Davidson diagonalization with overlap
     ethr =  1.00E-13,  avg # of iterations =  1.0

     total cpu time spent up to now is      109.4 secs

     total energy              =     -34.24913284 Ry
     estimated scf accuracy    <          3.8E-16 Ry

     iteration # 42     ecut=    80.00 Ry     beta= 0.70
     Davidson diagonalization with overlap
     ethr =  1.00E-13,  avg # of iterations =  1.0

     total cpu time spent up to now is      109.6 secs

     total energy              =     -34.24913284 Ry
     estimated scf accuracy    <          4.1E-17 Ry

     iteration # 43     ecut=    80.00 Ry     beta= 0.70
     Davidson diagonalization with overlap
     ethr =  1.00E-13,  avg # of iterations =  1.0

     total cpu time spent up to now is      109.7 secs

     End of self-consistent calculation

          k = 0.0000 0.0000 0.0000 (  6027 PWs)   bands (ev):

   -22.4944 -10.2268  -8.2199  -5.8642

     highest occupied level (ev):    -5.8642

!    total energy              =     -34.24913284 Ry
     estimated scf accuracy    <          3.1E-18 Ry

     convergence has been achieved in  43 iterations
 ROUTINE_ZERO BEGINNING
 check_charge   4.0000000000000888     
     zero_current :      0.45s CPU      0.47s WALL (       6 calls)
 ZERO CURRENT CALCULATED
     routine_zero :      0.45s CPU      0.47s WALL (       6 calls)
     calcolo_i    :      0.01s CPU      0.01s WALL (       6 calls)
 IONIC CURRENT CALCULATED
 BEGIN: HARTREE & KOHN
 check_charge   4.0000000000000888     
 check_charge   3.9999999999998379     
     hartree_curr :      0.31s CPU      0.34s WALL (       6 calls)
 HARTREE CURRENT CALCULATED
     xc_current   :      0.19s CPU      0.19s WALL (       6 calls)
 X-C CURRENT CALCULATED
     charge density from previous step
     project      :      4.46s CPU      4.90s WALL (      16 calls)
     kohn-first   :      0.00s CPU      0.00s WALL (      16 calls)
     kohn-second  :      0.00s CPU      0.00s WALL (      16 calls)
  KOHN POLARIZATION   1 COMPLETED
     project      :      4.73s CPU      5.21s WALL (      17 calls)
     kohn-first   :      0.00s CPU      0.00s WALL (      17 calls)
     kohn-second  :      0.00s CPU      0.00s WALL (      17 calls)
  KOHN POLARIZATION   2 COMPLETED
     project      :      5.05s CPU      5.53s WALL (      18 calls)
     kohn-first   :      0.00s CPU      0.00s WALL (      18 calls)
     kohn-second  :      0.00s CPU      0.00s WALL (      18 calls)
  KOHN POLARIZATION   3 COMPLETED
     kohn_current :      5.93s CPU      6.55s WALL (       6 calls)
 KOHN CURRENT CALCULATED
total energy current:  -0.189473077105E-04 -0.293797102407E-03  0.128196253145E-02
center of mass velocity of type   1:   0.206368127752E-02  0.245365426030E-02 -0.445024814491E-02
center of mass velocity of type   2:  -0.257960159690E-03 -0.306706782538E-03  0.556281018114E-03
 STEP          147   1.0667279999999999E-002  >          146
 Finished reading trajectory traj/cp at step          147

     init_run     :      0.26s CPU      0.36s WALL (       1 calls)
     electrons    :     83.68s CPU    100.34s WALL (      12 calls)
     update_pot   :      1.74s CPU      2.22s WALL (      18 calls)

     Called by init_run:
     wfcinit      :      0.02s CPU      0.02s WALL (       1 calls)
     potinit      :      0.14s CPU      0.22s WALL (       1 calls)
     hinit0       :      0.09s CPU      0.10s WALL (       1 calls)

     Called by electrons:
     c_bands      :     18.80s CPU     20.26s WALL (     504 calls)
     sum_band     :      9.15s CPU      9.94s WALL (     522 calls)
     v_of_rho     :     48.09s CPU     59.89s WALL (     523 calls)
     mix_rho      :      8.80s CPU     11.81s WALL (     504 calls)

     Called by c_bands:
     init_us_2    :      0.17s CPU      0.19s WALL (    1039 calls)
     regterg      :     18.68s CPU     20.12s WALL (     504 calls)

     Called by *egterg:
     rdiaghg      :      0.06s CPU      0.06s WALL (    1707 calls)
     h_psi        :     20.88s CPU     22.61s WALL (    2234 calls)
     g_psi        :      0.08s CPU      0.08s WALL (    1202 calls)

     Called by h_psi:
     h_psi:calbec :      0.14s CPU      0.14s WALL (    2234 calls)
     vloc_psi     :     20.59s CPU     22.31s WALL (    2234 calls)
     add_vuspsi   :      0.08s CPU      0.09s WALL (    2234 calls)

     General routines
     calbec       :      0.16s CPU      0.17s WALL (    2881 calls)
     fft          :     23.60s CPU     25.73s WALL (    4190 calls)
     ffts         :      1.64s CPU      1.70s WALL (     558 calls)
     fftw         :     22.01s CPU     23.88s WALL (    9130 calls)

     Parallel routines

     PWSCF        :   1m33.15s CPU   1m51.03s WALL


   This run was terminated on:  12:51:51   7Jan2021            

=------------------------------------------------------------------------------=
   JOB DONE.
=------------------------------------------------------------------------------=
