
     Program PWSCF v.6.5 starts on 24Apr2020 at 18:18: 0 

     This program is part of the open-source Quantum ESPRESSO suite
     for quantum simulation of materials; please cite
         "P. Giannozzi et al., J. Phys.:Condens. Matter 21 395502 (2009);
         "P. Giannozzi et al., J. Phys.:Condens. Matter 29 465901 (2017);
          URL http://www.quantum-espresso.org", 
     in publications or presentations arising from this work. More details at
     http://www.quantum-espresso.org/quote

     Parallel version (MPI), running on     1 processors

     MPI processes distributed on     1 nodes
     Fft bands division:     nmany     =       1
 WARNING: VELOCITIES FROM INPUT FILE WILL BE IGNORED
 After first step from input file, I will read from the CPV trajectory traj/cp
 SKIPPING STEP FROM INPUT FILE
 SKIPPED STEP          111   8.0548800000000004E-003
 SKIPPED STEP          114   8.2725799999999999E-003
 SKIPPED STEP          117   8.4902799999999994E-003
 SKIPPED STEP          120   8.7079800000000006E-003
 SKIPPED STEP          123   8.9256800000000001E-003
 SKIPPED STEP          126   9.1433799999999996E-003
 SKIPPED STEP          129   9.3610800000000008E-003
 SKIPPED STEP          132   9.5787800000000003E-003
 SKIPPED STEP          135   9.7964799999999998E-003
 SKIPPED STEP          138   1.0014179999999999E-002
 STEP          141   1.0231880000000000E-002

     Subspace diagonalization in iterative solution of the eigenvalue problem:
     a serial algorithm will be used


     G-vector sticks info
     --------------------
     sticks:   dense  smooth     PW     G-vecs:    dense   smooth      PW
     Sum        2561    2561    641                96969    96969   12053



     bravais-lattice index     =            1
     lattice parameter (alat)  =      10.0000  a.u.
     unit-cell volume          =    1000.0000 (a.u.)^3
     number of atoms/cell      =            3
     number of atomic types    =            2
     number of electrons       =         8.00
     number of Kohn-Sham states=            4
     kinetic-energy cutoff     =      80.0000  Ry
     charge density cutoff     =     320.0000  Ry
     convergence threshold     =      1.0E-11
     mixing beta               =       0.7000
     number of iterations used =            8  plain     mixing
     Exchange-correlation=  SLA  PW   PBX  PBC
                           (   1   4   3   4   0   0   0)
     nstep                     =           50


     celldm(1)=  10.000000  celldm(2)=   0.000000  celldm(3)=   0.000000
     celldm(4)=   0.000000  celldm(5)=   0.000000  celldm(6)=   0.000000

     crystal axes: (cart. coord. in units of alat)
               a(1) = (   1.000000   0.000000   0.000000 )  
               a(2) = (   0.000000   1.000000   0.000000 )  
               a(3) = (   0.000000   0.000000   1.000000 )  

     reciprocal axes: (cart. coord. in units 2 pi/alat)
               b(1) = (  1.000000  0.000000  0.000000 )  
               b(2) = (  0.000000  1.000000  0.000000 )  
               b(3) = (  0.000000  0.000000  1.000000 )  


     PseudoPot. # 1 for H  read from file:
     ../pseudo/H_HSCV_PBE-1.0.upf
     MD5 check sum: 9381039c3e76055a91507fe4cf572eb6
     Pseudo is Norm-conserving, Zval =  1.0
     Generated by new atomic code, or converted to UPF format
     Using radial grid of 2000 points,  0 beta functions with: 

     PseudoPot. # 2 for O  read from file:
     ../pseudo/O_HSCV_PBE-1.0.upf
     MD5 check sum: d1ac96ff7cc4673fd84f2420bd578511
     Pseudo is Norm-conserving, Zval =  6.0
     Generated by new atomic code, or converted to UPF format
     Using radial grid of 2000 points,  1 beta functions with: 
                l(1) =   0

     atomic species   valence    mass     pseudopotential
        H              1.00     1.00000     H ( 1.00)
        O              6.00    16.00000     O ( 1.00)

     No symmetry found



   Cartesian axes

     site n.     atom                  positions (alat units)
         1           H   tau(   1) = (   0.0389613   0.1402703   0.0857337  )
         2           H   tau(   2) = (   0.0146434  -0.0661703  -0.1804127  )
         3           O   tau(   3) = (  -0.0341233  -0.0523067   0.0446450  )

     number of k points=     1
                       cart. coord. in units 2pi/alat
        k(    1) = (   0.0000000   0.0000000   0.0000000), wk =   2.0000000

     Dense  grid:    48485 G-vectors     FFT dimensions: (  60,  60,  60)

     Estimated max dynamical RAM per process >      39.92 MB

     Initial potential from superposition of free atoms

     starting charge    7.99998, renormalised to    8.00000
     Starting wfcs are    6 randomized atomic wfcs

     total cpu time spent up to now is        5.0 secs

     Self-consistent Calculation

     iteration #  1     ecut=    80.00 Ry     beta= 0.70
     Davidson diagonalization with overlap
     ethr =  1.00E-02,  avg # of iterations =  2.0

     total cpu time spent up to now is        5.8 secs

     total energy              =     -34.06626818 Ry
     estimated scf accuracy    <       0.41536803 Ry

     iteration #  2     ecut=    80.00 Ry     beta= 0.70
     Davidson diagonalization with overlap
     ethr =  5.19E-03,  avg # of iterations =  3.0

     total cpu time spent up to now is        6.6 secs

     total energy              =     -34.10678736 Ry
     estimated scf accuracy    <       0.85951329 Ry

     iteration #  3     ecut=    80.00 Ry     beta= 0.70
     Davidson diagonalization with overlap
     ethr =  5.19E-03,  avg # of iterations =  3.0

     negative rho (up, down):  3.025E-07 0.000E+00

     total cpu time spent up to now is        7.5 secs

     total energy              =     -34.26231612 Ry
     estimated scf accuracy    <       0.00562219 Ry

     iteration #  4     ecut=    80.00 Ry     beta= 0.70
     Davidson diagonalization with overlap
     ethr =  7.03E-05,  avg # of iterations =  2.0

     total cpu time spent up to now is        8.3 secs

     total energy              =     -34.26320625 Ry
     estimated scf accuracy    <       0.00027385 Ry

     iteration #  5     ecut=    80.00 Ry     beta= 0.70
     Davidson diagonalization with overlap
     ethr =  3.42E-06,  avg # of iterations =  2.0

     total cpu time spent up to now is        9.0 secs

     total energy              =     -34.26323712 Ry
     estimated scf accuracy    <       0.00000895 Ry

     iteration #  6     ecut=    80.00 Ry     beta= 0.70
     Davidson diagonalization with overlap
     ethr =  1.12E-07,  avg # of iterations =  2.0

     total cpu time spent up to now is        9.9 secs

     total energy              =     -34.26323829 Ry
     estimated scf accuracy    <       0.00000079 Ry

     iteration #  7     ecut=    80.00 Ry     beta= 0.70
     Davidson diagonalization with overlap
     ethr =  9.89E-09,  avg # of iterations =  2.0

     total cpu time spent up to now is       10.7 secs

     total energy              =     -34.26323843 Ry
     estimated scf accuracy    <       0.00000002 Ry

     iteration #  8     ecut=    80.00 Ry     beta= 0.70
     Davidson diagonalization with overlap
     ethr =  2.68E-10,  avg # of iterations =  3.0

     total cpu time spent up to now is       11.5 secs

     total energy              =     -34.26323843 Ry
     estimated scf accuracy    <          9.4E-09 Ry

     iteration #  9     ecut=    80.00 Ry     beta= 0.70
     Davidson diagonalization with overlap
     ethr =  1.17E-10,  avg # of iterations =  2.0

     total cpu time spent up to now is       12.3 secs

     total energy              =     -34.26323844 Ry
     estimated scf accuracy    <          7.9E-11 Ry

     iteration # 10     ecut=    80.00 Ry     beta= 0.70
     Davidson diagonalization with overlap
     ethr =  9.92E-13,  avg # of iterations =  3.0

     total cpu time spent up to now is       13.2 secs

     total energy              =     -34.26323844 Ry
     estimated scf accuracy    <          2.0E-11 Ry

     iteration # 11     ecut=    80.00 Ry     beta= 0.70
     Davidson diagonalization with overlap
     ethr =  2.54E-13,  avg # of iterations =  2.0

     total cpu time spent up to now is       13.9 secs

     End of self-consistent calculation

          k = 0.0000 0.0000 0.0000 (  6027 PWs)   bands (ev):

   -22.6104 -10.3601  -8.2348  -5.8889

     highest occupied level (ev):    -5.8889

!    total energy              =     -34.26323844 Ry
     estimated scf accuracy    <          2.2E-12 Ry

     convergence has been achieved in  11 iterations
     charge density from previous step

     total cpu time spent up to now is       14.5 secs

     Self-consistent Calculation

     iteration #  1     ecut=    80.00 Ry     beta= 0.70
     Davidson diagonalization with overlap
     ethr =  1.00E-07,  avg # of iterations =  4.0

     total cpu time spent up to now is       15.4 secs

     total energy              =     -34.26162333 Ry
     estimated scf accuracy    <       0.00004316 Ry

     iteration #  2     ecut=    80.00 Ry     beta= 0.70
     Davidson diagonalization with overlap
     ethr =  5.40E-07,  avg # of iterations =  3.0

     total cpu time spent up to now is       16.2 secs

     total energy              =     -34.26162771 Ry
     estimated scf accuracy    <       0.00005908 Ry

     iteration #  3     ecut=    80.00 Ry     beta= 0.70
     Davidson diagonalization with overlap
     ethr =  5.40E-07,  avg # of iterations =  2.0

     total cpu time spent up to now is       17.0 secs

     total energy              =     -34.26163998 Ry
     estimated scf accuracy    <       0.00000110 Ry

     iteration #  4     ecut=    80.00 Ry     beta= 0.70
     Davidson diagonalization with overlap
     ethr =  1.37E-08,  avg # of iterations =  2.0

     total cpu time spent up to now is       17.8 secs

     total energy              =     -34.26164017 Ry
     estimated scf accuracy    <       0.00000002 Ry

     iteration #  5     ecut=    80.00 Ry     beta= 0.70
     Davidson diagonalization with overlap
     ethr =  2.42E-10,  avg # of iterations =  3.0

     total cpu time spent up to now is       18.7 secs

     total energy              =     -34.26164018 Ry
     estimated scf accuracy    <          5.0E-09 Ry

     iteration #  6     ecut=    80.00 Ry     beta= 0.70
     Davidson diagonalization with overlap
     ethr =  6.20E-11,  avg # of iterations =  1.0

     total cpu time spent up to now is       19.4 secs

     total energy              =     -34.26164018 Ry
     estimated scf accuracy    <          1.1E-09 Ry

     iteration #  7     ecut=    80.00 Ry     beta= 0.70
     Davidson diagonalization with overlap
     ethr =  1.33E-11,  avg # of iterations =  3.0

     total cpu time spent up to now is       20.3 secs

     total energy              =     -34.26164018 Ry
     estimated scf accuracy    <          4.1E-10 Ry

     iteration #  8     ecut=    80.00 Ry     beta= 0.70
     Davidson diagonalization with overlap
     ethr =  5.16E-12,  avg # of iterations =  2.0

     total cpu time spent up to now is       21.1 secs

     total energy              =     -34.26164018 Ry
     estimated scf accuracy    <          1.8E-11 Ry

     iteration #  9     ecut=    80.00 Ry     beta= 0.70
     Davidson diagonalization with overlap
     ethr =  2.22E-13,  avg # of iterations =  2.0

     total cpu time spent up to now is       21.8 secs

     End of self-consistent calculation

          k = 0.0000 0.0000 0.0000 (  6027 PWs)   bands (ev):

   -22.5967 -10.3446  -8.2331  -5.8860

     highest occupied level (ev):    -5.8860

!    total energy              =     -34.26164018 Ry
     estimated scf accuracy    <          7.8E-13 Ry

     convergence has been achieved in   9 iterations
 INIZIO ROUTINE HARTREE & KOHN
 check_charge   3.9999999999999702     
 check_charge   4.0000000000000568     
     hartree_curr :      0.21s CPU      0.22s WALL (       1 calls)
 CORRENTE HARTREE CALCOLATA
     xc_current   :      0.21s CPU      0.21s WALL (       1 calls)
 CORRENTE X-C CALCOLATA
     project      :      1.54s CPU      1.57s WALL (       1 calls)
     kohn-first   :      0.00s CPU      0.00s WALL (       1 calls)
     kohn-second  :      0.00s CPU      0.00s WALL (       1 calls)
  KOHN POLARIZZAZIONE   1 COMPLETATA
     project      :      3.08s CPU      3.13s WALL (       2 calls)
     kohn-first   :      0.00s CPU      0.00s WALL (       2 calls)
     kohn-second  :      0.00s CPU      0.00s WALL (       2 calls)
  KOHN POLARIZZAZIONE   2 COMPLETATA
     project      :      4.62s CPU      4.69s WALL (       3 calls)
     kohn-first   :      0.00s CPU      0.00s WALL (       3 calls)
     kohn-second  :      0.00s CPU      0.00s WALL (       3 calls)
  KOHN POLARIZZAZIONE   3 COMPLETATA
     kohn_current :      4.88s CPU      4.95s WALL (       1 calls)
 CORRENTE KOHN CALCOLATA
     routine_hart :      5.30s CPU      5.38s WALL (       1 calls)
 INIZIO ROUTINE ZERO
 eta  0.10000000000000001     
     zero_current :      3.23s CPU      3.24s WALL (       1 calls)
 CORRENTE ZERO CALCOLATA
     calcolo_i    :      0.01s CPU      0.01s WALL (       1 calls)
 CORRENTE IONIC CALCOLATA
     routine_zero :      3.25s CPU      3.26s WALL (       1 calls)
total energy current:   0.550928700472E-04 -0.291936857384E-03  0.118169202961E-02
center of mass velocity of type   1:   0.216571054201E-02  0.250280869520E-02 -0.478096489241E-02
center of mass velocity of type   2:  -0.270713817752E-03 -0.312851086900E-03  0.597620611552E-03
 STEP          144   1.0449580000000000E-002
     charge density from previous step

     total cpu time spent up to now is       31.0 secs

     Self-consistent Calculation

     iteration #  1     ecut=    80.00 Ry     beta= 0.70
     Davidson diagonalization with overlap
     ethr =  1.00E-03,  avg # of iterations =  1.0

     Threshold (ethr) on eigenvalues was too large:
     Diagonalizing with lowered threshold

     Davidson diagonalization with overlap
     ethr =  1.36E-05,  avg # of iterations =  3.0

     total cpu time spent up to now is       32.1 secs

     total energy              =     -34.24809504 Ry
     estimated scf accuracy    <       0.00261137 Ry

     iteration #  2     ecut=    80.00 Ry     beta= 0.70
     Davidson diagonalization with overlap
     ethr =  3.26E-05,  avg # of iterations =  3.0

     total cpu time spent up to now is       32.9 secs

     total energy              =     -34.24834227 Ry
     estimated scf accuracy    <       0.00381056 Ry

     iteration #  3     ecut=    80.00 Ry     beta= 0.70
     Davidson diagonalization with overlap
     ethr =  3.26E-05,  avg # of iterations =  2.0

     total cpu time spent up to now is       33.7 secs

     total energy              =     -34.24912052 Ry
     estimated scf accuracy    <       0.00006584 Ry

     iteration #  4     ecut=    80.00 Ry     beta= 0.70
     Davidson diagonalization with overlap
     ethr =  8.23E-07,  avg # of iterations =  2.0

     total cpu time spent up to now is       34.5 secs

     total energy              =     -34.24913207 Ry
     estimated scf accuracy    <       0.00000135 Ry

     iteration #  5     ecut=    80.00 Ry     beta= 0.70
     Davidson diagonalization with overlap
     ethr =  1.69E-08,  avg # of iterations =  3.0

     total cpu time spent up to now is       35.3 secs

     total energy              =     -34.24913282 Ry
     estimated scf accuracy    <       0.00000043 Ry

     iteration #  6     ecut=    80.00 Ry     beta= 0.70
     Davidson diagonalization with overlap
     ethr =  5.32E-09,  avg # of iterations =  1.0

     total cpu time spent up to now is       36.0 secs

     total energy              =     -34.24913280 Ry
     estimated scf accuracy    <       0.00000010 Ry

     iteration #  7     ecut=    80.00 Ry     beta= 0.70
     Davidson diagonalization with overlap
     ethr =  1.19E-09,  avg # of iterations =  3.0

     total cpu time spent up to now is       36.9 secs

     total energy              =     -34.24913284 Ry
     estimated scf accuracy    <       0.00000003 Ry

     iteration #  8     ecut=    80.00 Ry     beta= 0.70
     Davidson diagonalization with overlap
     ethr =  3.24E-10,  avg # of iterations =  2.0

     total cpu time spent up to now is       37.7 secs

     total energy              =     -34.24913284 Ry
     estimated scf accuracy    <          3.9E-10 Ry

     iteration #  9     ecut=    80.00 Ry     beta= 0.70
     Davidson diagonalization with overlap
     ethr =  4.86E-12,  avg # of iterations =  2.0

     total cpu time spent up to now is       38.6 secs

     total energy              =     -34.24913284 Ry
     estimated scf accuracy    <          6.3E-11 Ry

     iteration # 10     ecut=    80.00 Ry     beta= 0.70
     Davidson diagonalization with overlap
     ethr =  7.85E-13,  avg # of iterations =  3.0

     total cpu time spent up to now is       39.3 secs

     End of self-consistent calculation

          k = 0.0000 0.0000 0.0000 (  6027 PWs)   bands (ev):

   -22.4944 -10.2268  -8.2199  -5.8642

     highest occupied level (ev):    -5.8642

!    total energy              =     -34.24913284 Ry
     estimated scf accuracy    <          2.1E-12 Ry

     convergence has been achieved in  10 iterations
     charge density from previous step

     total cpu time spent up to now is       39.9 secs

     Self-consistent Calculation

     iteration #  1     ecut=    80.00 Ry     beta= 0.70
     Davidson diagonalization with overlap
     ethr =  1.00E-07,  avg # of iterations =  4.0

     total cpu time spent up to now is       40.8 secs

     total energy              =     -34.24758422 Ry
     estimated scf accuracy    <       0.00003690 Ry

     iteration #  2     ecut=    80.00 Ry     beta= 0.70
     Davidson diagonalization with overlap
     ethr =  4.61E-07,  avg # of iterations =  3.0

     total cpu time spent up to now is       41.6 secs

     total energy              =     -34.24758743 Ry
     estimated scf accuracy    <       0.00005423 Ry

     iteration #  3     ecut=    80.00 Ry     beta= 0.70
     Davidson diagonalization with overlap
     ethr =  4.61E-07,  avg # of iterations =  2.0

     total cpu time spent up to now is       42.4 secs

     total energy              =     -34.24759856 Ry
     estimated scf accuracy    <       0.00000101 Ry

     iteration #  4     ecut=    80.00 Ry     beta= 0.70
     Davidson diagonalization with overlap
     ethr =  1.26E-08,  avg # of iterations =  2.0

     total cpu time spent up to now is       43.2 secs

     total energy              =     -34.24759873 Ry
     estimated scf accuracy    <       0.00000002 Ry

     iteration #  5     ecut=    80.00 Ry     beta= 0.70
     Davidson diagonalization with overlap
     ethr =  2.59E-10,  avg # of iterations =  3.0

     total cpu time spent up to now is       44.0 secs

     total energy              =     -34.24759874 Ry
     estimated scf accuracy    <          6.9E-09 Ry

     iteration #  6     ecut=    80.00 Ry     beta= 0.70
     Davidson diagonalization with overlap
     ethr =  8.65E-11,  avg # of iterations =  2.0

     total cpu time spent up to now is       44.8 secs

     total energy              =     -34.24759874 Ry
     estimated scf accuracy    <          9.6E-10 Ry

     iteration #  7     ecut=    80.00 Ry     beta= 0.70
     Davidson diagonalization with overlap
     ethr =  1.20E-11,  avg # of iterations =  3.0

     total cpu time spent up to now is       45.7 secs

     total energy              =     -34.24759874 Ry
     estimated scf accuracy    <          1.4E-10 Ry

     iteration #  8     ecut=    80.00 Ry     beta= 0.70
     Davidson diagonalization with overlap
     ethr =  1.70E-12,  avg # of iterations =  2.0

     total cpu time spent up to now is       46.5 secs

     total energy              =     -34.24759874 Ry
     estimated scf accuracy    <          1.9E-11 Ry

     iteration #  9     ecut=    80.00 Ry     beta= 0.70
     Davidson diagonalization with overlap
     ethr =  2.40E-13,  avg # of iterations =  3.0

     total cpu time spent up to now is       47.3 secs

     End of self-consistent calculation

          k = 0.0000 0.0000 0.0000 (  6027 PWs)   bands (ev):

   -22.4823 -10.2128  -8.2184  -5.8616

     highest occupied level (ev):    -5.8616

!    total energy              =     -34.24759874 Ry
     estimated scf accuracy    <          3.4E-13 Ry

     convergence has been achieved in   9 iterations
 INIZIO ROUTINE HARTREE & KOHN
 check_charge   3.9999999999999023     
 check_charge   3.9999999999999720     
     hartree_curr :      0.41s CPU      0.43s WALL (       2 calls)
 CORRENTE HARTREE CALCOLATA
     xc_current   :      0.42s CPU      0.43s WALL (       2 calls)
 CORRENTE X-C CALCOLATA
     project      :      6.17s CPU      6.26s WALL (       4 calls)
     kohn-first   :      0.00s CPU      0.00s WALL (       4 calls)
     kohn-second  :      0.00s CPU      0.00s WALL (       4 calls)
  KOHN POLARIZZAZIONE   1 COMPLETATA
     project      :      7.75s CPU      7.86s WALL (       5 calls)
     kohn-first   :      0.00s CPU      0.00s WALL (       5 calls)
     kohn-second  :      0.00s CPU      0.00s WALL (       5 calls)
  KOHN POLARIZZAZIONE   2 COMPLETATA
     project      :      9.33s CPU      9.44s WALL (       6 calls)
     kohn-first   :      0.00s CPU      0.00s WALL (       6 calls)
     kohn-second  :      0.00s CPU      0.00s WALL (       6 calls)
  KOHN POLARIZZAZIONE   3 COMPLETATA
     kohn_current :      9.84s CPU      9.95s WALL (       2 calls)
 CORRENTE KOHN CALCOLATA
     routine_hart :     10.68s CPU     10.81s WALL (       2 calls)
 INIZIO ROUTINE ZERO
 eta  0.10000000000000001     
     zero_current :      6.46s CPU      6.49s WALL (       2 calls)
 CORRENTE ZERO CALCOLATA
     calcolo_i    :      0.03s CPU      0.03s WALL (       2 calls)
 CORRENTE IONIC CALCOLATA
     routine_zero :      6.49s CPU      6.52s WALL (       2 calls)
total energy current:  -0.306092907142E-04 -0.305982486885E-03  0.130841567766E-02
center of mass velocity of type   1:   0.206368127752E-02  0.245365426030E-02 -0.445024814491E-02
center of mass velocity of type   2:  -0.257960159690E-03 -0.306706782538E-03  0.556281018114E-03
 STEP          147   1.0667279999999999E-002
     charge density from previous step

     total cpu time spent up to now is       56.5 secs

     Self-consistent Calculation

     iteration #  1     ecut=    80.00 Ry     beta= 0.70
     Davidson diagonalization with overlap
     ethr =  1.00E-03,  avg # of iterations =  1.0

     Threshold (ethr) on eigenvalues was too large:
     Diagonalizing with lowered threshold

     Davidson diagonalization with overlap
     ethr =  1.11E-05,  avg # of iterations =  3.0

     total cpu time spent up to now is       57.5 secs

     total energy              =     -34.23488360 Ry
     estimated scf accuracy    <       0.00218896 Ry

     iteration #  2     ecut=    80.00 Ry     beta= 0.70
     Davidson diagonalization with overlap
     ethr =  2.74E-05,  avg # of iterations =  3.0

     total cpu time spent up to now is       58.4 secs

     total energy              =     -34.23505906 Ry
     estimated scf accuracy    <       0.00341196 Ry

     iteration #  3     ecut=    80.00 Ry     beta= 0.70
     Davidson diagonalization with overlap
     ethr =  2.74E-05,  avg # of iterations =  2.0

     total cpu time spent up to now is       59.2 secs

     total energy              =     -34.23574827 Ry
     estimated scf accuracy    <       0.00005952 Ry

     iteration #  4     ecut=    80.00 Ry     beta= 0.70
     Davidson diagonalization with overlap
     ethr =  7.44E-07,  avg # of iterations =  2.0

     total cpu time spent up to now is       60.0 secs

     total energy              =     -34.23575856 Ry
     estimated scf accuracy    <       0.00000143 Ry

     iteration #  5     ecut=    80.00 Ry     beta= 0.70
     Davidson diagonalization with overlap
     ethr =  1.78E-08,  avg # of iterations =  3.0

     total cpu time spent up to now is       60.8 secs

     total energy              =     -34.23575941 Ry
     estimated scf accuracy    <       0.00000056 Ry

     iteration #  6     ecut=    80.00 Ry     beta= 0.70
     Davidson diagonalization with overlap
     ethr =  7.04E-09,  avg # of iterations =  1.0

     total cpu time spent up to now is       61.6 secs

     total energy              =     -34.23575940 Ry
     estimated scf accuracy    <       0.00000011 Ry

     iteration #  7     ecut=    80.00 Ry     beta= 0.70
     Davidson diagonalization with overlap
     ethr =  1.36E-09,  avg # of iterations =  3.0

     total cpu time spent up to now is       62.4 secs

     total energy              =     -34.23575944 Ry
     estimated scf accuracy    <       0.00000002 Ry

     iteration #  8     ecut=    80.00 Ry     beta= 0.70
     Davidson diagonalization with overlap
     ethr =  2.95E-10,  avg # of iterations =  2.0

     total cpu time spent up to now is       63.2 secs

     total energy              =     -34.23575944 Ry
     estimated scf accuracy    <          3.8E-10 Ry

     iteration #  9     ecut=    80.00 Ry     beta= 0.70
     Davidson diagonalization with overlap
     ethr =  4.73E-12,  avg # of iterations =  2.0

     total cpu time spent up to now is       64.1 secs

     total energy              =     -34.23575944 Ry
     estimated scf accuracy    <          4.8E-11 Ry

     iteration # 10     ecut=    80.00 Ry     beta= 0.70
     Davidson diagonalization with overlap
     ethr =  6.04E-13,  avg # of iterations =  3.0

     total cpu time spent up to now is       64.9 secs

     End of self-consistent calculation

          k = 0.0000 0.0000 0.0000 (  6027 PWs)   bands (ev):

   -22.3928 -10.1068  -8.2071  -5.8428

     highest occupied level (ev):    -5.8428

!    total energy              =     -34.23575944 Ry
     estimated scf accuracy    <          5.5E-12 Ry

     convergence has been achieved in  10 iterations
     charge density from previous step

     total cpu time spent up to now is       65.4 secs

     Self-consistent Calculation

     iteration #  1     ecut=    80.00 Ry     beta= 0.70
     Davidson diagonalization with overlap
     ethr =  1.00E-07,  avg # of iterations =  4.0

     total cpu time spent up to now is       66.3 secs

     total energy              =     -34.23431004 Ry
     estimated scf accuracy    <       0.00003061 Ry

     iteration #  2     ecut=    80.00 Ry     beta= 0.70
     Davidson diagonalization with overlap
     ethr =  3.83E-07,  avg # of iterations =  3.0

     total cpu time spent up to now is       67.1 secs

     total energy              =     -34.23431225 Ry
     estimated scf accuracy    <       0.00004802 Ry

     iteration #  3     ecut=    80.00 Ry     beta= 0.70
     Davidson diagonalization with overlap
     ethr =  3.83E-07,  avg # of iterations =  2.0

     total cpu time spent up to now is       67.9 secs

     total energy              =     -34.23432200 Ry
     estimated scf accuracy    <       0.00000090 Ry

     iteration #  4     ecut=    80.00 Ry     beta= 0.70
     Davidson diagonalization with overlap
     ethr =  1.13E-08,  avg # of iterations =  2.0

     total cpu time spent up to now is       68.7 secs

     total energy              =     -34.23432215 Ry
     estimated scf accuracy    <       0.00000002 Ry

     iteration #  5     ecut=    80.00 Ry     beta= 0.70
     Davidson diagonalization with overlap
     ethr =  2.55E-10,  avg # of iterations =  3.0

     total cpu time spent up to now is       69.6 secs

     total energy              =     -34.23432216 Ry
     estimated scf accuracy    <          7.4E-09 Ry

     iteration #  6     ecut=    80.00 Ry     beta= 0.70
     Davidson diagonalization with overlap
     ethr =  9.29E-11,  avg # of iterations =  1.0

     total cpu time spent up to now is       70.3 secs

     total energy              =     -34.23432216 Ry
     estimated scf accuracy    <          1.5E-09 Ry

     iteration #  7     ecut=    80.00 Ry     beta= 0.70
     Davidson diagonalization with overlap
     ethr =  1.84E-11,  avg # of iterations =  3.0

     total cpu time spent up to now is       71.2 secs

     total energy              =     -34.23432216 Ry
     estimated scf accuracy    <          4.9E-10 Ry

     iteration #  8     ecut=    80.00 Ry     beta= 0.70
     Davidson diagonalization with overlap
     ethr =  6.17E-12,  avg # of iterations =  2.0

     total cpu time spent up to now is       72.0 secs

     total energy              =     -34.23432216 Ry
     estimated scf accuracy    <          1.4E-11 Ry

     iteration #  9     ecut=    80.00 Ry     beta= 0.70
     Davidson diagonalization with overlap
     ethr =  1.71E-13,  avg # of iterations =  2.0

     total cpu time spent up to now is       72.7 secs

     End of self-consistent calculation

          k = 0.0000 0.0000 0.0000 (  6027 PWs)   bands (ev):

   -22.3823 -10.0942  -8.2057  -5.8406

     highest occupied level (ev):    -5.8406

!    total energy              =     -34.23432216 Ry
     estimated scf accuracy    <          1.3E-12 Ry

     convergence has been achieved in   9 iterations
 INIZIO ROUTINE HARTREE & KOHN
 check_charge   3.9999999999999445     
 check_charge   3.9999999999999600     
     hartree_curr :      0.61s CPU      0.65s WALL (       3 calls)
 CORRENTE HARTREE CALCOLATA
     xc_current   :      0.64s CPU      0.64s WALL (       3 calls)
 CORRENTE X-C CALCOLATA
     project      :     10.86s CPU     10.99s WALL (       7 calls)
     kohn-first   :      0.00s CPU      0.00s WALL (       7 calls)
     kohn-second  :      0.00s CPU      0.00s WALL (       7 calls)
  KOHN POLARIZZAZIONE   1 COMPLETATA
     project      :     12.41s CPU     12.56s WALL (       8 calls)
     kohn-first   :      0.00s CPU      0.00s WALL (       8 calls)
     kohn-second  :      0.00s CPU      0.00s WALL (       8 calls)
  KOHN POLARIZZAZIONE   2 COMPLETATA
     project      :     13.96s CPU     14.14s WALL (       9 calls)
     kohn-first   :      0.00s CPU      0.00s WALL (       9 calls)
     kohn-second  :      0.00s CPU      0.00s WALL (       9 calls)
  KOHN POLARIZZAZIONE   3 COMPLETATA
     kohn_current :     14.72s CPU     14.91s WALL (       3 calls)
 CORRENTE KOHN CALCOLATA
     routine_hart :     15.97s CPU     16.21s WALL (       3 calls)
 INIZIO ROUTINE ZERO
 eta  0.10000000000000001     
     zero_current :      9.70s CPU      9.75s WALL (       3 calls)
 CORRENTE ZERO CALCOLATA
     calcolo_i    :      0.04s CPU      0.04s WALL (       3 calls)
 CORRENTE IONIC CALCOLATA
     routine_zero :      9.74s CPU      9.79s WALL (       3 calls)
total energy current:  -0.655005480105E-04 -0.322764275200E-03  0.131196996814E-02
center of mass velocity of type   1:   0.194649306417E-02  0.235332672221E-02 -0.409077404931E-02
center of mass velocity of type   2:  -0.243311633021E-03 -0.294165840276E-03  0.511346756164E-03
 STEP          150   1.0884980000000001E-002
     charge density from previous step

     total cpu time spent up to now is       82.0 secs

     Self-consistent Calculation

     iteration #  1     ecut=    80.00 Ry     beta= 0.70
     Davidson diagonalization with overlap
     ethr =  1.00E-03,  avg # of iterations =  1.0

     Threshold (ethr) on eigenvalues was too large:
     Diagonalizing with lowered threshold

     Davidson diagonalization with overlap
     ethr =  8.92E-06,  avg # of iterations =  3.0

     total cpu time spent up to now is       83.0 secs

     total energy              =     -34.22262730 Ry
     estimated scf accuracy    <       0.00178925 Ry

     iteration #  2     ecut=    80.00 Ry     beta= 0.70
     Davidson diagonalization with overlap
     ethr =  2.24E-05,  avg # of iterations =  3.0

     total cpu time spent up to now is       83.8 secs

     total energy              =     -34.22274534 Ry
     estimated scf accuracy    <       0.00296197 Ry

     iteration #  3     ecut=    80.00 Ry     beta= 0.70
     Davidson diagonalization with overlap
     ethr =  2.24E-05,  avg # of iterations =  2.0

     total cpu time spent up to now is       84.6 secs

     total energy              =     -34.22333749 Ry
     estimated scf accuracy    <       0.00005223 Ry

     iteration #  4     ecut=    80.00 Ry     beta= 0.70
     Davidson diagonalization with overlap
     ethr =  6.53E-07,  avg # of iterations =  2.0

     total cpu time spent up to now is       85.4 secs

     total energy              =     -34.22334645 Ry
     estimated scf accuracy    <       0.00000138 Ry

     iteration #  5     ecut=    80.00 Ry     beta= 0.70
     Davidson diagonalization with overlap
     ethr =  1.72E-08,  avg # of iterations =  3.0

     total cpu time spent up to now is       86.2 secs

     total energy              =     -34.22334727 Ry
     estimated scf accuracy    <       0.00000058 Ry

     iteration #  6     ecut=    80.00 Ry     beta= 0.70
     Davidson diagonalization with overlap
     ethr =  7.28E-09,  avg # of iterations =  1.0

     total cpu time spent up to now is       87.0 secs

     total energy              =     -34.22334726 Ry
     estimated scf accuracy    <       0.00000012 Ry

     iteration #  7     ecut=    80.00 Ry     beta= 0.70
     Davidson diagonalization with overlap
     ethr =  1.51E-09,  avg # of iterations =  3.0

     total cpu time spent up to now is       87.9 secs

     total energy              =     -34.22334730 Ry
     estimated scf accuracy    <       0.00000002 Ry

     iteration #  8     ecut=    80.00 Ry     beta= 0.70
     Davidson diagonalization with overlap
     ethr =  2.46E-10,  avg # of iterations =  2.0

     total cpu time spent up to now is       88.7 secs

     total energy              =     -34.22334730 Ry
     estimated scf accuracy    <          2.5E-10 Ry

     iteration #  9     ecut=    80.00 Ry     beta= 0.70
     Davidson diagonalization with overlap
     ethr =  3.13E-12,  avg # of iterations =  3.0

     total cpu time spent up to now is       89.5 secs

     End of self-consistent calculation

          k = 0.0000 0.0000 0.0000 (  6027 PWs)   bands (ev):

   -22.3046  -9.9999  -8.1963  -5.8244

     highest occupied level (ev):    -5.8244

!    total energy              =     -34.22334730 Ry
     estimated scf accuracy    <          9.7E-12 Ry

     convergence has been achieved in   9 iterations
     charge density from previous step

     total cpu time spent up to now is       90.0 secs

     Self-consistent Calculation

     iteration #  1     ecut=    80.00 Ry     beta= 0.70
     Davidson diagonalization with overlap
     ethr =  1.00E-07,  avg # of iterations =  4.0

     total cpu time spent up to now is       90.9 secs

     total energy              =     -34.22201718 Ry
     estimated scf accuracy    <       0.00002471 Ry

     iteration #  2     ecut=    80.00 Ry     beta= 0.70
     Davidson diagonalization with overlap
     ethr =  3.09E-07,  avg # of iterations =  3.0

     total cpu time spent up to now is       91.8 secs

     total energy              =     -34.22201861 Ry
     estimated scf accuracy    <       0.00004112 Ry

     iteration #  3     ecut=    80.00 Ry     beta= 0.70
     Davidson diagonalization with overlap
     ethr =  3.09E-07,  avg # of iterations =  2.0

     total cpu time spent up to now is       92.6 secs

     total energy              =     -34.22202687 Ry
     estimated scf accuracy    <       0.00000078 Ry

     iteration #  4     ecut=    80.00 Ry     beta= 0.70
     Davidson diagonalization with overlap
     ethr =  9.74E-09,  avg # of iterations =  2.0

     total cpu time spent up to now is       93.4 secs

     total energy              =     -34.22202700 Ry
     estimated scf accuracy    <       0.00000002 Ry

     iteration #  5     ecut=    80.00 Ry     beta= 0.70
     Davidson diagonalization with overlap
     ethr =  2.42E-10,  avg # of iterations =  3.0

     total cpu time spent up to now is       94.2 secs

     total energy              =     -34.22202701 Ry
     estimated scf accuracy    <          7.6E-09 Ry

     iteration #  6     ecut=    80.00 Ry     beta= 0.70
     Davidson diagonalization with overlap
     ethr =  9.47E-11,  avg # of iterations =  1.0

     total cpu time spent up to now is       95.0 secs

     total energy              =     -34.22202701 Ry
     estimated scf accuracy    <          1.6E-09 Ry

     iteration #  7     ecut=    80.00 Ry     beta= 0.70
     Davidson diagonalization with overlap
     ethr =  1.99E-11,  avg # of iterations =  3.0

     total cpu time spent up to now is       95.8 secs

     total energy              =     -34.22202701 Ry
     estimated scf accuracy    <          4.4E-10 Ry

     iteration #  8     ecut=    80.00 Ry     beta= 0.70
     Davidson diagonalization with overlap
     ethr =  5.52E-12,  avg # of iterations =  2.0

     total cpu time spent up to now is       96.5 secs

     End of self-consistent calculation

          k = 0.0000 0.0000 0.0000 (  6027 PWs)   bands (ev):

   -22.2956  -9.9887  -8.1952  -5.8225

     highest occupied level (ev):    -5.8225

!    total energy              =     -34.22202701 Ry
     estimated scf accuracy    <          5.4E-12 Ry

     convergence has been achieved in   8 iterations
 INIZIO ROUTINE HARTREE & KOHN
 check_charge   4.0000000000001243     
 check_charge   4.0000000000000098     
     hartree_curr :      0.82s CPU      0.87s WALL (       4 calls)
 CORRENTE HARTREE CALCOLATA
     xc_current   :      0.85s CPU      0.85s WALL (       4 calls)
 CORRENTE X-C CALCOLATA
     project      :     15.51s CPU     15.72s WALL (      10 calls)
     kohn-first   :      0.00s CPU      0.00s WALL (      10 calls)
     kohn-second  :      0.00s CPU      0.00s WALL (      10 calls)
  KOHN POLARIZZAZIONE   1 COMPLETATA
     project      :     17.06s CPU     17.29s WALL (      11 calls)
     kohn-first   :      0.01s CPU      0.01s WALL (      11 calls)
     kohn-second  :      0.00s CPU      0.00s WALL (      11 calls)
  KOHN POLARIZZAZIONE   2 COMPLETATA
     project      :     18.62s CPU     18.87s WALL (      12 calls)
     kohn-first   :      0.01s CPU      0.01s WALL (      12 calls)
     kohn-second  :      0.01s CPU      0.01s WALL (      12 calls)
  KOHN POLARIZZAZIONE   3 COMPLETATA
     kohn_current :     19.64s CPU     19.89s WALL (       4 calls)
 CORRENTE KOHN CALCOLATA
     routine_hart :     21.31s CPU     21.63s WALL (       4 calls)
 INIZIO ROUTINE ZERO
 eta  0.10000000000000001     
     zero_current :     12.93s CPU     13.01s WALL (       4 calls)
 CORRENTE ZERO CALCOLATA
     calcolo_i    :      0.06s CPU      0.06s WALL (       4 calls)
 CORRENTE IONIC CALCOLATA
     routine_zero :     12.98s CPU     13.06s WALL (       4 calls)
total energy current:  -0.903644839748E-04 -0.306498772682E-03  0.119800387718E-02
center of mass velocity of type   1:   0.180320665593E-02  0.223605031956E-02 -0.372217607210E-02
center of mass velocity of type   2:  -0.225400831991E-03 -0.279506289945E-03  0.465272009012E-03
 STEP          153   1.1102680000000000E-002  >          150
 Finished reading trajectory traj/cp at step          153

     init_run     :      1.54s CPU      1.61s WALL (       1 calls)
     electrons    :     60.10s CPU     61.64s WALL (       8 calls)
     update_pot   :      3.47s CPU      3.72s WALL (       7 calls)

     Called by init_run:
     wfcinit      :      0.10s CPU      0.10s WALL (       1 calls)
     potinit      :      0.67s CPU      0.73s WALL (       1 calls)
     hinit0       :      0.71s CPU      0.72s WALL (       1 calls)

     Called by electrons:
     c_bands      :     13.68s CPU     13.86s WALL (      78 calls)
     sum_band     :      6.02s CPU      6.08s WALL (      78 calls)
     v_of_rho     :     39.73s CPU     41.15s WALL (      83 calls)
     mix_rho      :      3.95s CPU      4.06s WALL (      78 calls)

     Called by c_bands:
     init_us_2    :      0.17s CPU      0.18s WALL (     165 calls)
     regterg      :     13.57s CPU     13.75s WALL (      78 calls)

     Called by *egterg:
     rdiaghg      :      0.03s CPU      0.04s WALL (     255 calls)
     h_psi        :     30.25s CPU     30.62s WALL (     606 calls)
     g_psi        :      0.13s CPU      0.13s WALL (     187 calls)

     Called by h_psi:
     h_psi:calbec :      0.12s CPU      0.12s WALL (     606 calls)
     vloc_psi     :     29.97s CPU     30.33s WALL (     606 calls)
     add_vuspsi   :      0.07s CPU      0.08s WALL (     606 calls)

     General routines
     calbec       :      0.16s CPU      0.17s WALL (    1034 calls)
     fft          :     13.56s CPU     13.67s WALL (     659 calls)
     ffts         :      1.71s CPU      1.73s WALL (     102 calls)
     fftw         :     28.12s CPU     28.43s WALL (    2476 calls)

     Parallel routines

     PWSCF        :   1m42.96s CPU   1m45.24s WALL


   This run was terminated on:  18:19:45  24Apr2020            

=------------------------------------------------------------------------------=
   JOB DONE.
=------------------------------------------------------------------------------=
