                                                                                      
                                       ``:oss/                                        
                           `.+s+.     .+ys--yh+     `./ss+.                           
                          -sh//yy+`   +yy   +yy    -+h+-oyy                           
                          -yh- .oyy/.-sh.   .syo-.:sy-  /yh                           
                 `.-.`    `yh+   -oyyyo.     `/syys:    oys      `.`                  
               `/+ssys+-` `sh+      `                   oys`   .:osyo`                
               -yh- ./syyooyo`                          .sys+/oyo--yh/                
               `yy+    .-:-.                             `-/+/:`  -sh-                
                /yh.                                              oys                 
          ``..---hho---------`   .---------..`      `.-----.`    -hd+---.             
       `./osmNMMMMMMMMMMMMMMMs. +NNMMMMMMMMNNmh+.   yNMMMMMNm-  oNMMMMMNmo++:`        
       +sy--/sdMMMhyyyyyyyNMMh- .oyNMMmyyyyyhNMMm+` -yMMMdyyo:` .oyyNMMNhs+syy`       
       -yy/   /MMM+.`-+/``mMMy-   `mMMh:`````.dMMN:` `MMMy-`-dhhy```mMMy:``+hs        
        -yy+` /MMMo:-mMM+`-oo/.    mMMh:     `dMMN/`  dMMm:`dMMMMy..MMMo-.+yo`        
         .sys`/MMMMNNMMMs-         mMMmyooooymMMNo:   oMMM/sMMMMMM++MMN//oh:          
          `sh+/MMMhyyMMMs- `-`     mMMMMMMMMMNmy+-`   -MMMhMMMsmMMmdMMd/yy+           
    `-/+++oyy-/MMM+.`/hh/.`mNm:`   mMMd+/////:-.`      NMMMMMd/:NMMMMMy:/yyo/:.`      
   +os+//:-..-oMMMo:--:::-/MMMo. .-mMMd+---`           hMMMMN+. oMMMMMo. `-+osyso:`   
   syo     `mNMMMMMNNNNNNNNMMMo.oNNMMMMMNNNN:`         +MMMMs:`  dMMMN/`     ``:syo   
   /yh`     :syyyyyyyyyyyyyyyy+.`+syyyyyyyyo:`         .oyys:`   .oyys:`        +yh   
   -yh-        ````````````````    `````````              ``        ``          oys   
   -+h/------------------------::::::::://////++++++++++++++++++++++///////::::/yd:   
   shdddddddddddddddddddddddddddddhhhhhhhhyyyyyssssssssssssssssyyyyyyyhhhhhhhddddh`   
                                                                                      
  S. Ponce, E. R. Margine, C. Verdi, and F. Giustino,                                 
                                                Comput. Phys. Commun. 209, 116 (2016) 
                                                                                      

     Program EPW v.5.0.0 starts on 10Apr2018 at 12:43: 5 

     This program is part of the open-source Quantum ESPRESSO suite
     for quantum simulation of materials; please cite
         "P. Giannozzi et al., J. Phys.:Condens. Matter 21 395502 (2009);
         "P. Giannozzi et al., J. Phys.:Condens. Matter 29 465901 (2017);
          URL http://www.quantum-espresso.org", 
     in publications or presentations arising from this work. More details at
     http://www.quantum-espresso.org/quote

     Parallel version (MPI), running on     4 processors

     MPI processes distributed on     1 nodes
     K-points division:     npool     =       4
                      
     ------------------------------------------------------------------------ 
                   RESTART - RESTART - RESTART - RESTART                         
     Restart is done without reading PWSCF save file.                  
     Be aware that some consistency checks are therefore not done.                  
     ------------------------------------------------------------------------ 
                      

     --                                                                         

     bravais-lattice index     =            0
     lattice parameter (a_0)   =       0.0000  a.u.
     unit-cell volume          =       0.0000 (a.u.)^3
     number of atoms/cell      =            0
     number of atomic types    =            0
     kinetic-energy cut-off    =       0.0000  Ry
     charge density cut-off    =       0.0000  Ry
     convergence threshold     =      0.0E+00
     beta                      =       0.0000
     number of iterations used =            0
     Exchange-correlation      = not set (-1 -1 -1 -1-1-1)


     celldm(1)=    0.00000  celldm(2)=    0.00000  celldm(3)=    0.00000
     celldm(4)=    0.00000  celldm(5)=    0.00000  celldm(6)=    0.00000

     crystal axes: (cart. coord. in units of a_0)
               a(1) = (  0.0000  0.0000  0.0000 )  
               a(2) = (  0.0000  0.0000  0.0000 )  
               a(3) = (  0.0000  0.0000  0.0000 )  

     reciprocal axes: (cart. coord. in units 2 pi/a_0)
               b(1) = (  0.0000  0.0000  0.0000 )  
               b(2) = (  0.0000  0.0000  0.0000 )  
               b(3) = (  0.0000  0.0000  0.0000 )  


     Atoms inside the unit cell: 

   Cartesian axes

     site n.  atom      mass           positions (a_0 units)


     No symmetry!

     G cutoff =    0.0000  (      0 G-vectors)     FFT grid: (  0,  0,  0)
     number of k points=    0
                       cart. coord. in units 2pi/a_0
     EPW          :     0.00s CPU         0.00s WALL

     EPW          :     0.00s CPU         0.00s WALL

     No wavefunction gauge setting applied

     -------------------------------------------------------------------
     Using si.ukk from disk
     -------------------------------------------------------------------


     Using kmap and kgmap from disk

     Do not need to read .epb files; read .fmt files


              band disentanglement is used:  nbndsub =   16

     Reading Hamiltonian, Dynamical matrix and EP vertex in Wann rep from file


     Reading interatomic force constants

     IFC last   -0.0032722
     Norm of the difference between old and new effective charges:    0.0000000
     Norm of the difference between old and new force-constants:    0.0000023
     Imposed crystal ASR

     Finished reading ifcs


     Finished reading Wann rep data from file

     ===================================================================
     Memory usage:  VmHWM =        14Mb
                   VmPeak =       359Mb
     ===================================================================
     
     Using uniform q-mesh:    4   4   4
     Size of q point mesh for interpolation:         64
     Using uniform k-mesh:    8   8   8
     Size of k point mesh for interpolation:       1024
     Max number of k points per pool:              256

     Fermi energy coarse grid =   0.000000 eV

     ===================================================================

     Fermi energy is read from the input file: Ef =   6.800000 eV

     ===================================================================

              ibndmin =     3  ebndmin =     0.209
              ibndmax =    16  ebndmax =     0.793


     Number of ep-matrix elements per pool :       150528 ~=    1.15 Mb (@ 8 bytes/ DP)
     Applying a scissor shift of   0.70000 eV to the conduction states

     ===================================================================
     Phonon-assisted absorption
     ===================================================================


     Fermi Surface thickness =   4.000000 eV

     Temperature T =   0.025852 eV
     Progression iq (fine) =         50/        64

     Phonon-assisted absorption coefficient versus energy
     Photon energy (eV), absorption coefficient (cm-1) along x,y,z
            0.050000  0.17077416095986E-09  0.17124010728431E-09  0.17673940085667E-09  (cm-1)
            0.100000  0.28769097040069E-09  0.28814985763419E-09  0.29713613584492E-09  (cm-1)
            0.150000  0.62044218212473E-09  0.62140875263981E-09  0.63987816572255E-09  (cm-1)
            0.200000  0.14634872674721E-08  0.14651357085749E-08  0.15079214927070E-08  (cm-1)
            0.250000  0.35874936488580E-08  0.35911103615029E-08  0.36947988895202E-08  (cm-1)
            0.300000  0.89742507401702E-08  0.89828196532160E-08  0.92389930797408E-08  (cm-1)
            0.350000  0.22642364356013E-07  0.22662440677225E-07  0.23301256628585E-07  (cm-1)
            0.400000  0.57183624153782E-07  0.57230610289201E-07  0.58823544619398E-07  (cm-1)
            0.450000  0.14388025498651E-06  0.14398775135581E-06  0.14794358734802E-06  (cm-1)
            0.500000  0.35947561690742E-06  0.35971535482451E-06  0.36946627952038E-06  (cm-1)
            0.550000  0.88970248641040E-06  0.89021738165693E-06  0.91401859658945E-06  (cm-1)
            0.600000  0.21776109481547E-05  0.21786631108503E-05  0.22360903411911E-05  (cm-1)
            0.650000  0.52638814372909E-05  0.52658838196850E-05  0.54026636519607E-05  (cm-1)
            0.700000  0.12553929803021E-04  0.12557325419047E-04  0.12878587259286E-04  (cm-1)
            0.750000  0.29515633760622E-04  0.29520162034435E-04  0.30263639808482E-04  (cm-1)
            0.800000  0.68366488504327E-04  0.68368487757177E-04  0.70062656083872E-04  (cm-1)
            0.850000  0.15592865114070E-03  0.15591274387130E-03  0.15971187683017E-03  (cm-1)
            0.900000  0.35003667901889E-03  0.34995255849511E-03  0.35833269987945E-03  (cm-1)
            0.950000  0.77312866686717E-03  0.77283053740850E-03  0.79100609531841E-03  (cm-1)
            1.000000  0.16796233109442E-02  0.16787199439513E-02  0.17174679080051E-02  (cm-1)
            1.050000  0.35882779714746E-02  0.35857772434541E-02  0.36669498552187E-02  (cm-1)
            1.100000  0.75367428494255E-02  0.75302405268913E-02  0.76972957859253E-02  (cm-1)
            1.150000  0.15560676366692E-01  0.15544567582608E-01  0.15882246563987E-01  (cm-1)
            1.200000  0.31575939182929E-01  0.31537599790994E-01  0.32207877415260E-01  (cm-1)
            1.250000  0.62967063847162E-01  0.62878941806619E-01  0.64185215459234E-01  (cm-1)
            1.300000  0.12338302104009E+00  0.12318673009522E+00  0.12568575762661E+00  (cm-1)
            1.350000  0.23754486462658E+00  0.23712009133192E+00  0.24181253824942E+00  (cm-1)
            1.400000  0.44931916319614E+00  0.44842456456748E+00  0.45707140245447E+00  (cm-1)
            1.450000  0.83495044456183E+00  0.83311437093546E+00  0.84874894657123E+00  (cm-1)
            1.500000  0.15242161121085E+01  0.15205400503724E+01  0.15482750997954E+01  (cm-1)
            1.550000  0.27333926248622E+01  0.27262072763334E+01  0.27744720315645E+01  (cm-1)
            1.600000  0.48152891689183E+01  0.48015691819957E+01  0.48839514685855E+01  (cm-1)
            1.650000  0.83331372165618E+01  0.83075328966652E+01  0.84454389448413E+01  (cm-1)
            1.700000  0.14166648427402E+02  0.14119929175122E+02  0.14346299453449E+02  (cm-1)
            1.750000  0.23659772387249E+02  0.23576397335135E+02  0.23940714249594E+02  (cm-1)
            1.800000  0.38820163299450E+02  0.38674604109248E+02  0.39249375352692E+02  (cm-1)
            1.850000  0.62579536961246E+02  0.62330887482333E+02  0.63219661098279E+02  (cm-1)
            1.900000  0.99121329293169E+02  0.98705668187244E+02  0.10005240472042E+03  (cm-1)
            1.950000  0.15427675480526E+03  0.15359671417934E+03  0.15559598497375E+03  (cm-1)
            2.000000  0.23598210900583E+03  0.23489319180581E+03  0.23780018110541E+03  (cm-1)
            2.050000  0.35477897225684E+03  0.35307241208494E+03  0.35721108818321E+03  (cm-1)
            2.100000  0.52432548012711E+03  0.52170791191210E+03  0.52747504733708E+03  (cm-1)
            2.150000  0.76187242083141E+03  0.75794338321151E+03  0.76580543586507E+03  (cm-1)
            2.200000  0.10886447848609E+04  0.10828741307167E+04  0.10933534806311E+04  (cm-1)
            2.250000  0.15300603123807E+04  0.15217689354331E+04  0.15354157746599E+04  (cm-1)
            2.300000  0.21157145352502E+04  0.21040633227201E+04  0.21214098039266E+04  (cm-1)
            2.350000  0.28790693239049E+04  0.28630627150098E+04  0.28845569465118E+04  (cm-1)
            2.400000  0.38568003708544E+04  0.38353120328693E+04  0.38612312755535E+04  (cm-1)
            2.450000  0.50877878619426E+04  0.50596164002896E+04  0.50899613851875E+04  (cm-1)
            2.500000  0.66117710629198E+04  0.65757329355247E+04  0.66101084505309E+04  (cm-1)
            2.550000  0.84677268427091E+04  0.84227913751199E+04  0.84602818758902E+04  (cm-1)
            2.600000  0.10692068076119E+05  0.10637535449570E+05  0.10676587987385E+05  (cm-1)
            2.650000  0.13316784181650E+05  0.13252501534948E+05  0.13290831197069E+05  (cm-1)
            2.700000  0.16367658062565E+05  0.16294261813363E+05  0.16328796518868E+05  (cm-1)
            2.750000  0.19862689716546E+05  0.19781854670889E+05  0.19808735974072E+05  (cm-1)
            2.800000  0.23810838788879E+05  0.23725507729702E+05  0.23740161812972E+05  (cm-1)
            2.850000  0.28211171830377E+05  0.28125734432535E+05  0.28123022525090E+05  (cm-1)
            2.900000  0.33052472384486E+05  0.32972860853343E+05  0.32947311024702E+05  (cm-1)
            2.950000  0.38313350189304E+05  0.38247022005210E+05  0.38193135168551E+05  (cm-1)
            3.000000  0.43962873533305E+05  0.43918659535248E+05  0.43831272454411E+05  (cm-1)
     ===================================================================
     Memory usage:  VmHWM =        29Mb
                   VmPeak =       376Mb
     ===================================================================


     Unfolding on the coarse grid
     elphon_wrap  :      0.00s CPU      0.00s WALL (       1 calls)

     INITIALIZATION: 



     Electron-Phonon interpolation
     ephwann      :     10.67s CPU     11.35s WALL (       1 calls)
     ep-interp    :     10.47s CPU     11.15s WALL (      64 calls)

     DynW2B       :      0.00s CPU      0.00s WALL (      64 calls)
     HamW2B       :      2.53s CPU      2.75s WALL (   16640 calls)
     ephW2Bp      :      1.02s CPU      1.18s WALL (      64 calls)


     Total program execution
     EPW          :    10.67s CPU        11.35s WALL

                                                                                          
 Please consider citing:                                                                  
 S. Ponce, E. R. Margine, C. Verdi and F. Giustino, Comput. Phys. Commun. 209, 116 (2016) 
                                                                                          
 In addition, if you used anisotropic Eliashberg superconductivity please cite:           
              E. R. Margine and F. Giustino, Phys. Rev. B 87, 024505 (2013)               
              if you used transport properties (scattering rates, mobility) please cite:  
              S. Ponce, E. R. Margine and F. Giustino, Phys. Rev. B 97, 121201 (2018)     
