                                                                                      
                                       ``:oss/                                        
                           `.+s+.     .+ys--yh+     `./ss+.                           
                          -sh//yy+`   +yy   +yy    -+h+-oyy                           
                          -yh- .oyy/.-sh.   .syo-.:sy-  /yh                           
                 `.-.`    `yh+   -oyyyo.     `/syys:    oys      `.`                  
               `/+ssys+-` `sh+      `                   oys`   .:osyo`                
               -yh- ./syyooyo`                          .sys+/oyo--yh/                
               `yy+    .-:-.                             `-/+/:`  -sh-                
                /yh.                                              oys                 
          ``..---hho---------`   .---------..`      `.-----.`    -hd+---.             
       `./osmNMMMMMMMMMMMMMMMs. +NNMMMMMMMMNNmh+.   yNMMMMMNm-  oNMMMMMNmo++:`        
       +sy--/sdMMMhyyyyyyyNMMh- .oyNMMmyyyyyhNMMm+` -yMMMdyyo:` .oyyNMMNhs+syy`       
       -yy/   /MMM+.`-+/``mMMy-   `mMMh:`````.dMMN:` `MMMy-`-dhhy```mMMy:``+hs        
        -yy+` /MMMo:-mMM+`-oo/.    mMMh:     `dMMN/`  dMMm:`dMMMMy..MMMo-.+yo`        
         .sys`/MMMMNNMMMs-         mMMmyooooymMMNo:   oMMM/sMMMMMM++MMN//oh:          
          `sh+/MMMhyyMMMs- `-`     mMMMMMMMMMNmy+-`   -MMMhMMMsmMMmdMMd/yy+           
    `-/+++oyy-/MMM+.`/hh/.`mNm:`   mMMd+/////:-.`      NMMMMMd/:NMMMMMy:/yyo/:.`      
   +os+//:-..-oMMMo:--:::-/MMMo. .-mMMd+---`           hMMMMN+. oMMMMMo. `-+osyso:`   
   syo     `mNMMMMMNNNNNNNNMMMo.oNNMMMMMNNNN:`         +MMMMs:`  dMMMN/`     ``:syo   
   /yh`     :syyyyyyyyyyyyyyyy+.`+syyyyyyyyo:`         .oyys:`   .oyys:`        +yh   
   -yh-        ````````````````    `````````              ``        ``          oys   
   -+h/------------------------::::::::://////++++++++++++++++++++++///////::::/yd:   
   shdddddddddddddddddddddddddddddhhhhhhhhyyyyyssssssssssssssssyyyyyyyhhhhhhhddddh`   
                                                                                      
  S. Ponce, E. R. Margine, C. Verdi, and F. Giustino,                                 
                                                Comput. Phys. Commun. 209, 116 (2016) 
                                                                                      

     Program EPW v.5.5 starts on 21Nov2022 at 10:55:14 

     This program is part of the open-source Quantum ESPRESSO suite
     for quantum simulation of materials; please cite
         "P. Giannozzi et al., J. Phys.:Condens. Matter 21 395502 (2009);
         "P. Giannozzi et al., J. Phys.:Condens. Matter 29 465901 (2017);
         "P. Giannozzi et al., J. Chem. Phys. 152 154105 (2020);
          URL http://www.quantum-espresso.org", 
     in publications or presentations arising from this work. More details at
     http://www.quantum-espresso.org/quote

     Parallel version (MPI), running on     4 processors

     MPI processes distributed on     1 nodes
     K-points division:     npool     =       4
     234334 MiB available memory on the printing compute node when the environment starts

     Reading input from epw4.in

     Reading supplied temperature list.
                      
     ------------------------------------------------------------------------ 
                   RESTART - RESTART - RESTART - RESTART                         
     Restart is done without reading PWSCF save file.                  
     Be aware that some consistency checks are therefore not done.                  
     ------------------------------------------------------------------------ 
                      

     --                                                                         

     bravais-lattice index     =            0
     lattice parameter (a_0)   =       0.0000  a.u.
     unit-cell volume          =       0.0000 (a.u.)^3
     number of atoms/cell      =            0
     number of atomic types    =            0
     kinetic-energy cut-off    =       0.0000  Ry
     charge density cut-off    =       0.0000  Ry
     Exchange-correlation= not set
                           (  -1  -1  -1  -1  -1  -1  -1)


     celldm(1)=    0.00000  celldm(2)=    0.00000  celldm(3)=    0.00000
     celldm(4)=    0.00000  celldm(5)=    0.00000  celldm(6)=    0.00000

     crystal axes: (cart. coord. in units of a_0)
               a(1) = (  0.0000  0.0000  0.0000 )  
               a(2) = (  0.0000  0.0000  0.0000 )  
               a(3) = (  0.0000  0.0000  0.0000 )  

     reciprocal axes: (cart. coord. in units 2 pi/a_0)
               b(1) = (  0.0000  0.0000  0.0000 )  
               b(2) = (  0.0000  0.0000  0.0000 )  
               b(3) = (  0.0000  0.0000  0.0000 )  


     Atoms inside the unit cell: 

   Cartesian axes

     site n.  atom      mass           positions (a_0 units)


     No symmetry!

     G cutoff =    0.0000  (      0 G-vectors)     FFT grid: (  0,  0,  0)
     number of k points=    0
                       cart. coord. in units 2pi/a_0
     EPW          :      0.00s CPU      0.00s WALL

     EPW          :      0.00s CPU      0.00s WALL


     -------------------------------------------------------------------
     Using si.ukk from disk
     -------------------------------------------------------------------

     Symmetries of Bravais lattice:  48
     Symmetries of crystal:          48

     Do not need to read .epb files; read .fmt files


     Band disentanglement is used: nbndsub =   16
     Use zone-centred Wigner-Seitz cells 
     Number of WS vectors for electrons       93
     Number of WS vectors for phonons       19
     Number of WS vectors for electron-phonon       19
     Maximum number of cores for efficient parallelization      114
     Results may improve by using use_ws == .TRUE. 

     Reading Hamiltonian, Dynamical matrix and EP vertex in Wann rep from file


     Reading interatomic force constants

 end of file reached, closing tag not found
     IFC last   -0.0032826
     Norm of the difference between old and new effective charges:    0.0000000
     Norm of the difference between old and new force-constants:    0.0000267
     Imposed crystal ASR

     Finished reading ifcs


     Finished reading Wann rep data from file

     ===================================================================
     Memory usage:  VmHWM =        21Mb
                   VmPeak =       613Mb
     ===================================================================
     
     Using uniform q-mesh:    4   4   4
     Size of q point mesh for interpolation:         64
     Using uniform k-mesh:    8   8   8
     Size of k point mesh for interpolation:       1024
     Max number of k points per pool:              256

     Fermi energy coarse grid =   6.302835 eV

     ===================================================================

     Fermi energy is read from the input file: Ef =   6.800000 eV

     ===================================================================
     Applying a scissor shift of   0.70000 eV to the CB      9

              ibndmin =     3  ebndmin =     2.838 eV
              ibndmax =    16  ebndmax =    10.799 eV


     Number of ep-matrix elements per pool :       150528 ~=    1.15 Mb (@ 8 bytes/ DP)
      
     A selecq.fmt file was found but re-created because selecqread == .FALSE. 
     We only need to compute       64 q-points
      

     ===================================================================

     Direct absorption with independent particle approximation
     ===================================================================


     Fermi Surface thickness =   4.000000 eV

     The following temperatures are calculated:

     Temperature T =   0.025852 eV

     Direct absorption versus energy
     For the first temperature we have:
     Photon energy (eV), Imaginary dielectric function along x,y,z
            0.050000  0.39190162684083E-12  0.39190149753612E-12  0.39190035229703E-12
            0.100000  0.36906657073397E-12  0.36906641487657E-12  0.36906628945923E-12
            0.150000  0.37956175994728E-12  0.37956158693488E-12  0.37956184436783E-12
            0.200000  0.54832422652761E-12  0.54832396258540E-12  0.54832478897348E-12
            0.250000  0.10160381060850E-11  0.10160376193440E-11  0.10160395517714E-11
            0.300000  0.20838258957796E-11  0.20838249003645E-11  0.20838291736087E-11
            0.350000  0.45371212861174E-11  0.45371191383456E-11  0.45371285638342E-11
            0.400000  0.10192777412075E-10  0.10192772647326E-10  0.10192793590277E-10
            0.450000  0.23265237727689E-10  0.23265227018732E-10  0.23265273901305E-10
            0.500000  0.53442358337733E-10  0.53442334104966E-10  0.53442440366146E-10
            0.550000  0.12288189841875E-09  0.12288184360112E-09  0.12288208049247E-09
            0.600000  0.28152959441928E-09  0.28152947083910E-09  0.28152999979466E-09
            0.650000  0.64132057684070E-09  0.64132029996405E-09  0.64132147339768E-09
            0.700000  0.14495334708780E-08  0.14495328556834E-08  0.14495354365304E-08
            0.750000  0.32454911938098E-08  0.32454898404522E-08  0.32454954591878E-08
            0.800000  0.71889467632274E-08  0.71889438194286E-08  0.71889559119802E-08
            0.850000  0.15737136330155E-07  0.15737130005655E-07  0.15737155705841E-07
            0.900000  0.34016258515518E-07  0.34016245107198E-07  0.34016298997560E-07
            0.950000  0.72550022048980E-07  0.72549994018943E-07  0.72550105429152E-07
            1.000000  0.15258807367686E-06  0.15258801593444E-06  0.15258824287564E-06
            1.050000  0.31631521354062E-06  0.31631509638866E-06  0.31631555164350E-06
            1.100000  0.64603451108557E-06  0.64603427710420E-06  0.64603517611131E-06
            1.150000  0.12995018694836E-05  0.12995014096392E-05  0.12995031566038E-05
            1.200000  0.25737037146352E-05  0.25737028256767E-05  0.25737061652352E-05
            1.250000  0.50176196895073E-05  0.50176179996318E-05  0.50176242783755E-05
            1.300000  0.96274501312962E-05  0.96274469733268E-05  0.96274585811437E-05
            1.350000  0.18177482216796E-04  0.18177476416745E-04  0.18177497515478E-04
            1.400000  0.33768827834954E-04  0.33768817367804E-04  0.33768855067772E-04
            1.450000  0.61719755320244E-04  0.61719736763163E-04  0.61719802980305E-04
            1.500000  0.11097853195832E-03  0.11097849964393E-03  0.11097861396458E-03
            1.550000  0.19631562463565E-03  0.19631556937511E-03  0.19631576337253E-03
            1.600000  0.34164883921833E-03  0.34164874642824E-03  0.34164907001246E-03
            1.650000  0.58497267276887E-03  0.58497251980258E-03  0.58497305033337E-03
            1.700000  0.98549893054272E-03  0.98549868300404E-03  0.98549953803926E-03
            1.750000  0.16337624653029E-02  0.16337620721205E-02  0.16337634267780E-02
            1.800000  0.26655914950249E-02  0.26655908821054E-02  0.26655929920411E-02
            1.850000  0.42809682427347E-02  0.42809673051076E-02  0.42809705359943E-02
            1.900000  0.67688883069592E-02  0.67688868994954E-02  0.67688917635357E-02
            1.950000  0.10539335537392E-01  0.10539333464430E-01  0.10539340663761E-01
            2.000000  0.16163385880291E-01  0.16163382884838E-01  0.16163393360555E-01
            2.050000  0.24422193616758E-01  0.24422189370321E-01  0.24422204354183E-01
            2.100000  0.36365142149315E-01  0.36365136243837E-01  0.36365157307394E-01
            2.150000  0.53376693221708E-01  0.53376685165439E-01  0.53376714258435E-01
            2.200000  0.77250366412159E-01  0.77250355631519E-01  0.77250395098072E-01
            2.250000  0.11026674361793E+00  0.11026672946741E+00  0.11026678202515E+00
            2.300000  0.15527035336983E+00  0.15527033515167E+00  0.15527040381644E+00
            2.350000  0.21573772835805E+00  0.21573770535274E+00  0.21573779329068E+00
            2.400000  0.29582593118063E+00  0.29582590268832E+00  0.29582601297968E+00
            2.450000  0.40038766555282E+00  0.40038763094427E+00  0.40038776625073E+00
            2.500000  0.53493623219802E+00  0.53493619097262E+00  0.53493635311299E+00
            2.550000  0.70554183216358E+00  0.70554178401044E+00  0.70554197346972E+00
            2.600000  0.91864110668004E+00  0.91864105153731E+00  0.91864126695954E+00
            2.650000  0.11807455094531E+01  0.11807454475603E+01  0.11807456853040E+01
            2.700000  0.14980422032688E+01  0.14980421352073E+01  0.14980423890679E+01
            2.750000  0.18758942619487E+01  0.18758941886659E+01  0.18758944498883E+01
            2.800000  0.23182647685719E+01  0.23182646913866E+01  0.23182649490879E+01
            2.850000  0.28271104197358E+01  0.28271103403232E+01  0.28271105824250E+01
            2.900000  0.34018115452763E+01  0.34018114656328E+01  0.34018116803487E+01
            2.950000  0.40387228335197E+01  0.40387227559089E+01  0.40387229337532E+01
            3.000000  0.47309375963723E+01  0.47309375232535E+01  0.47309376594409E+01

     Values with other for temperature X are reported in the files epsilon2_dirabs_X.dat


     ===================================================================

     Phonon-assisted absorption
     ===================================================================


     Fermi Surface thickness =   4.000000 eV

     The following temperatures are calculated:

     Temperature T =   0.025852 eV

     Phonon-assisted absorption versus energy
     Broadenings:        0.000073       0.000147       0.000367       0.000735
               0.001470       0.003675       0.007350       0.014700       0.036749

     For the first Broadening and Temperature we have:
     Photon energy (eV), Imaginary dielectric function along x,y,z
            0.050000  0.83582385101662E-03  0.83582412812866E-03  0.83582411817714E-03
            0.100000  0.47640009247369E-03  0.47640025633028E-03  0.47640024460734E-03
            0.150000  0.38785963981634E-03  0.38785980619017E-03  0.38785975061151E-03
            0.200000  0.37301267224329E-03  0.37301288159679E-03  0.37301275863155E-03
            0.250000  0.39483247353310E-03  0.39483276774877E-03  0.39483253508620E-03
            0.300000  0.44332001233603E-03  0.44332045281589E-03  0.44332003599391E-03
            0.350000  0.51657371821904E-03  0.51657440304399E-03  0.51657367487068E-03
            0.400000  0.61610897225173E-03  0.61611006108904E-03  0.61610880796745E-03
            0.450000  0.74533103617660E-03  0.74533278908849E-03  0.74533065695501E-03
            0.500000  0.90894367075195E-03  0.90894650878143E-03  0.90894291792209E-03
            0.550000  0.11126915767694E-02  0.11126961753585E-02  0.11126901885464E-02
            0.600000  0.13632412305795E-02  0.13632486612237E-02  0.13632387833559E-02
            0.650000  0.16681319261322E-02  0.16681438671633E-02  0.16681277466591E-02
            0.700000  0.20357753622216E-02  0.20357944060846E-02  0.20357683989792E-02
            0.750000  0.24755000004820E-02  0.24755300919057E-02  0.24754886393315E-02
            0.800000  0.29976412709543E-02  0.29976883171412E-02  0.29976230768880E-02
            0.850000  0.36136758326881E-02  0.36137485316628E-02  0.36136471966452E-02
            0.900000  0.43363900947939E-02  0.43365010292948E-02  0.43363457627664E-02
            0.950000  0.51800626190560E-02  0.51802296582098E-02  0.51799950809627E-02
            1.000000  0.61606304114956E-02  0.61608784479200E-02  0.61605291304824E-02
            1.050000  0.72958054586503E-02  0.72961684816485E-02  0.72956559283401E-02
            1.100000  0.86051166671333E-02  0.86056401310303E-02  0.86048992950215E-02
            1.150000  0.10109881629235E-01  0.10110625019166E-01  0.10109570457767E-01
            1.200000  0.11833172143119E-01  0.11834211570921E-01  0.11832733432597E-01
            1.250000  0.13799939783513E-01  0.13801370369676E-01  0.13799330485909E-01
            1.300000  0.16037630668909E-01  0.16039568392846E-01  0.16036796806486E-01
            1.350000  0.18577868935014E-01  0.18580451579061E-01  0.18576743841674E-01
            1.400000  0.21460168806801E-01  0.21463555595673E-01  0.21458671060769E-01
            1.450000  0.24739212535003E-01  0.24743582098000E-01  0.24737243158393E-01
            1.500000  0.28498107430912E-01  0.28503653801273E-01  0.28495545479673E-01
            1.550000  0.32871356834360E-01  0.32878283353033E-01  0.32868051740645E-01
            1.600000  0.38083247483844E-01  0.38091758686038E-01  0.38079005285696E-01
            1.650000  0.44510224000609E-01  0.44520515811405E-01  0.44504782689051E-01
            1.700000  0.52779885263862E-01  0.52792134079155E-01  0.52772871623833E-01
            1.750000  0.63924795641947E-01  0.63939147078670E-01  0.63915651843477E-01
            1.800000  0.79616584455010E-01  0.79633142673896E-01  0.79604446940704E-01
            1.850000  0.10251484580032E+00  0.10253366429651E+00  0.10249835146962E+00
            1.900000  0.13677581262020E+00  0.13679688722113E+00  0.13675279790748E+00
            1.950000  0.18877671958021E+00  0.18879998409168E+00  0.18874376717448E+00
            2.000000  0.26812136033857E+00  0.26814668487406E+00  0.26807313711755E+00
            2.050000  0.38899760758672E+00  0.38902479916347E+00  0.38892592796272E+00
            2.100000  0.57195430517677E+00  0.57198310974519E+00  0.57184684986798E+00
            2.150000  0.84614742126688E+00  0.84617752603955E+00  0.84598604727219E+00
            2.200000  0.12520673577825E+01  0.12520983926121E+01  0.12518259569852E+01
            2.250000  0.18446948112148E+01  0.18447263478740E+01  0.18443367190480E+01
            2.300000  0.26969375655224E+01  0.26969691140509E+01  0.26964125933457E+01
            2.350000  0.39030755111101E+01  0.39031065128677E+01  0.39023167798811E+01
            2.400000  0.55817937530882E+01  0.55818235706772E+01  0.55807146406539E+01
            2.450000  0.78782315874695E+01  0.78782594921456E+01  0.78767232599787E+01
            2.500000  0.10964347630419E+02  0.10964372787853E+02  0.10962277794665E+02
            2.550000  0.15036838631305E+02  0.15036860086431E+02  0.15034052295849E+02
            2.600000  0.20311898481769E+02  0.20311915142903E+02  0.20308221620666E+02
            2.650000  0.27016310279800E+02  0.27016320901114E+02  0.27011557321199E+02
            2.700000  0.35374760044027E+02  0.35374763203937E+02  0.35368746027410E+02
            2.750000  0.45593849438729E+02  0.45593843509862E+02  0.45586407478945E+02
            2.800000  0.57844027634079E+02  0.57844010738603E+02  0.57835031992431E+02
            2.850000  0.72241468052471E+02  0.72241437995087E+02  0.72230862657260E+02
            2.900000  0.88832641279634E+02  0.88832595450092E+02  0.88820472989552E+02
            2.950000  0.10758480009794E+03  0.10758473533629E+03  0.10757125540034E+03
            3.000000  0.12838560722313E+03  0.12838551964484E+03  0.12837105044551E+03

     Values with other broadenings for temperature X are reported in the files epsilon2_indabs_X.dat

     ===================================================================
     Memory usage:  VmHWM =        37Mb
                   VmPeak =       668Mb
     ===================================================================


     Unfolding on the coarse grid
     elphon_wrap  :      0.00s CPU      0.01s WALL (       1 calls)

     INITIALIZATION: 




     Electron-Phonon interpolation
     ephwann      :    169.73s CPU    170.77s WALL (       1 calls)
     ep-interp    :    169.53s CPU    170.44s WALL (      64 calls)

     DynW2B       :      0.01s CPU      0.01s WALL (      64 calls)
     HamW2B       :      1.21s CPU      1.25s WALL (   16768 calls)
     ephW2Bp      :      4.64s CPU      5.28s WALL (      64 calls)
     ephW2B       :      1.21s CPU      1.23s WALL (    8096 calls)


     Total program execution
     EPW          :   2m49.74s CPU   2m50.78s WALL

     ===============================================================================
     The functionality-dependent EPW.bib file was created with suggested citations. 
     Please consider citing the papers listed in EPW.bib.                           
     ===============================================================================
                                                                                    
