                                                                                      
                                       ``:oss/                                        
                           `.+s+.     .+ys--yh+     `./ss+.                           
                          -sh//yy+`   +yy   +yy    -+h+-oyy                           
                          -yh- .oyy/.-sh.   .syo-.:sy-  /yh                           
                 `.-.`    `yh+   -oyyyo.     `/syys:    oys      `.`                  
               `/+ssys+-` `sh+      `                   oys`   .:osyo`                
               -yh- ./syyooyo`                          .sys+/oyo--yh/                
               `yy+    .-:-.                             `-/+/:`  -sh-                
                /yh.                                              oys                 
          ``..---hho---------`   .---------..`      `.-----.`    -hd+---.             
       `./osmNMMMMMMMMMMMMMMMs. +NNMMMMMMMMNNmh+.   yNMMMMMNm-  oNMMMMMNmo++:`        
       +sy--/sdMMMhyyyyyyyNMMh- .oyNMMmyyyyyhNMMm+` -yMMMdyyo:` .oyyNMMNhs+syy`       
       -yy/   /MMM+.`-+/``mMMy-   `mMMh:`````.dMMN:` `MMMy-`-dhhy```mMMy:``+hs        
        -yy+` /MMMo:-mMM+`-oo/.    mMMh:     `dMMN/`  dMMm:`dMMMMy..MMMo-.+yo`        
         .sys`/MMMMNNMMMs-         mMMmyooooymMMNo:   oMMM/sMMMMMM++MMN//oh:          
          `sh+/MMMhyyMMMs- `-`     mMMMMMMMMMNmy+-`   -MMMhMMMsmMMmdMMd/yy+           
    `-/+++oyy-/MMM+.`/hh/.`mNm:`   mMMd+/////:-.`      NMMMMMd/:NMMMMMy:/yyo/:.`      
   +os+//:-..-oMMMo:--:::-/MMMo. .-mMMd+---`           hMMMMN+. oMMMMMo. `-+osyso:`   
   syo     `mNMMMMMNNNNNNNNMMMo.oNNMMMMMNNNN:`         +MMMMs:`  dMMMN/`     ``:syo   
   /yh`     :syyyyyyyyyyyyyyyy+.`+syyyyyyyyo:`         .oyys:`   .oyys:`        +yh   
   -yh-        ````````````````    `````````              ``        ``          oys   
   -+h/------------------------::::::::://////++++++++++++++++++++++///////::::/yd:   
   shdddddddddddddddddddddddddddddhhhhhhhhyyyyyssssssssssssssssyyyyyyyhhhhhhhddddh`   
                                                                                      
  S. Ponce, E. R. Margine, C. Verdi, and F. Giustino,                                 
                                                Comput. Phys. Commun. 209, 116 (2016) 
                                                                                      

     Program EPW v.5.5 starts on 21Nov2022 at 10:58: 5 

     This program is part of the open-source Quantum ESPRESSO suite
     for quantum simulation of materials; please cite
         "P. Giannozzi et al., J. Phys.:Condens. Matter 21 395502 (2009);
         "P. Giannozzi et al., J. Phys.:Condens. Matter 29 465901 (2017);
         "P. Giannozzi et al., J. Chem. Phys. 152 154105 (2020);
          URL http://www.quantum-espresso.org", 
     in publications or presentations arising from this work. More details at
     http://www.quantum-espresso.org/quote

     Parallel version (MPI), running on     4 processors

     MPI processes distributed on     1 nodes
     K-points division:     npool     =       4
     220815 MiB available memory on the printing compute node when the environment starts

     Reading input from epw5.in

     Reading supplied temperature list.

     Reading xml data from directory:

     ./si.save/

     IMPORTANT: XC functional enforced from input :
     Exchange-correlation= PBE
                           (   1   4   3   4   0   0   0)
     Any further DFT definition will be discarded
     Please, verify this is what you really want


     G-vector sticks info
     --------------------
     sticks:   dense  smooth     PW     G-vecs:    dense   smooth      PW
     Sum         211     211     85                 2109     2109     531

     Using Slab Decomposition

     Reading collected, re-writing distributed wavefunctions

     --                                                                         

     bravais-lattice index     =            2
     lattice parameter (a_0)   =      10.2620  a.u.
     unit-cell volume          =     270.1693 (a.u.)^3
     number of atoms/cell      =            2
     number of atomic types    =            1
     kinetic-energy cut-off    =      15.0000  Ry
     charge density cut-off    =      60.0000  Ry
     Exchange-correlation= PBE
                           (   1   4   3   4   0   0   0)
     Non magnetic calculation with spin-orbit

     celldm(1)=   10.26200  celldm(2)=    0.00000  celldm(3)=    0.00000
     celldm(4)=    0.00000  celldm(5)=    0.00000  celldm(6)=    0.00000

     crystal axes: (cart. coord. in units of a_0)
               a(1) = ( -0.5000  0.0000  0.5000 )  
               a(2) = (  0.0000  0.5000  0.5000 )  
               a(3) = ( -0.5000  0.5000  0.0000 )  

     reciprocal axes: (cart. coord. in units 2 pi/a_0)
               b(1) = ( -1.0000 -1.0000  1.0000 )  
               b(2) = (  1.0000  1.0000  1.0000 )  
               b(3) = ( -1.0000  1.0000 -1.0000 )  


     Atoms inside the unit cell: 

   Cartesian axes

     site n.  atom      mass           positions (a_0 units)
        1        Si  28.0855   tau( 1) = (    0.00000    0.00000    0.00000  )
        2        Si  28.0855   tau( 2) = (    0.25000    0.25000    0.25000  )

     49 Sym.Ops. (with q -> -q+G )


     G cutoff =  160.0499  (   2109 G-vectors)     FFT grid: ( 20, 20, 20)
     number of k points=   64
                       cart. coord. in units 2pi/a_0
        k(    1) = (   0.0000000   0.0000000   0.0000000), wk =   0.0156250
        k(    2) = (  -0.2500000   0.2500000  -0.2500000), wk =   0.0156250
        k(    3) = (  -0.5000000   0.5000000  -0.5000000), wk =   0.0156250
        k(    4) = (  -0.7500000   0.7500000  -0.7500000), wk =   0.0156250
        k(    5) = (   0.2500000   0.2500000   0.2500000), wk =   0.0156250
        k(    6) = (   0.0000000   0.5000000   0.0000000), wk =   0.0156250
        k(    7) = (  -0.2500000   0.7500000  -0.2500000), wk =   0.0156250
        k(    8) = (  -0.5000000   1.0000000  -0.5000000), wk =   0.0156250
        k(    9) = (   0.5000000   0.5000000   0.5000000), wk =   0.0156250
        k(   10) = (   0.2500000   0.7500000   0.2500000), wk =   0.0156250
        k(   11) = (   0.0000000   1.0000000   0.0000000), wk =   0.0156250
        k(   12) = (  -0.2500000   1.2500000  -0.2500000), wk =   0.0156250
        k(   13) = (   0.7500000   0.7500000   0.7500000), wk =   0.0156250
        k(   14) = (   0.5000000   1.0000000   0.5000000), wk =   0.0156250
        k(   15) = (   0.2500000   1.2500000   0.2500000), wk =   0.0156250
        k(   16) = (   0.0000000   1.5000000   0.0000000), wk =   0.0156250
        k(   17) = (  -0.2500000  -0.2500000   0.2500000), wk =   0.0156250
        k(   18) = (  -0.5000000   0.0000000   0.0000000), wk =   0.0156250
        k(   19) = (  -0.7500000   0.2500000  -0.2500000), wk =   0.0156250
        k(   20) = (  -1.0000000   0.5000000  -0.5000000), wk =   0.0156250
        k(   21) = (   0.0000000   0.0000000   0.5000000), wk =   0.0156250
        k(   22) = (  -0.2500000   0.2500000   0.2500000), wk =   0.0156250
        k(   23) = (  -0.5000000   0.5000000   0.0000000), wk =   0.0156250
        k(   24) = (  -0.7500000   0.7500000  -0.2500000), wk =   0.0156250
        k(   25) = (   0.2500000   0.2500000   0.7500000), wk =   0.0156250
        k(   26) = (   0.0000000   0.5000000   0.5000000), wk =   0.0156250
        k(   27) = (  -0.2500000   0.7500000   0.2500000), wk =   0.0156250
        k(   28) = (  -0.5000000   1.0000000   0.0000000), wk =   0.0156250
        k(   29) = (   0.5000000   0.5000000   1.0000000), wk =   0.0156250
        k(   30) = (   0.2500000   0.7500000   0.7500000), wk =   0.0156250
        k(   31) = (   0.0000000   1.0000000   0.5000000), wk =   0.0156250
        k(   32) = (  -0.2500000   1.2500000   0.2500000), wk =   0.0156250
        k(   33) = (  -0.5000000  -0.5000000   0.5000000), wk =   0.0156250
        k(   34) = (  -0.7500000  -0.2500000   0.2500000), wk =   0.0156250
        k(   35) = (  -1.0000000   0.0000000   0.0000000), wk =   0.0156250
        k(   36) = (  -1.2500000   0.2500000  -0.2500000), wk =   0.0156250
        k(   37) = (  -0.2500000  -0.2500000   0.7500000), wk =   0.0156250
        k(   38) = (  -0.5000000   0.0000000   0.5000000), wk =   0.0156250
        k(   39) = (  -0.7500000   0.2500000   0.2500000), wk =   0.0156250
        k(   40) = (  -1.0000000   0.5000000   0.0000000), wk =   0.0156250
        k(   41) = (   0.0000000   0.0000000   1.0000000), wk =   0.0156250
        k(   42) = (  -0.2500000   0.2500000   0.7500000), wk =   0.0156250
        k(   43) = (  -0.5000000   0.5000000   0.5000000), wk =   0.0156250
        k(   44) = (  -0.7500000   0.7500000   0.2500000), wk =   0.0156250
        k(   45) = (   0.2500000   0.2500000   1.2500000), wk =   0.0156250
        k(   46) = (   0.0000000   0.5000000   1.0000000), wk =   0.0156250
        k(   47) = (  -0.2500000   0.7500000   0.7500000), wk =   0.0156250
        k(   48) = (  -0.5000000   1.0000000   0.5000000), wk =   0.0156250
        k(   49) = (  -0.7500000  -0.7500000   0.7500000), wk =   0.0156250
        k(   50) = (  -1.0000000  -0.5000000   0.5000000), wk =   0.0156250
        k(   51) = (  -1.2500000  -0.2500000   0.2500000), wk =   0.0156250
        k(   52) = (  -1.5000000   0.0000000   0.0000000), wk =   0.0156250
        k(   53) = (  -0.5000000  -0.5000000   1.0000000), wk =   0.0156250
        k(   54) = (  -0.7500000  -0.2500000   0.7500000), wk =   0.0156250
        k(   55) = (  -1.0000000   0.0000000   0.5000000), wk =   0.0156250
        k(   56) = (  -1.2500000   0.2500000   0.2500000), wk =   0.0156250
        k(   57) = (  -0.2500000  -0.2500000   1.2500000), wk =   0.0156250
        k(   58) = (  -0.5000000   0.0000000   1.0000000), wk =   0.0156250
        k(   59) = (  -0.7500000   0.2500000   0.7500000), wk =   0.0156250
        k(   60) = (  -1.0000000   0.5000000   0.5000000), wk =   0.0156250
        k(   61) = (   0.0000000   0.0000000   1.5000000), wk =   0.0156250
        k(   62) = (  -0.2500000   0.2500000   1.2500000), wk =   0.0156250
        k(   63) = (  -0.5000000   0.5000000   1.0000000), wk =   0.0156250
        k(   64) = (  -0.7500000   0.7500000   0.7500000), wk =   0.0156250

     PseudoPot. # 1 for Si read from file:
     ../../pseudo/Si_r.upf
     MD5 check sum: c84abb4b0aac9c93a8e9f74896432a0a
     Pseudo is Norm-conserving + core correction, Zval =  4.0
     Generated using ONCVPSP code by D. R. Hamann
     Using radial grid of 1528 points, 10 beta functions with: 
                l(1) =   0
                l(2) =   0
                l(3) =   1
                l(4) =   1
                l(5) =   1
                l(6) =   1
                l(7) =   2
                l(8) =   2
                l(9) =   2
               l(10) =   2
     EPW          :      0.19s CPU      0.25s WALL

     EPW          :      0.28s CPU      0.34s WALL


     -------------------------------------------------------------------
     Using si.ukk from disk
     -------------------------------------------------------------------


     Dipole matrix elements calculated

     Reading external electronic eigenvalues (   20,   64)

     Calculating kgmap

     Progress kgmap: ########################################
     kmaps        :      0.01s CPU      0.01s WALL (       1 calls)
     Symmetries of Bravais lattice:  48
     Symmetries of crystal:          48

     Reading interatomic force constants

 end of file reached, closing tag not found
     IFC last   -0.0032826
     Norm of the difference between old and new effective charges:    0.0000000
     Norm of the difference between old and new force-constants:    0.0000267
     Imposed crystal ASR

     Finished reading ifcs



     ===================================================================
     irreducible q point #    1
     ===================================================================

     Symmetries of small group of q: 48
          in addition sym. q -> -q+G:

     Number of q in the star =    1
     List of q in the star:
          1   0.000000000   0.000000000   0.000000000
     Read dielectric tensor and effective charges
     Imposing acoustic sum rule on the dynamical matrix
     Dyn mat calculated from ifcs

        q(    1 ) = (   0.0000000   0.0000000   0.0000000 )


     ===================================================================
     irreducible q point #    2
     ===================================================================

     Symmetries of small group of q: 12
          in addition sym. q -> -q+G:

     Number of q in the star =    4
     List of q in the star:
          1   0.500000000  -0.500000000   0.500000000
          2   0.500000000   0.500000000  -0.500000000
          3  -0.500000000  -0.500000000  -0.500000000
          4   0.500000000  -0.500000000  -0.500000000
     Dyn mat calculated from ifcs

        q(    2 ) = (   0.5000000  -0.5000000   0.5000000 )
        q(    3 ) = (   0.5000000   0.5000000  -0.5000000 )
        q(    4 ) = (  -0.5000000  -0.5000000  -0.5000000 )
        q(    5 ) = (   0.5000000  -0.5000000  -0.5000000 )


     ===================================================================
     irreducible q point #    3
     ===================================================================

     Symmetries of small group of q: 16
          in addition sym. q -> -q+G:

     Number of q in the star =    3
     List of q in the star:
          1   0.000000000  -1.000000000   0.000000000
          2  -1.000000000   0.000000000   0.000000000
          3   0.000000000   0.000000000   1.000000000
     Dyn mat calculated from ifcs

        q(    6 ) = (   0.0000000  -1.0000000   0.0000000 )
        q(    7 ) = (  -1.0000000   0.0000000   0.0000000 )
        q(    8 ) = (   0.0000000   0.0000000   1.0000000 )

     Band disentanglement is used: nbndsub =   16
     Use zone-centred Wigner-Seitz cells 
     Number of WS vectors for electrons       93
     Number of WS vectors for phonons       19
     Number of WS vectors for electron-phonon       19
     Maximum number of cores for efficient parallelization      114
     Results may improve by using use_ws == .TRUE. 
     Interpolating MB and KS eigenvalues
 
     Bloch2wane:          1 /          8
     Bloch2wane:          2 /          8
     Bloch2wane:          3 /          8
     Bloch2wane:          4 /          8
     Bloch2wane:          5 /          8
     Bloch2wane:          6 /          8
     Bloch2wane:          7 /          8
     Bloch2wane:          8 /          8
 
     Bloch2wanp:          1 /          5
     Bloch2wanp:          2 /          5
     Bloch2wanp:          3 /          5
     Bloch2wanp:          4 /          5
     Bloch2wanp:          5 /          5

     Writing Hamiltonian, Dynamical matrix and EP vertex in Wann rep to file

     ===================================================================
     Memory usage:  VmHWM =        52Mb
                   VmPeak =       676Mb
     ===================================================================
     
     Using uniform q-mesh:    4   4   4
     Size of q point mesh for interpolation:         64
     Using uniform k-mesh:    8   8   8
     Size of k point mesh for interpolation:       1024
     Max number of k points per pool:              256

     Fermi energy coarse grid =   6.302835 eV

     ===================================================================

     Fermi energy is read from the input file: Ef =   6.800000 eV

     ===================================================================

              ibndmin =     3  ebndmin =     2.838 eV
              ibndmax =    16  ebndmax =    10.794 eV


     Number of ep-matrix elements per pool :       150528 ~=    1.15 Mb (@ 8 bytes/ DP)
      
     A selecq.fmt file was found but re-created because selecqread == .FALSE. 
     We only need to compute       64 q-points
      

     ===================================================================

     Direct absorption with independent particle approximation
     ===================================================================


     Fermi Surface thickness =   4.000000 eV

     The following temperatures are calculated:

     Temperature T =   0.025852 eV

     Direct absorption versus energy
     For the first temperature we have:
     Photon energy (eV), Imaginary dielectric function along x,y,z
            0.050000  0.15530495590260E-05  0.15530487492883E-05  0.15530530714029E-05
            0.100000  0.98220830746917E-06  0.98220781062682E-06  0.98221042216233E-06
            0.150000  0.93830999651094E-06  0.93830954176418E-06  0.93831187461836E-06
            0.200000  0.11075276090493E-05  0.11075270978476E-05  0.11075296389899E-05
            0.250000  0.14916837969834E-05  0.14916831420470E-05  0.14916862811760E-05
            0.300000  0.21939255583433E-05  0.21939246405216E-05  0.21939288719370E-05
            0.350000  0.34263600167140E-05  0.34263586466368E-05  0.34263647221094E-05
            0.400000  0.55735509270457E-05  0.55735487892792E-05  0.55735579246919E-05
            0.450000  0.93128371735961E-05  0.93128337360225E-05  0.93128479368301E-05
            0.500000  0.15821105124402E-04  0.15821099489309E-04  0.15821122076317E-04
            0.550000  0.27120074729964E-04  0.27120065391546E-04  0.27120101846203E-04
            0.600000  0.46641988771529E-04  0.46641973226968E-04  0.46642032532601E-04
            0.650000  0.80139957040639E-04  0.80139931177439E-04  0.80140027913143E-04
            0.700000  0.13712648286684E-03  0.13712644001654E-03  0.13712659756821E-03
            0.750000  0.23310420767172E-03  0.23310413717897E-03  0.23310439257070E-03
            0.800000  0.39295848203163E-03  0.39295836713902E-03  0.39295877815862E-03
            0.850000  0.65601446234625E-03  0.65601427714242E-03  0.65601493263273E-03
            0.900000  0.10834218346042E-02  0.10834215397334E-02  0.10834225741339E-02
            0.950000  0.17687136611753E-02  0.17687131979717E-02  0.17687148113990E-02
            1.000000  0.28525822764567E-02  0.28525815591647E-02  0.28525840444760E-02
            1.050000  0.45431077778380E-02  0.45431066836326E-02  0.45431104619612E-02
            1.100000  0.71428389827496E-02  0.71428373394040E-02  0.71428430055127E-02
            1.150000  0.11084230504432E-01  0.11084228075719E-01  0.11084236454068E-01
            1.200000  0.16974943219355E-01  0.16974939688627E-01  0.16974951900167E-01
            1.250000  0.25654372233620E-01  0.25654367186514E-01  0.25654384724730E-01
            1.300000  0.38262422480391E-01  0.38262415388169E-01  0.38262440200685E-01
            1.350000  0.56320944028484E-01  0.56320934234186E-01  0.56320968803103E-01
            1.400000  0.81827291405959E-01  0.81827278116112E-01  0.81827325526263E-01
            1.450000  0.11735809314102E+00  0.11735807542608E+00  0.11735813940560E+00
            1.500000  0.16617940613429E+00  0.16617938294111E+00  0.16617946785365E+00
            1.550000  0.23235688305520E+00  0.23235685323440E+00  0.23235696399770E+00
            1.600000  0.32085633491579E+00  0.32085629726617E+00  0.32085643916919E+00
            1.650000  0.43762115877201E+00  0.43762111210252E+00  0.43762129049442E+00
            1.700000  0.58960874223575E+00  0.58960868544363E+00  0.58960890527491E+00
            1.750000  0.78476366138566E+00  0.78476359354743E+00  0.78476385875902E+00
            1.800000  0.10319021424140E+01  0.10319020628833E+01  0.10319023756640E+01
            1.850000  0.13404811486868E+01  0.13404810571919E+01  0.13404814171595E+01
            1.900000  0.17202281877776E+01  0.17202280845102E+01  0.17202284879120E+01
            1.950000  0.21806161784018E+01  0.21806160640881E+01  0.21806165031605E+01
            2.000000  0.27301827897790E+01  0.27301826657267E+01  0.27301831283885E+01
            2.050000  0.33757159660286E+01  0.33757158341437E+01  0.33757163042142E+01
            2.100000  0.41213557768298E+01  0.41213556396004E+01  0.41213560977206E+01
            2.150000  0.49676942557866E+01  0.49676941162348E+01  0.49676945416174E+01
            2.200000  0.59109844349737E+01  0.59109842965751E+01  0.59109846696133E+01
            2.250000  0.69425907012036E+01  0.69425905677818E+01  0.69425908734131E+01
            2.300000  0.80488176770485E+01  0.80488175526448E+01  0.80488177842127E+01
            2.350000  0.92112378633321E+01  0.92112377520579E+01  0.92112379152594E+01
            2.400000  0.10407595874616E+02  0.10407595780490E+02  0.10407595896882E+02
            2.450000  0.11613300284766E+02  0.11613300211543E+02  0.11613300321027E+02
            2.500000  0.12803429259182E+02  0.12803429210174E+02  0.12803429371913E+02
            2.550000  0.13955084839764E+02  0.13955084817665E+02  0.13955085109032E+02
            2.600000  0.15049848212275E+02  0.15049848219005E+02  0.15049848732380E+02
            2.650000  0.16076030806057E+02  0.16076030842622E+02  0.16076031680138E+02
            2.700000  0.17030397654517E+02  0.17030397720916E+02  0.17030398987581E+02
            2.750000  0.17919068565806E+02  0.17919068660993E+02  0.17919070456825E+02
            2.800000  0.18757379952968E+02  0.18757380074880E+02  0.18757382486937E+02
            2.850000  0.19568607669831E+02  0.19568607815482E+02  0.19568610910653E+02
            2.900000  0.20381593359248E+02  0.20381593524888E+02  0.20381597344277E+02
            2.950000  0.21227463263464E+02  0.21227463444789E+02  0.21227468000284E+02
            3.000000  0.22135757650988E+02  0.22135757843374E+02  0.22135763116706E+02

     Values with other for temperature X are reported in the files epsilon2_dirabs_X.dat


     ===================================================================

     Phonon-assisted absorption
     ===================================================================


     Fermi Surface thickness =   4.000000 eV

     The following temperatures are calculated:

     Temperature T =   0.025852 eV

     Phonon-assisted absorption versus energy
     Broadenings:        0.000073       0.000147       0.000367       0.000735
               0.001470       0.003675       0.007350       0.014700       0.036749

     For the first Broadening and Temperature we have:
     Photon energy (eV), Imaginary dielectric function along x,y,z
            0.050000  0.35706662369344E+00  0.35706905909683E+00  0.35707471118291E+00
            0.100000  0.18697008795278E+00  0.18697100170984E+00  0.18697336423002E+00
            0.150000  0.13241772421950E+00  0.13241832337193E+00  0.13242020938404E+00
            0.200000  0.10739116036395E+00  0.10739165907709E+00  0.10739355654464E+00
            0.250000  0.94382323980509E-01  0.94382797593089E-01  0.94384917993413E-01
            0.300000  0.87539778782306E-01  0.87540265559568E-01  0.87542768338181E-01
            0.350000  0.84371236674809E-01  0.84371761579594E-01  0.84374807307927E-01
            0.400000  0.83649284055670E-01  0.83649866003395E-01  0.83653636618546E-01
            0.450000  0.84708804501908E-01  0.84709458381628E-01  0.84714168327115E-01
            0.500000  0.87164628605176E-01  0.87165364905990E-01  0.87171268815971E-01
            0.550000  0.90783457580753E-01  0.90784280417597E-01  0.90791678712912E-01
            0.600000  0.95421883307281E-01  0.95422787028219E-01  0.95432029416709E-01
            0.650000  0.10099768120804E+00  0.10099864557930E+00  0.10101013180426E+00
            0.700000  0.10748196970828E+00  0.10748295365970E+00  0.10749713033248E+00
            0.750000  0.11490885470568E+00  0.11490978870573E+00  0.11492714043891E+00
            0.800000  0.12340434478700E+00  0.12340512207863E+00  0.12342615419961E+00
            0.850000  0.13324050003605E+00  0.13324096718851E+00  0.13326617580888E+00
            0.900000  0.14492532245624E+00  0.14492526995409E+00  0.14495509277215E+00
            0.950000  0.15934464272301E+00  0.15934379659276E+00  0.15937853410035E+00
            1.000000  0.17797982022160E+00  0.17797783594568E+00  0.17801752721622E+00
            1.050000  0.20323489063141E+00  0.20323135076339E+00  0.20327558022661E+00
            1.100000  0.23891903978848E+00  0.23891345670317E+00  0.23896105787624E+00
            1.150000  0.29094466178967E+00  0.29093648681711E+00  0.29098509576344E+00
            1.200000  0.36831672932692E+00  0.36830536908869E+00  0.36835076486799E+00
            1.250000  0.48450361449382E+00  0.48448845456811E+00  0.48452360747429E+00
            1.300000  0.65928922121050E+00  0.65926965632806E+00  0.65928338992231E+00
            1.350000  0.92120593473626E+00  0.92118140363055E+00  0.92115656774842E+00
            1.400000  0.13106302593343E+01  0.13106002812649E+01  0.13105113364554E+01
            1.450000  0.18835795018204E+01  0.18835437108310E+01  0.18833536479589E+01
            1.500000  0.27161695699416E+01  0.27161277422896E+01  0.27157843133062E+01
            1.550000  0.39095737034188E+01  0.39095257734969E+01  0.39089570994444E+01
            1.600000  0.55951572475461E+01  0.55951033081256E+01  0.55942130647682E+01
            1.650000  0.79392603848451E+01  0.79392006686287E+01  0.79378632301235E+01
            1.700000  0.11146877480727E+02  0.11146812321904E+02  0.11144868462026E+02
            1.750000  0.15463272402022E+02  0.15463202178535E+02  0.15460456169932E+02
            1.800000  0.21172424321624E+02  0.21172349380806E+02  0.21168568566556E+02
            1.850000  0.28591181960828E+02  0.28591102532552E+02  0.28586020631101E+02
            1.900000  0.38058184598329E+02  0.38058100700337E+02  0.38051426198305E+02
            1.950000  0.49917044481653E+02  0.49916955821035E+02  0.49908386762099E+02
            2.000000  0.64494007374486E+02  0.64493913247075E+02  0.64483159502542E+02
            2.050000  0.82071295204011E+02  0.82071194390199E+02  0.82058008079743E+02
            2.100000  0.10285849781367E+03  0.10285838846500E+03  0.10284260259188E+03
            2.150000  0.12696555342997E+03  0.12696543293715E+03  0.12694700754538E+03
            2.200000  0.15438180470195E+03  0.15438166953270E+03  0.15436074384078E+03
            2.250000  0.18496606479145E+03  0.18496591028733E+03  0.18494285836989E+03
            2.300000  0.21845231280024E+03  0.21845213292703E+03  0.21842761966395E+03
            2.350000  0.25447437330364E+03  0.25447416036074E+03  0.25444919359304E+03
            2.400000  0.29261067925193E+03  0.29261042356280E+03  0.29258639770304E+03
            2.450000  0.33244712757463E+03  0.33244681720284E+03  0.33242554294363E+03
            2.500000  0.37365248746155E+03  0.37365210802133E+03  0.37363582227615E+03
            2.550000  0.41605737841475E+03  0.41605691306988E+03  0.41604826291455E+03
            2.600000  0.45972517560909E+03  0.45972460537172E+03  0.45972659966108E+03
            2.650000  0.50500198733406E+03  0.50500129178102E+03  0.50501721452186E+03
            2.700000  0.55253358700297E+03  0.55253274551590E+03  0.55256602629648E+03
            2.750000  0.60324007821360E+03  0.60323907181213E+03  0.60329311096743E+03
            2.800000  0.65824394726005E+03  0.65824276103609E+03  0.65832071103601E+03
            2.850000  0.71875343335415E+03  0.71875205942885E+03  0.71885656928412E+03
            2.900000  0.78590991378162E+03  0.78590835460165E+03  0.78604129062840E+03
            2.950000  0.86061417460751E+03  0.86061244628637E+03  0.86077460967587E+03
            3.000000  0.94335096035065E+03  0.94334909566196E+03  0.94353996388049E+03

     Values with other broadenings for temperature X are reported in the files epsilon2_indabs_X.dat

     ===================================================================
     Memory usage:  VmHWM =        52Mb
                   VmPeak =       683Mb
     ===================================================================


     Unfolding on the coarse grid
     elphon_wrap  :     18.03s CPU     18.46s WALL (       1 calls)

     INITIALIZATION: 

     set_drhoc    :      0.38s CPU      0.39s WALL (       9 calls)
     init_vloc    :      0.00s CPU      0.00s WALL (       1 calls)
     init_us_1    :      0.03s CPU      0.03s WALL (       2 calls)



     Electron-Phonon interpolation
     ephwann      :    245.73s CPU    246.30s WALL (       1 calls)
     ep-interp    :    245.13s CPU    245.44s WALL (      64 calls)

     Ham: step 1  :      0.00s CPU      0.00s WALL (       2 calls)
     Ham: step 2  :      0.00s CPU      0.00s WALL (       2 calls)
     ep: step 1   :      0.01s CPU      0.01s WALL (      48 calls)
     ep: step 2   :    245.64s CPU    246.20s WALL (       1 calls)
     DynW2B       :      0.01s CPU      0.01s WALL (      64 calls)
     HamW2B       :      2.38s CPU      2.46s WALL (   33152 calls)
     ephW2Bp      :      9.16s CPU      9.35s WALL (      64 calls)
     ephW2B       :      1.21s CPU      1.24s WALL (    8096 calls)


     Total program execution
     EPW          :   4m24.05s CPU   4m25.11s WALL

     ===============================================================================
     The functionality-dependent EPW.bib file was created with suggested citations. 
     Please consider citing the papers listed in EPW.bib.                           
     ===============================================================================
                                                                                    
