                                                                                      
                                       ``:oss/                                        
                           `.+s+.     .+ys--yh+     `./ss+.                           
                          -sh//yy+`   +yy   +yy    -+h+-oyy                           
                          -yh- .oyy/.-sh.   .syo-.:sy-  /yh                           
                 `.-.`    `yh+   -oyyyo.     `/syys:    oys      `.`                  
               `/+ssys+-` `sh+      `                   oys`   .:osyo`                
               -yh- ./syyooyo`                          .sys+/oyo--yh/                
               `yy+    .-:-.                             `-/+/:`  -sh-                
                /yh.                                              oys                 
          ``..---hho---------`   .---------..`      `.-----.`    -hd+---.             
       `./osmNMMMMMMMMMMMMMMMs. +NNMMMMMMMMNNmh+.   yNMMMMMNm-  oNMMMMMNmo++:`        
       +sy--/sdMMMhyyyyyyyNMMh- .oyNMMmyyyyyhNMMm+` -yMMMdyyo:` .oyyNMMNhs+syy`       
       -yy/   /MMM+.`-+/``mMMy-   `mMMh:`````.dMMN:` `MMMy-`-dhhy```mMMy:``+hs        
        -yy+` /MMMo:-mMM+`-oo/.    mMMh:     `dMMN/`  dMMm:`dMMMMy..MMMo-.+yo`        
         .sys`/MMMMNNMMMs-         mMMmyooooymMMNo:   oMMM/sMMMMMM++MMN//oh:          
          `sh+/MMMhyyMMMs- `-`     mMMMMMMMMMNmy+-`   -MMMhMMMsmMMmdMMd/yy+           
    `-/+++oyy-/MMM+.`/hh/.`mNm:`   mMMd+/////:-.`      NMMMMMd/:NMMMMMy:/yyo/:.`      
   +os+//:-..-oMMMo:--:::-/MMMo. .-mMMd+---`           hMMMMN+. oMMMMMo. `-+osyso:`   
   syo     `mNMMMMMNNNNNNNNMMMo.oNNMMMMMNNNN:`         +MMMMs:`  dMMMN/`     ``:syo   
   /yh`     :syyyyyyyyyyyyyyyy+.`+syyyyyyyyo:`         .oyys:`   .oyys:`        +yh   
   -yh-        ````````````````    `````````              ``        ``          oys   
   -+h/------------------------::::::::://////++++++++++++++++++++++///////::::/yd:   
   shdddddddddddddddddddddddddddddhhhhhhhhyyyyyssssssssssssssssyyyyyyyhhhhhhhddddh`   
                                                                                      
  S. Ponce, E. R. Margine, C. Verdi, and F. Giustino,                                 
                                                Comput. Phys. Commun. 209, 116 (2016) 
                                                                                      

     Program EPW v.5.0.0 starts on 18Jun2018 at 14: 8:49 

     This program is part of the open-source Quantum ESPRESSO suite
     for quantum simulation of materials; please cite
         "P. Giannozzi et al., J. Phys.:Condens. Matter 21 395502 (2009);
         "P. Giannozzi et al., J. Phys.:Condens. Matter 29 465901 (2017);
          URL http://www.quantum-espresso.org", 
     in publications or presentations arising from this work. More details at
     http://www.quantum-espresso.org/quote

     Parallel version (MPI), running on     1 processors

     MPI processes distributed on     1 nodes
                      
     ------------------------------------------------------------------------ 
                   RESTART - RESTART - RESTART - RESTART                         
     Restart is done without reading PWSCF save file.                  
     Be aware that some consistency checks are therefore not done.                  
     ------------------------------------------------------------------------ 
                      

     --                                                                         

     bravais-lattice index     =            0
     lattice parameter (a_0)   =       0.0000  a.u.
     unit-cell volume          =       0.0000 (a.u.)^3
     number of atoms/cell      =            0
     number of atomic types    =            0
     kinetic-energy cut-off    =       0.0000  Ry
     charge density cut-off    =       0.0000  Ry
     convergence threshold     =      0.0E+00
     beta                      =       0.0000
     number of iterations used =            0
     Exchange-correlation      = not set (-1 -1 -1 -1-1-1)


     celldm(1)=    0.00000  celldm(2)=    0.00000  celldm(3)=    0.00000
     celldm(4)=    0.00000  celldm(5)=    0.00000  celldm(6)=    0.00000

     crystal axes: (cart. coord. in units of a_0)
               a(1) = (  0.0000  0.0000  0.0000 )  
               a(2) = (  0.0000  0.0000  0.0000 )  
               a(3) = (  0.0000  0.0000  0.0000 )  

     reciprocal axes: (cart. coord. in units 2 pi/a_0)
               b(1) = (  0.0000  0.0000  0.0000 )  
               b(2) = (  0.0000  0.0000  0.0000 )  
               b(3) = (  0.0000  0.0000  0.0000 )  


     Atoms inside the unit cell: 

   Cartesian axes

     site n.  atom      mass           positions (a_0 units)


     No symmetry!

     G cutoff =    0.0000  (      0 G-vectors)     FFT grid: (  0,  0,  0)
     number of k points=    0
                       cart. coord. in units 2pi/a_0
     EPW          :     0.00s CPU         0.00s WALL

     EPW          :     0.00s CPU         0.00s WALL

     No wavefunction gauge setting applied

     -------------------------------------------------------------------
     Using si.ukk from disk
     -------------------------------------------------------------------


     Using kmap and kgmap from disk

     Do not need to read .epb files; read .fmt files


              band disentanglement is used:  nbndsub =    8

     Reading Hamiltonian, Dynamical matrix and EP vertex in Wann rep from file


     Reading interatomic force constants

  Read Z*, epsilon
     IFC last   -0.0033818
     Norm of the difference between old and new effective charges:    0.0000000
     Norm of the difference between old and new force-constants:    0.0000215
     Imposed crystal ASR

     Finished reading ifcs


     Finished reading Wann rep data from file

     ===================================================================
     Memory usage:  VmHWM =        12Mb
                   VmPeak =       395Mb
     ===================================================================
     
     Using uniform q-mesh:    4   4   4
     Size of q point mesh for interpolation:         64
     Using uniform k-mesh:    8   8   8
     Size of k point mesh for interpolation:       1024
     Max number of k points per pool:             1024

     Fermi energy coarse grid =   0.000000 eV

     ===================================================================

     Fermi energy is read from the input file: Ef =   6.800000 eV

     ===================================================================

              ibndmin =     2  ebndmin =     0.209
              ibndmax =     8  ebndmax =     0.794


     Number of ep-matrix elements per pool :       150528 ~=    1.15 Mb (@ 8 bytes/ DP)
     Applying a scissor shift of   0.70000 eV to the conduction states

     ===================================================================
     Phonon-assisted absorption
     ===================================================================


     Fermi Surface thickness =   4.000000 eV

     Temperature T =   0.025852 eV
     Progression iq (fine) =         50/        64

     Phonon-assisted absorption coefficient versus energy
     Photon energy (eV), absorption coefficient (cm-1) along x,y,z
            0.050000  0.22973469171806E-08  0.22651920611026E-08  0.21713184683356E-08  (cm-1)
            0.100000  0.39880858134228E-08  0.39374755065370E-08  0.37988748703306E-08  (cm-1)
            0.150000  0.85717641069699E-08  0.84618195047033E-08  0.81839410937589E-08  (cm-1)
            0.200000  0.20241937976487E-07  0.19977943170257E-07  0.19344407626146E-07  (cm-1)
            0.250000  0.49658191054646E-07  0.49005904997178E-07  0.47478202144427E-07  (cm-1)
            0.300000  0.12437576146341E-06  0.12273562823014E-06  0.11896304429461E-06  (cm-1)
            0.350000  0.31417511455607E-06  0.31000147765225E-06  0.30062874262710E-06  (cm-1)
            0.400000  0.79428735992397E-06  0.78368515114595E-06  0.76037627264012E-06  (cm-1)
            0.450000  0.20003425608582E-05  0.19734866893826E-05  0.19158024162227E-05  (cm-1)
            0.500000  0.50016000901498E-05  0.49340551728773E-05  0.47924914433686E-05  (cm-1)
            0.550000  0.12387099886247E-04  0.12218778543376E-04  0.11875079944421E-04  (cm-1)
            0.600000  0.30334052029744E-04  0.29919162365884E-04  0.29095158913178E-04  (cm-1)
            0.650000  0.73353778135332E-04  0.72343574532581E-04  0.70395598989650E-04  (cm-1)
            0.700000  0.17498509653743E-03  0.17255781310904E-03  0.16802216322638E-03  (cm-1)
            0.750000  0.41144858522122E-03  0.40569782763382E-03  0.39530622603124E-03  (cm-1)
            0.800000  0.95298109704567E-03  0.93955521297445E-03  0.91614742490099E-03  (cm-1)
            0.850000  0.21730923359797E-02  0.21422214626978E-02  0.20904174494842E-02  (cm-1)
            0.900000  0.48765086348978E-02  0.48066278689698E-02  0.46940609768310E-02  (cm-1)
            0.950000  0.10765162208236E-01  0.10609488344507E-01  0.10369473386705E-01  (cm-1)
            1.000000  0.23371276846193E-01  0.23030087829430E-01  0.22528219270312E-01  (cm-1)
            1.050000  0.49886721504120E-01  0.49151212044958E-01  0.48122703625533E-01  (cm-1)
            1.100000  0.10467325119017E+00  0.10311404010620E+00  0.10104950033117E+00  (cm-1)
            1.150000  0.21585226699355E+00  0.21260237677139E+00  0.20854592324908E+00  (cm-1)
            1.200000  0.43740299889771E+00  0.43074390349513E+00  0.42294821248297E+00  (cm-1)
            1.250000  0.87087474196892E+00  0.85746283720839E+00  0.84282167000526E+00  (cm-1)
            1.300000  0.17034607061555E+01  0.16769116413085E+01  0.16500663605606E+01  (cm-1)
            1.350000  0.32732021527933E+01  0.32215540526795E+01  0.31735597105886E+01  (cm-1)
            1.400000  0.61779861720414E+01  0.60792501065372E+01  0.59957172120343E+01  (cm-1)
            1.450000  0.11453290344836E+02  0.11267813273791E+02  0.11126567413009E+02  (cm-1)
            1.500000  0.20854749835111E+02  0.20512391899336E+02  0.20281008975587E+02  (cm-1)
            1.550000  0.37295740797822E+02  0.36674821585690E+02  0.36309052512343E+02  (cm-1)
            1.600000  0.65506902396151E+02  0.64400408745654E+02  0.63845729048684E+02  (cm-1)
            1.650000  0.11300257211970E+03  0.11106515869655E+03  0.11026577635739E+03  (cm-1)
            1.700000  0.19145592288220E+03  0.18812272140786E+03  0.18704574306639E+03  (cm-1)
            1.750000  0.31859602131717E+03  0.31296121300171E+03  0.31164874717199E+03  (cm-1)
            1.800000  0.52074026430776E+03  0.51137987570699E+03  0.51004905992179E+03  (cm-1)
            1.850000  0.83605754074648E+03  0.82077725908462E+03  0.81999779763940E+03  (cm-1)
            1.900000  0.13186134223327E+04  0.12940988446656E+04  0.12950895476757E+04  (cm-1)
            1.950000  0.20431723084236E+04  0.20045165992664E+04  0.20096159434476E+04  (cm-1)
            2.000000  0.31106197814753E+04  0.30507030612836E+04  0.30640824227085E+04  (cm-1)
            2.050000  0.46537245838956E+04  0.45624214614603E+04  0.45911208269817E+04  (cm-1)
            2.100000  0.68427951615445E+04  0.67059925800347E+04  0.67613635542416E+04  (cm-1)
            2.150000  0.98906219264517E+04  0.96890396023353E+04  0.97886748268928E+04  (cm-1)
            2.200000  0.14055963558874E+05  0.13763783963677E+05  0.13933990764161E+05  (cm-1)
            2.250000  0.19644769552383E+05  0.19228103115041E+05  0.19506938027287E+05  (cm-1)
            2.300000  0.27008366520038E+05  0.26423599134128E+05  0.26864416607571E+05  (cm-1)
            2.350000  0.36537997401058E+05  0.35730089133936E+05  0.36405473208865E+05  (cm-1)
            2.400000  0.48655396335829E+05  0.47556219466314E+05  0.48562067262728E+05  (cm-1)
            2.450000  0.63799486896566E+05  0.62326304736369E+05  0.63785726168432E+05  (cm-1)
            2.500000  0.82409758238612E+05  0.80463950534619E+05  0.82530555709164E+05  (cm-1)
            2.550000  0.10490732978436E+06  0.10237346362557E+06  0.10523354706623E+06  (cm-1)
            2.600000  0.13167507717680E+06  0.12842040341317E+06  0.13229352190945E+06  (cm-1)
            2.650000  0.16303838632605E+06  0.15891281142384E+06  0.16405030533898E+06  (cm-1)
            2.700000  0.19924808418204E+06  0.19408462873194E+06  0.20076576208598E+06  (cm-1)
            2.750000  0.24046686622198E+06  0.23408257779911E+06  0.24260816545845E+06  (cm-1)
            2.800000  0.28676015453640E+06  0.27895739875212E+06  0.28964103089464E+06  (cm-1)
            2.850000  0.33809187091635E+06  0.32865988478589E+06  0.34181711790911E+06  (cm-1)
            2.900000  0.39432520669991E+06  0.38304176698198E+06  0.39897788672944E+06  (cm-1)
            2.950000  0.45522820747752E+06  0.44186124713433E+06  0.46085837882892E+06  (cm-1)
            3.000000  0.52048390691761E+06  0.50479290898751E+06  0.52709732121555E+06  (cm-1)
     ===================================================================
     Memory usage:  VmHWM =        21Mb
                   VmPeak =       419Mb
     ===================================================================


     Unfolding on the coarse grid
     elphon_wrap  :      0.00s CPU      0.00s WALL (       1 calls)

     INITIALIZATION: 



     Electron-Phonon interpolation
     ephwann      :     10.52s CPU      5.22s WALL (       1 calls)
     ep-interp    :     10.32s CPU      5.06s WALL (      64 calls)

     DynW2B       :      0.03s CPU      0.01s WALL (      64 calls)
     HamW2B       :      4.30s CPU      2.10s WALL (   66560 calls)
     ephW2Bp      :      0.20s CPU      0.14s WALL (      64 calls)


     Total program execution
     EPW          :    10.52s CPU         5.22s WALL

                                                                                          
 Please consider citing:                                                                  
 S. Ponce, E. R. Margine, C. Verdi and F. Giustino, Comput. Phys. Commun. 209, 116 (2016) 
                                                                                          
 In addition, if you used anisotropic Eliashberg superconductivity please cite:           
              E. R. Margine and F. Giustino, Phys. Rev. B 87, 024505 (2013)               
              if you used transport properties (scattering rates, mobility) please cite:  
              S. Ponce, E. R. Margine and F. Giustino, Phys. Rev. B 97, 121201 (2018)     
