
     Program PWSCF v.6.beta (svn rev. 13009) starts on 23Sep2016 at 13:20:59 

     This program is part of the open-source Quantum ESPRESSO suite
     for quantum simulation of materials; please cite
         "P. Giannozzi et al., J. Phys.:Condens. Matter 21 395502 (2009);
          URL http://www.quantum-espresso.org", 
     in publications or presentations arising from this work. More details at
     http://www.quantum-espresso.org/quote

           HOST :    @host@
           ARCH :    x86_64
             CC :    cc
            CPP :    cpp
            F90 :    mpif90
            F77 :    gfortran
         DFLAGS :    -D__GFORTRAN -D__STD_F95 -D__FFTW -D__MPI
      BLAS LIBS :    
    LAPACK LIBS :    $(TOPDIR)/LAPACK/liblapack.a $(TOPDIR)/LAPACK/libblas.a
       FFT LIBS :    
      MASS LIBS :    

     Parallel version (MPI), running on     2 processors
     R & G space division:  proc/nbgrp/npool/nimage =       2
     Waiting for input...
     Reading input from standard input

     Current dimensions of program PWSCF are:
     Max number of different atomic species (ntypx) = 10
     Max number of k-points (npk) =  40000
     Max angular momentum in pseudopotentials (lmaxx) =  3

     Subspace diagonalization in iterative solution of the eigenvalue problem:
     a serial algorithm will be used


   Info: using nr1, nr2, nr3 values from input

     Parallelization info
     --------------------
     sticks:   dense  smooth     PW     G-vecs:    dense   smooth      PW
     Min         231      81     30                 3283      705     165
     Max         232      82     31                 3284      706     166
     Sum         463     163     61                 6567     1411     331



     bravais-lattice index     =            2
     lattice parameter (alat)  =       6.6800  a.u.
     unit-cell volume          =      74.5194 (a.u.)^3
     number of atoms/cell      =            2
     number of atomic types    =            1
     number of electrons       =         8.00
     number of Kohn-Sham states=            4
     kinetic-energy cutoff     =      27.0000  Ry
     charge density cutoff     =     300.0000  Ry
     convergence threshold     =      1.0E-09
     mixing beta               =       0.7000
     number of iterations used =            8  plain     mixing
     Exchange-correlation      =  SLA  PZ   NOGX NOGC ( 1  1  0  0 0 0)

     celldm(1)=   6.680000  celldm(2)=   0.000000  celldm(3)=   0.000000
     celldm(4)=   0.000000  celldm(5)=   0.000000  celldm(6)=   0.000000

     crystal axes: (cart. coord. in units of alat)
               a(1) = (  -0.500000   0.000000   0.500000 )  
               a(2) = (   0.000000   0.500000   0.500000 )  
               a(3) = (  -0.500000   0.500000   0.000000 )  

     reciprocal axes: (cart. coord. in units 2 pi/alat)
               b(1) = ( -1.000000 -1.000000  1.000000 )  
               b(2) = (  1.000000  1.000000  1.000000 )  
               b(3) = ( -1.000000  1.000000 -1.000000 )  


     PseudoPot. # 1 for  C read from file:
     /home/pietro/trunk/espresso/pseudo/C.pz-kjpaw.UPF
     MD5 check sum: 414e6e825ae75add557e798061b49a04
     Pseudo is Projector augmented-wave + core cor, Zval =  4.0
     Generated using "atomic" code by A. Dal Corso (espresso distribution)
     Shape of augmentation charge: BESSEL
     Using radial grid of 1073 points,  4 beta functions with: 
                l(1) =   0
                l(2) =   0
                l(3) =   1
                l(4) =   1
     Q(r) pseudized with 0 coefficients 


     atomic species   valence    mass     pseudopotential
        C              4.00    12.01070      C( 1.00)

     48 Sym. Ops., with inversion, found (24 have fractional translation)



   Cartesian axes

     site n.     atom                  positions (alat units)
         1           C   tau(   1) = (   0.0000000   0.0000000   0.0000000  )
         2           C   tau(   2) = (   0.2500000   0.2500000   0.2500000  )

     number of k points=    10
                       cart. coord. in units 2pi/alat
        k(    1) = (  -0.1250000   0.1250000   0.1250000), wk =   0.0625000
        k(    2) = (  -0.3750000   0.3750000  -0.1250000), wk =   0.1875000
        k(    3) = (   0.3750000  -0.3750000   0.6250000), wk =   0.1875000
        k(    4) = (   0.1250000  -0.1250000   0.3750000), wk =   0.1875000
        k(    5) = (  -0.1250000   0.6250000   0.1250000), wk =   0.1875000
        k(    6) = (   0.6250000  -0.1250000   0.8750000), wk =   0.3750000
        k(    7) = (   0.3750000   0.1250000   0.6250000), wk =   0.3750000
        k(    8) = (  -0.1250000  -0.8750000   0.1250000), wk =   0.1875000
        k(    9) = (  -0.3750000   0.3750000   0.3750000), wk =   0.0625000
        k(   10) = (   0.3750000  -0.3750000   1.1250000), wk =   0.1875000

     Dense  grid:     6567 G-vectors     FFT dimensions: (  32,  32,  32)

     Smooth grid:     1411 G-vectors     FFT dimensions: (  15,  15,  15)

     Estimated max dynamical RAM per process >       2.55Mb

     Estimated total allocated dynamical RAM >       5.11Mb

     Check: negative/imaginary core charge=   -0.000005    0.000000

     Initial potential from superposition of free atoms

     starting charge    7.99993, renormalised to    8.00000
     Starting wfc are    8 randomized atomic wfcs
     Checking if some PAW data can be deallocated... 

     total cpu time spent up to now is        0.3 secs

     per-process dynamical memory:     8.3 Mb

     Self-consistent Calculation

     iteration #  1     ecut=    27.00 Ry     beta=0.70
     Davidson diagonalization with overlap
     ethr =  1.00E-02,  avg # of iterations =  2.1

     total cpu time spent up to now is        0.4 secs

     total energy              =     -35.58329986 Ry
     Harris-Foulkes estimate   =     -35.65469646 Ry
     estimated scf accuracy    <       0.12967243 Ry

     iteration #  2     ecut=    27.00 Ry     beta=0.70
     Davidson diagonalization with overlap
     ethr =  1.62E-03,  avg # of iterations =  2.0

     total cpu time spent up to now is        0.4 secs

     total energy              =     -35.59548699 Ry
     Harris-Foulkes estimate   =     -35.59635153 Ry
     estimated scf accuracy    <       0.00211355 Ry

     iteration #  3     ecut=    27.00 Ry     beta=0.70
     Davidson diagonalization with overlap
     ethr =  2.64E-05,  avg # of iterations =  3.0

     total cpu time spent up to now is        0.4 secs

     total energy              =     -35.59652365 Ry
     Harris-Foulkes estimate   =     -35.59654631 Ry
     estimated scf accuracy    <       0.00005760 Ry

     iteration #  4     ecut=    27.00 Ry     beta=0.70
     Davidson diagonalization with overlap
     ethr =  7.20E-07,  avg # of iterations =  2.7

     total cpu time spent up to now is        0.4 secs

     total energy              =     -35.59654446 Ry
     Harris-Foulkes estimate   =     -35.59654667 Ry
     estimated scf accuracy    <       0.00000442 Ry

     iteration #  5     ecut=    27.00 Ry     beta=0.70
     Davidson diagonalization with overlap
     ethr =  5.53E-08,  avg # of iterations =  2.7

     total cpu time spent up to now is        0.5 secs

     total energy              =     -35.59654572 Ry
     Harris-Foulkes estimate   =     -35.59654579 Ry
     estimated scf accuracy    <       0.00000015 Ry

     iteration #  6     ecut=    27.00 Ry     beta=0.70
     Davidson diagonalization with overlap
     ethr =  1.82E-09,  avg # of iterations =  3.6

     total cpu time spent up to now is        0.5 secs

     total energy              =     -35.59654579 Ry
     Harris-Foulkes estimate   =     -35.59654579 Ry
     estimated scf accuracy    <          1.0E-09 Ry

     iteration #  7     ecut=    27.00 Ry     beta=0.70
     Davidson diagonalization with overlap
     ethr =  1.29E-11,  avg # of iterations =  3.8

     total cpu time spent up to now is        0.5 secs

     End of self-consistent calculation

          k =-0.1250 0.1250 0.1250 (   172 PWs)   bands (ev):

    -7.6538  11.2130  13.0027  13.0027

          k =-0.3750 0.3750-0.1250 (   173 PWs)   bands (ev):

    -5.3443   5.7928   9.2182  11.8188

          k = 0.3750-0.3750 0.6250 (   172 PWs)   bands (ev):

    -2.1992   0.8512   9.4650  10.0574

          k = 0.1250-0.1250 0.3750 (   172 PWs)   bands (ev):

    -6.4897   8.5250  10.7067  11.6521

          k =-0.1250 0.6250 0.1250 (   180 PWs)   bands (ev):

    -4.2071   6.0838   8.3417   8.6814

          k = 0.6250-0.1250 0.8750 (   180 PWs)   bands (ev):

    -0.1269   2.3914   5.0210   7.1187

          k = 0.3750 0.1250 0.6250 (   175 PWs)   bands (ev):

    -3.1174   3.6701   7.2811   9.4825

          k =-0.1250-0.8750 0.1250 (   178 PWs)   bands (ev):

    -0.9281   2.9486   6.1002   7.5711

          k =-0.3750 0.3750 0.3750 (   177 PWs)   bands (ev):

    -4.2308   2.7971  11.0868  11.0868

          k = 0.3750-0.3750 1.1250 (   178 PWs)   bands (ev):

    -1.1767   1.8657   5.7621   9.3468

     highest occupied level (ev):    13.0027

!    total energy              =     -35.59654579 Ry
     Harris-Foulkes estimate   =     -35.59654579 Ry
     estimated scf accuracy    <          3.9E-10 Ry

     total all-electron energy =      -151.155542 Ry

     The total energy is the sum of the following terms:

     one-electron contribution =       8.80216014 Ry
     hartree contribution      =       1.88298606 Ry
     xc contribution           =      -8.41610992 Ry
     ewald contribution        =     -25.80502057 Ry
     one-center paw contrib.   =     -12.06056150 Ry

     convergence has been achieved in   7 iterations

     Writing output data file carbon.save

     init_run     :      0.20s CPU      0.20s WALL (       1 calls)
     electrons    :      0.22s CPU      0.22s WALL (       1 calls)

     Called by init_run:
     wfcinit      :      0.01s CPU      0.01s WALL (       1 calls)
     potinit      :      0.01s CPU      0.01s WALL (       1 calls)

     Called by electrons:
     c_bands      :      0.08s CPU      0.07s WALL (       7 calls)
     sum_band     :      0.06s CPU      0.05s WALL (       7 calls)
     v_of_rho     :      0.01s CPU      0.01s WALL (       8 calls)
     newd         :      0.01s CPU      0.02s WALL (       8 calls)
     PAW_pot      :      0.06s CPU      0.06s WALL (       8 calls)
     mix_rho      :      0.00s CPU      0.00s WALL (       7 calls)

     Called by c_bands:
     init_us_2    :      0.00s CPU      0.00s WALL (     150 calls)
     cegterg      :      0.07s CPU      0.07s WALL (      70 calls)

     Called by sum_band:
     sum_band:bec :      0.00s CPU      0.00s WALL (      70 calls)
     addusdens    :      0.02s CPU      0.02s WALL (       7 calls)

     Called by *egterg:
     h_psi        :      0.06s CPU      0.05s WALL (     279 calls)
     s_psi        :      0.00s CPU      0.00s WALL (     279 calls)
     g_psi        :      0.00s CPU      0.00s WALL (     199 calls)
     cdiaghg      :      0.02s CPU      0.01s WALL (     269 calls)

     Called by h_psi:
     h_psi:pot    :      0.06s CPU      0.05s WALL (     279 calls)
     h_psi:calbec :      0.00s CPU      0.00s WALL (     279 calls)
     vloc_psi     :      0.05s CPU      0.04s WALL (     279 calls)
     add_vuspsi   :      0.01s CPU      0.00s WALL (     279 calls)

     General routines
     calbec       :      0.00s CPU      0.00s WALL (     349 calls)
     fft          :      0.02s CPU      0.02s WALL (      68 calls)
     ffts         :      0.00s CPU      0.00s WALL (      15 calls)
     fftw         :      0.05s CPU      0.04s WALL (    2278 calls)
     interpolate  :      0.00s CPU      0.00s WALL (      15 calls)
     davcio       :      0.00s CPU      0.00s WALL (      10 calls)

     Parallel routines
     fft_scatter  :      0.00s CPU      0.01s WALL (    2361 calls)

     PWSCF        :     0.58s CPU         0.59s WALL


   This run was terminated on:  13:20:59  23Sep2016            

=------------------------------------------------------------------------------=
   JOB DONE.
=------------------------------------------------------------------------------=
