
     Program PWSCF v.5.0.2 (svn rev. 9400) starts on  7Dec2012 at 15:47:15 

     This program is part of the open-source Quantum ESPRESSO suite
     for quantum simulation of materials; please cite
         "P. Giannozzi et al., J. Phys.:Condens. Matter 21 395502 (2009);
          URL http://www.quantum-espresso.org", 
     in publications or presentations arising from this work. More details at
     http://www.quantum-espresso.org/quote.php

     Serial version

     Current dimensions of program PWSCF are:
     Max number of different atomic species (ntypx) = 10
     Max number of k-points (npk) =  40000
     Max angular momentum in pseudopotentials (lmaxx) =  3
     Waiting for input...
     Reading input from standard input
 
     G-vector sticks info
     --------------------
     sticks:   dense  smooth     PW     G-vecs:    dense   smooth      PW
     Sum        1159     199     73                25821     1837     411
 


     bravais-lattice index     =            2
     lattice parameter (alat)  =       6.9000  a.u.
     unit-cell volume          =      82.1273 (a.u.)^3
     number of atoms/cell      =            1
     number of atomic types    =            1
     number of electrons       =        11.00
     number of Kohn-Sham states=           10
     kinetic-energy cutoff     =      30.0000  Ry
     charge density cutoff     =     700.0000  Ry
     convergence threshold     =      1.0E-09
     mixing beta               =       0.7000
     number of iterations used =            8  plain     mixing
     Exchange-correlation      =  SLA  PW   PBX  PBC ( 1 4 3 4 0)
     EXX-fraction              =        0.00

     celldm(1)=   6.900000  celldm(2)=   0.000000  celldm(3)=   0.000000
     celldm(4)=   0.000000  celldm(5)=   0.000000  celldm(6)=   0.000000

     crystal axes: (cart. coord. in units of alat)
               a(1) = (  -0.500000   0.000000   0.500000 )  
               a(2) = (   0.000000   0.500000   0.500000 )  
               a(3) = (  -0.500000   0.500000   0.000000 )  

     reciprocal axes: (cart. coord. in units 2 pi/alat)
               b(1) = ( -1.000000 -1.000000  1.000000 )  
               b(2) = (  1.000000  1.000000  1.000000 )  
               b(3) = ( -1.000000  1.000000 -1.000000 )  


     PseudoPot. # 1 for Cu read from file:
     /home/giannozz/trunk/espresso/pseudo/Cu.pbe-kjpaw.UPF
     MD5 check sum: 92cd914fcb04cfd737edc2091ad11b5d
     Pseudo is Projector augmented-wave + core cor, Zval = 11.0
     Generated using "atomic" code by A. Dal Corso (espresso distribution)
     Shape of augmentation charge: BESSEL
     Using radial grid of 1199 points,  6 beta functions with: 
                l(1) =   2
                l(2) =   2
                l(3) =   0
                l(4) =   0
                l(5) =   1
                l(6) =   1
     Q(r) pseudized with 0 coefficients 


     atomic species   valence    mass     pseudopotential
        Cu            11.00    63.54600     Cu( 1.00)

     48 Sym. Ops., with inversion, found



   Cartesian axes

     site n.     atom                  positions (alat units)
         1           Cu  tau(   1) = (   0.0000000   0.0000000   0.0000000  )

     number of k points=    10  Methfessel-Paxton smearing, width (Ry)=  0.0100
                       cart. coord. in units 2pi/alat
        k(    1) = (  -0.1250000   0.1250000   0.1250000), wk =   0.0625000
        k(    2) = (  -0.3750000   0.3750000  -0.1250000), wk =   0.1875000
        k(    3) = (   0.3750000  -0.3750000   0.6250000), wk =   0.1875000
        k(    4) = (   0.1250000  -0.1250000   0.3750000), wk =   0.1875000
        k(    5) = (  -0.1250000   0.6250000   0.1250000), wk =   0.1875000
        k(    6) = (   0.6250000  -0.1250000   0.8750000), wk =   0.3750000
        k(    7) = (   0.3750000   0.1250000   0.6250000), wk =   0.3750000
        k(    8) = (  -0.1250000  -0.8750000   0.1250000), wk =   0.1875000
        k(    9) = (  -0.3750000   0.3750000   0.3750000), wk =   0.0625000
        k(   10) = (   0.3750000  -0.3750000   1.1250000), wk =   0.1875000

     Dense  grid:    25821 G-vectors     FFT dimensions: (  45,  45,  45)

     Smooth grid:     1837 G-vectors     FFT dimensions: (  18,  18,  18)

     Largest allocated arrays     est. size (Mb)     dimensions
        Kohn-Sham Wavefunctions         0.04 Mb     (    233,   10)
        NL pseudopotentials             0.06 Mb     (    233,   18)
        Each V/rho on FFT grid          1.39 Mb     (  91125)
        Each G-vector array             0.20 Mb     (  25821)
        G-vector shells                 0.00 Mb     (    285)
     Largest temporary arrays     est. size (Mb)     dimensions
        Auxiliary wavefunctions         0.14 Mb     (    233,   40)
        Each subspace H/S matrix        0.02 Mb     (  40,  40)
        Each <psi_i|beta_j> matrix      0.00 Mb     (     18,   10)
        Arrays for rho mixing          11.12 Mb     (  91125,   8)

     Initial potential from superposition of free atoms

     starting charge   10.99972, renormalised to   11.00000
     Starting wfc are    9 randomized atomic wfcs

     total cpu time spent up to now is        2.0 secs

     per-process dynamical memory:    26.3 Mb

     Self-consistent Calculation

     iteration #  1     ecut=    30.00 Ry     beta=0.70
     Davidson diagonalization with overlap
     ethr =  1.00E-02,  avg # of iterations =  4.7

     total cpu time spent up to now is        2.7 secs

     total energy              =    -213.10006272 Ry
     Harris-Foulkes estimate   =    -213.23320374 Ry
     estimated scf accuracy    <       0.18354643 Ry

     iteration #  2     ecut=    30.00 Ry     beta=0.70
     Davidson diagonalization with overlap
     ethr =  1.67E-03,  avg # of iterations =  3.0

     total cpu time spent up to now is        3.5 secs

     total energy              =    -213.13176702 Ry
     Harris-Foulkes estimate   =    -213.31771745 Ry
     estimated scf accuracy    <       0.43205021 Ry

     iteration #  3     ecut=    30.00 Ry     beta=0.70
     Davidson diagonalization with overlap
     ethr =  1.67E-03,  avg # of iterations =  1.6

     total cpu time spent up to now is        4.1 secs

     total energy              =    -213.19189199 Ry
     Harris-Foulkes estimate   =    -213.19488732 Ry
     estimated scf accuracy    <       0.00403868 Ry

     iteration #  4     ecut=    30.00 Ry     beta=0.70
     Davidson diagonalization with overlap
     ethr =  3.67E-05,  avg # of iterations =  3.0

     total cpu time spent up to now is        4.9 secs

     total energy              =    -213.19839782 Ry
     Harris-Foulkes estimate   =    -213.20263877 Ry
     estimated scf accuracy    <       0.01137008 Ry

     iteration #  5     ecut=    30.00 Ry     beta=0.70
     Davidson diagonalization with overlap
     ethr =  3.67E-05,  avg # of iterations =  1.5

     total cpu time spent up to now is        5.6 secs

     total energy              =    -213.19998256 Ry
     Harris-Foulkes estimate   =    -213.19997769 Ry
     estimated scf accuracy    <       0.00019715 Ry

     iteration #  6     ecut=    30.00 Ry     beta=0.70
     Davidson diagonalization with overlap
     ethr =  1.79E-06,  avg # of iterations =  3.0

     total cpu time spent up to now is        6.3 secs

     total energy              =    -213.20011738 Ry
     Harris-Foulkes estimate   =    -213.20012474 Ry
     estimated scf accuracy    <       0.00021168 Ry

     iteration #  7     ecut=    30.00 Ry     beta=0.70
     Davidson diagonalization with overlap
     ethr =  1.79E-06,  avg # of iterations =  3.0

     total cpu time spent up to now is        7.1 secs

     total energy              =    -213.20016561 Ry
     Harris-Foulkes estimate   =    -213.20032043 Ry
     estimated scf accuracy    <       0.00080553 Ry

     iteration #  8     ecut=    30.00 Ry     beta=0.70
     Davidson diagonalization with overlap
     ethr =  1.79E-06,  avg # of iterations =  1.0

     total cpu time spent up to now is        7.8 secs

     total energy              =    -213.20009895 Ry
     Harris-Foulkes estimate   =    -213.20018967 Ry
     estimated scf accuracy    <       0.00029232 Ry

     iteration #  9     ecut=    30.00 Ry     beta=0.70
     Davidson diagonalization with overlap
     ethr =  1.79E-06,  avg # of iterations =  1.9

     total cpu time spent up to now is        8.6 secs

     total energy              =    -213.20013269 Ry
     Harris-Foulkes estimate   =    -213.20013647 Ry
     estimated scf accuracy    <       0.00000552 Ry

     iteration # 10     ecut=    30.00 Ry     beta=0.70
     Davidson diagonalization with overlap
     ethr =  5.02E-08,  avg # of iterations =  3.0

     total cpu time spent up to now is        9.5 secs

     total energy              =    -213.20013482 Ry
     Harris-Foulkes estimate   =    -213.20013854 Ry
     estimated scf accuracy    <       0.00001204 Ry

     iteration # 11     ecut=    30.00 Ry     beta=0.70
     Davidson diagonalization with overlap
     ethr =  5.02E-08,  avg # of iterations =  1.0

     total cpu time spent up to now is       10.3 secs

     total energy              =    -213.20013564 Ry
     Harris-Foulkes estimate   =    -213.20013600 Ry
     estimated scf accuracy    <       0.00000053 Ry

     iteration # 12     ecut=    30.00 Ry     beta=0.70
     Davidson diagonalization with overlap
     ethr =  4.85E-09,  avg # of iterations =  2.9

     total cpu time spent up to now is       11.1 secs

     total energy              =    -213.20013585 Ry
     Harris-Foulkes estimate   =    -213.20013658 Ry
     estimated scf accuracy    <       0.00000221 Ry

     iteration # 13     ecut=    30.00 Ry     beta=0.70
     Davidson diagonalization with overlap
     ethr =  4.85E-09,  avg # of iterations =  2.1

     total cpu time spent up to now is       11.9 secs

     total energy              =    -213.20013607 Ry
     Harris-Foulkes estimate   =    -213.20013608 Ry
     estimated scf accuracy    <       0.00000007 Ry

     iteration # 14     ecut=    30.00 Ry     beta=0.70
     Davidson diagonalization with overlap
     ethr =  6.61E-10,  avg # of iterations =  2.8

     total cpu time spent up to now is       12.7 secs

     total energy              =    -213.20013609 Ry
     Harris-Foulkes estimate   =    -213.20013609 Ry
     estimated scf accuracy    <       0.00000001 Ry

     iteration # 15     ecut=    30.00 Ry     beta=0.70
     Davidson diagonalization with overlap
     ethr =  1.23E-10,  avg # of iterations =  1.0

     total cpu time spent up to now is       13.5 secs

     total energy              =    -213.20013608 Ry
     Harris-Foulkes estimate   =    -213.20013609 Ry
     estimated scf accuracy    <          9.3E-09 Ry

     iteration # 16     ecut=    30.00 Ry     beta=0.70
     Davidson diagonalization with overlap
     ethr =  8.47E-11,  avg # of iterations =  1.0

     total cpu time spent up to now is       14.1 secs

     End of self-consistent calculation

          k =-0.1250 0.1250 0.1250 (   232 PWs)   bands (ev):

     6.2863  11.9340  12.1264  12.1264  12.7976  12.7976  34.3367  39.1703
    39.3026  39.3026

          k =-0.3750 0.3750-0.1250 (   223 PWs)   bands (ev):

     8.8898  11.6661  12.0804  12.3068  12.7744  13.4613  26.1039  31.5675
    39.0864  39.3213

          k = 0.3750-0.3750 0.6250 (   233 PWs)   bands (ev):

    10.3026  11.8154  12.1838  12.3551  13.3877  15.0806  19.3766  32.7507
    34.3624  36.2410

          k = 0.1250-0.1250 0.3750 (   228 PWs)   bands (ev):

     7.6807  11.6361  12.2390  12.3466  12.7123  13.0209  30.2044  34.6733
    36.6897  38.7710

          k =-0.1250 0.6250 0.1250 (   226 PWs)   bands (ev):

     9.7852  11.1805  12.2110  12.7623  13.3043  13.5634  27.0522  30.4200
    30.9706  35.1861

          k = 0.6250-0.1250 0.8750 (   227 PWs)   bands (ev):

    10.9353  11.1872  11.9372  12.8526  13.4026  18.2982  21.3887  24.8574
    27.0721  39.0243

          k = 0.3750 0.1250 0.6250 (   230 PWs)   bands (ev):

    10.4599  11.4774  11.7773  12.5620  13.1552  14.8063  23.0590  28.5936
    31.5997  39.3530

          k =-0.1250-0.8750 0.1250 (   228 PWs)   bands (ev):

    10.4358  10.8615  12.9026  13.1647  13.4572  16.2551  23.8402  25.2563
    28.8556  34.6223

          k =-0.3750 0.3750 0.3750 (   232 PWs)   bands (ev):

     9.5750  12.0704  12.0704  12.4029  13.2209  13.2209  21.8657  37.2262
    37.2262  37.4306

          k = 0.3750-0.3750 1.1250 (   230 PWs)   bands (ev):

    10.9172  11.4095  11.8901  12.5566  13.1999  17.0793  20.2250  26.0860
    32.7242  35.9660

     the Fermi energy is    14.8685 ev

!    total energy              =    -213.20013608 Ry
     Harris-Foulkes estimate   =    -213.20013608 Ry
     estimated scf accuracy    <          5.4E-10 Ry

     total all-electron energy =     -3309.957154 Ry

     The total energy is the sum of the following terms:

     one-electron contribution =     -31.86180057 Ry
     hartree contribution      =      15.00702704 Ry
     xc contribution           =     -19.53715642 Ry
     ewald contribution        =     -80.40120449 Ry
     one-center paw contrib.   =     -96.40684207 Ry
     smearing contrib. (-TS)   =      -0.00015958 Ry

     convergence has been achieved in  16 iterations

     Writing output data file Cu.save
 
     init_run     :      1.54s CPU      1.62s WALL (       1 calls)
     electrons    :     11.35s CPU     12.14s WALL (       1 calls)

     Called by init_run:
     wfcinit      :      0.03s CPU      0.03s WALL (       1 calls)
     potinit      :      0.36s CPU      0.38s WALL (       1 calls)

     Called by electrons:
     c_bands      :      1.33s CPU      1.43s WALL (      16 calls)
     sum_band     :      1.80s CPU      1.93s WALL (      16 calls)
     v_of_rho     :      1.25s CPU      1.36s WALL (      17 calls)
     newd         :      1.40s CPU      1.53s WALL (      17 calls)
     mix_rho      :      1.22s CPU      1.31s WALL (      16 calls)

     Called by c_bands:
     init_us_2    :      0.02s CPU      0.04s WALL (     330 calls)
     cegterg      :      1.24s CPU      1.33s WALL (     160 calls)

     Called by *egterg:
     h_psi        :      0.98s CPU      1.03s WALL (     535 calls)
     s_psi        :      0.03s CPU      0.02s WALL (     535 calls)
     g_psi        :      0.03s CPU      0.03s WALL (     365 calls)
     cdiaghg      :      0.12s CPU      0.15s WALL (     525 calls)

     Called by h_psi:
     add_vuspsi   :      0.04s CPU      0.03s WALL (     535 calls)

     General routines
     calbec       :      0.04s CPU      0.04s WALL (     695 calls)
     fft          :      0.41s CPU      0.46s WALL (     268 calls)
     ffts         :      0.00s CPU      0.00s WALL (      33 calls)
     fftw         :      0.56s CPU      0.61s WALL (    9818 calls)
     interpolate  :      0.07s CPU      0.09s WALL (      33 calls)
     davcio       :      0.00s CPU      0.02s WALL (     490 calls)
 
 
     PAW routines
     PAW_pot      :      4.58s CPU      4.78s WALL (      17 calls)
     PAW_ddot     :      1.16s CPU      1.23s WALL (     436 calls)
     PAW_symme    :      0.01s CPU      0.03s WALL (      33 calls)
 
     PWSCF        :    13.35s CPU        14.30s WALL

 
   This run was terminated on:  15:47:29   7Dec2012            

=------------------------------------------------------------------------------=
   JOB DONE.
=------------------------------------------------------------------------------=
