
     Program PWSCF v.5.0.2 (svn rev. 9400) starts on 29Nov2012 at 22:26:12 

     This program is part of the open-source Quantum ESPRESSO suite
     for quantum simulation of materials; please cite
         "P. Giannozzi et al., J. Phys.:Condens. Matter 21 395502 (2009);
          URL http://www.quantum-espresso.org", 
     in publications or presentations arising from this work. More details at
     http://www.quantum-espresso.org/quote.php

     Serial version

     Current dimensions of program PWSCF are:
     Max number of different atomic species (ntypx) = 10
     Max number of k-points (npk) =  40000
     Max angular momentum in pseudopotentials (lmaxx) =  3
     Reading input from /home/giannozz/trunk/espresso/PW/tests/hse-si222.in

     IMPORTANT: XC functional enforced from input :
     Exchange-correlation      = HSE ( 1 412 4 0)
     EXX-fraction              =        0.25
     Any further DFT definition will be discarded
     Please, verify this is what you really want

     EXX: grid of k+q point setup nkqs =         80
 
     G-vector sticks info
     --------------------
     sticks:   dense  smooth     PW     G-vecs:    dense   smooth      PW
     Sum         163     163     61                 1459     1459     307
 


     bravais-lattice index     =            2
     lattice parameter (alat)  =      10.2000  a.u.
     unit-cell volume          =     265.3020 (a.u.)^3
     number of atoms/cell      =            2
     number of atomic types    =            1
     number of electrons       =         8.00
     number of Kohn-Sham states=            8
     kinetic-energy cutoff     =      12.0000  Ry
     charge density cutoff     =      48.0000  Ry
     convergence threshold     =      1.0E-06
     mixing beta               =       0.7000
     number of iterations used =            8  plain     mixing
     Exchange-correlation      = HSE ( 1 412 4 0)
     EXX-fraction              =        0.25

     celldm(1)=  10.200000  celldm(2)=   0.000000  celldm(3)=   0.000000
     celldm(4)=   0.000000  celldm(5)=   0.000000  celldm(6)=   0.000000

     crystal axes: (cart. coord. in units of alat)
               a(1) = (  -0.500000   0.000000   0.500000 )  
               a(2) = (   0.000000   0.500000   0.500000 )  
               a(3) = (  -0.500000   0.500000   0.000000 )  

     reciprocal axes: (cart. coord. in units 2 pi/alat)
               b(1) = ( -1.000000 -1.000000  1.000000 )  
               b(2) = (  1.000000  1.000000  1.000000 )  
               b(3) = ( -1.000000  1.000000 -1.000000 )  


     PseudoPot. # 1 for Si read from file:
     /home/giannozz/trunk/espresso/pseudo/Si.pz-vbc.UPF
     MD5 check sum: 6dfa03ddd5817404712e03e4d12deb78
     Pseudo is Norm-conserving, Zval =  4.0
     Generated by new atomic code, or converted to UPF format
     Using radial grid of  431 points,  2 beta functions with: 
                l(1) =   0
                l(2) =   1

     atomic species   valence    mass     pseudopotential
        Si             4.00    28.08600     Si( 1.00)

     24 Sym. Ops. (no inversion) found
          (note: 24 additional sym.ops. were found but ignored
           their fractional translations are incommensurate with FFT grid)


   Cartesian axes

     site n.     atom                  positions (alat units)
         1           Si  tau(   1) = (   0.0000000   0.0000000   0.0000000  )
         2           Si  tau(   2) = (   0.2500000   0.2500000   0.2500000  )

     number of k points=    10
                       cart. coord. in units 2pi/alat
        k(    1) = (   0.1250000   0.1250000   0.1250000), wk =   0.0625000
        k(    2) = (   0.1250000   0.1250000   0.3750000), wk =   0.1875000
        k(    3) = (   0.1250000   0.1250000   0.6250000), wk =   0.1875000
        k(    4) = (   0.1250000   0.1250000   0.8750000), wk =   0.1875000
        k(    5) = (   0.1250000   0.3750000   0.3750000), wk =   0.1875000
        k(    6) = (   0.1250000   0.3750000   0.6250000), wk =   0.3750000
        k(    7) = (   0.1250000   0.3750000   0.8750000), wk =   0.3750000
        k(    8) = (   0.1250000   0.6250000   0.6250000), wk =   0.1875000
        k(    9) = (   0.3750000   0.3750000   0.3750000), wk =   0.0625000
        k(   10) = (   0.3750000   0.3750000   0.6250000), wk =   0.1875000

     Dense  grid:     1459 G-vectors     FFT dimensions: (  15,  15,  15)

     Largest allocated arrays     est. size (Mb)     dimensions
        Kohn-Sham Wavefunctions         0.02 Mb     (    192,    8)
        NL pseudopotentials             0.02 Mb     (    192,    8)
        Each V/rho on FFT grid          0.05 Mb     (   3375)
        Each G-vector array             0.01 Mb     (   1459)
        G-vector shells                 0.00 Mb     (     43)
     Largest temporary arrays     est. size (Mb)     dimensions
        Auxiliary wavefunctions         0.09 Mb     (    192,   32)
        Each subspace H/S matrix        0.02 Mb     (  32,  32)
        Each <psi_i|beta_j> matrix      0.00 Mb     (      8,    8)
        Arrays for rho mixing           0.41 Mb     (   3375,   8)

     Initial potential from superposition of free atoms

     starting charge    7.99901, renormalised to    8.00000
     Starting wfc are    8 randomized atomic wfcs

     total cpu time spent up to now is        0.1 secs

     per-process dynamical memory:     1.2 Mb

     Self-consistent Calculation

     iteration #  1     ecut=    12.00 Ry     beta=0.70
     Davidson diagonalization with overlap
     ethr =  1.00E-02,  avg # of iterations =  3.8

     Threshold (ethr) on eigenvalues was too large:
     Diagonalizing with lowered threshold

     Davidson diagonalization with overlap
     ethr =  8.07E-04,  avg # of iterations =  1.0

     total cpu time spent up to now is        0.1 secs

     total energy              =     -15.82340308 Ry
     Harris-Foulkes estimate   =     -15.83974490 Ry
     estimated scf accuracy    <       0.06415499 Ry

     iteration #  2     ecut=    12.00 Ry     beta=0.70
     Davidson diagonalization with overlap
     ethr =  8.02E-04,  avg # of iterations =  1.0

     total cpu time spent up to now is        0.2 secs

     total energy              =     -15.82634536 Ry
     Harris-Foulkes estimate   =     -15.82635445 Ry
     estimated scf accuracy    <       0.00228139 Ry

     iteration #  3     ecut=    12.00 Ry     beta=0.70
     Davidson diagonalization with overlap
     ethr =  2.85E-05,  avg # of iterations =  1.9

     total cpu time spent up to now is        0.2 secs

     total energy              =     -15.82644717 Ry
     Harris-Foulkes estimate   =     -15.82643482 Ry
     estimated scf accuracy    <       0.00004970 Ry

     iteration #  4     ecut=    12.00 Ry     beta=0.70
     Davidson diagonalization with overlap
     ethr =  6.21E-07,  avg # of iterations =  2.5

     total cpu time spent up to now is        0.2 secs

     End of self-consistent calculation

          k = 0.1250 0.1250 0.1250 (   172 PWs)   bands (ev):

    -5.4476   4.7282   5.9961   5.9961   8.9449   9.3568   9.3568  11.1864

          k = 0.1250 0.1250 0.3750 (   180 PWs)   bands (ev):

    -4.9211   3.1160   4.9391   5.0502   8.5385  10.1246  10.8747  11.2285

          k = 0.1250 0.1250 0.6250 (   186 PWs)   bands (ev):

    -3.8637   1.4055   3.5835   4.0275   7.7542   9.3314  12.4143  12.7127

          k = 0.1250 0.1250 0.8750 (   192 PWs)   bands (ev):

    -2.3517  -0.4976   2.7928   3.5449   7.2968   8.3741  14.7162  14.7745

          k = 0.1250 0.3750 0.3750 (   187 PWs)   bands (ev):

    -4.4109   1.6834   3.9583   5.4867   9.1322  10.0722  10.2721  12.7293

          k = 0.1250 0.3750 0.6250 (   188 PWs)   bands (ev):

    -3.4332   0.4714   2.9371   4.3206   9.2854   9.9751  11.4585  12.3758

          k = 0.1250 0.3750 0.8750 (   189 PWs)   bands (ev):

    -2.1680  -0.5990   2.1708   3.2760   8.7959  10.7115  11.7004  13.8811

          k = 0.1250 0.6250 0.6250 (   184 PWs)   bands (ev):

    -2.6946  -0.3359   2.2539   4.3555   8.2625  11.9049  11.9153  13.4108

          k = 0.3750 0.3750 0.3750 (   183 PWs)   bands (ev):

    -3.9476   0.3457   5.1681   5.1681   8.1196   9.8727   9.8727  14.3023

          k = 0.3750 0.3750 0.6250 (   182 PWs)   bands (ev):

    -3.2022  -0.4691   3.9980   4.6816   8.6289   9.9414  10.5367  13.8202

     highest occupied, lowest unoccupied level (ev):     5.9961    7.2968
     EXX: now go back to refine exchange calculation
  -1.69270221977577     

     Self-consistent Calculation

     iteration #  1     ecut=    12.00 Ry     beta=0.70
     Davidson diagonalization with overlap
     ethr =  6.21E-07,  avg # of iterations =  3.6

     total cpu time spent up to now is        4.2 secs

     total energy              =     -15.84129192 Ry
     Harris-Foulkes estimate   =     -15.84129260 Ry
     estimated scf accuracy    <       0.00004042 Ry

     iteration #  2     ecut=    12.00 Ry     beta=0.70
     Davidson diagonalization with overlap
     ethr =  5.05E-07,  avg # of iterations =  1.0

     total cpu time spent up to now is        6.2 secs

     total energy              =     -15.84129286 Ry
     Harris-Foulkes estimate   =     -15.84129251 Ry
     estimated scf accuracy    <       0.00000308 Ry

     iteration #  3     ecut=    12.00 Ry     beta=0.70
     Davidson diagonalization with overlap
     ethr =  3.85E-08,  avg # of iterations =  1.0

     total cpu time spent up to now is        8.1 secs

     End of self-consistent calculation

          k = 0.1250 0.1250 0.1250 (   172 PWs)   bands (ev):

    -7.1114   4.0907   5.3801   5.3801   9.4938   9.8350   9.8350  11.8917

          k = 0.1250 0.1250 0.3750 (   180 PWs)   bands (ev):

    -6.5507   2.4561   4.2808   4.4674   8.9768  10.6991  11.4138  11.7563

          k = 0.1250 0.1250 0.6250 (   186 PWs)   bands (ev):

    -5.4408   0.6887   2.9431   3.3355   8.1509   9.7850  13.0200  13.2900

          k = 0.1250 0.1250 0.8750 (   192 PWs)   bands (ev):

    -3.7413  -1.4933   2.0966   2.8233   7.6818   8.7872  15.3817  15.4720

          k = 0.1250 0.3750 0.3750 (   187 PWs)   bands (ev):

    -6.0151   0.9605   3.2992   4.8996   9.6816  10.5418  10.7839  13.3236

          k = 0.1250 0.3750 0.6250 (   188 PWs)   bands (ev):

    -4.9256  -0.4150   2.2662   3.6892   9.7367  10.4717  11.9682  12.9671

          k = 0.1250 0.3750 0.8750 (   189 PWs)   bands (ev):

    -3.4784  -1.6908   1.5073   2.5867   9.2245  11.1677  12.2490  14.5091

          k = 0.1250 0.6250 0.6250 (   184 PWs)   bands (ev):

    -4.0547  -1.3614   1.5898   3.6925   8.7042  12.4523  12.4669  14.0168

          k = 0.3750 0.3750 0.3750 (   183 PWs)   bands (ev):

    -5.5328  -0.4506   4.5313   4.5313   8.6359  10.3733  10.3733  14.9253

          k = 0.3750 0.3750 0.6250 (   182 PWs)   bands (ev):

    -4.6334  -1.4629   3.3461   4.0020   9.0929  10.4704  11.0542  14.4057

     highest occupied, lowest unoccupied level (ev):     5.3801    7.6818
  -1.69270221977577       -1.69404258984651       -1.69553061224261     
     est. exchange err (dexx)  =       0.00007383 Ry

!    total energy              =     -15.84136676 Ry
     Harris-Foulkes estimate   =     -15.84136675 Ry
     estimated scf accuracy    <          8.8E-09 Ry

     The total energy is the sum of the following terms:

     one-electron contribution =       3.12123857 Ry
     hartree contribution      =       1.09684313 Ry
     xc contribution           =      -4.00596717 Ry
     ewald contribution        =     -16.89975858 Ry
     - averaged Fock potential =       1.69404259 Ry
     + Fock energy             =      -0.84776531 Ry
  NOW GO BACK TO REFINE HYBRID CALCULATION

     Self-consistent Calculation

     iteration #  1     ecut=    12.00 Ry     beta=0.70
     Davidson diagonalization with overlap
     ethr =  3.85E-08,  avg # of iterations =  3.0

     total cpu time spent up to now is       11.2 secs

     End of self-consistent calculation

          k = 0.1250 0.1250 0.1250 (   172 PWs)   bands (ev):

    -7.1096   4.0853   5.3612   5.3612   9.5083   9.8441   9.8441  11.8979

          k = 0.1250 0.1250 0.3750 (   180 PWs)   bands (ev):

    -6.5482   2.4564   4.2704   4.4614   8.9855  10.7066  11.4163  11.7592

          k = 0.1250 0.1250 0.6250 (   186 PWs)   bands (ev):

    -5.4391   0.6899   2.9413   3.3273   8.1595   9.7888  13.0219  13.2886

          k = 0.1250 0.1250 0.8750 (   192 PWs)   bands (ev):

    -3.7430  -1.4957   2.0955   2.8142   7.6921   8.7905  15.3808  15.4736

          k = 0.1250 0.3750 0.3750 (   187 PWs)   bands (ev):

    -6.0126   0.9611   3.2952   4.8870   9.6941  10.5467  10.7879  13.3273

          k = 0.1250 0.3750 0.6250 (   188 PWs)   bands (ev):

    -4.9233  -0.4155   2.2659   3.6839   9.7408  10.4748  11.9693  12.9672

          k = 0.1250 0.3750 0.8750 (   189 PWs)   bands (ev):

    -3.4772  -1.6912   1.5082   2.5836   9.2277  11.1673  12.2504  14.5112

          k = 0.1250 0.6250 0.6250 (   184 PWs)   bands (ev):

    -4.0539  -1.3622   1.5912   3.6830   8.7148  12.4531  12.4680  14.0195

          k = 0.3750 0.3750 0.3750 (   183 PWs)   bands (ev):

    -5.5330  -0.4498   4.5154   4.5154   8.6494  10.3831  10.3831  14.9324

          k = 0.3750 0.3750 0.6250 (   182 PWs)   bands (ev):

    -4.6339  -1.4645   3.3433   3.9895   9.1028  10.4739  11.0569  14.4068

     highest occupied, lowest unoccupied level (ev):     5.3612    7.6921
  -1.69553061224261       -1.69578918310395       -1.69604971014375     
     est. exchange err (dexx)  =       0.00000098 Ry

!    total energy              =     -15.84137495 Ry
     Harris-Foulkes estimate   =     -15.84137522 Ry
     estimated scf accuracy    <       0.00000074 Ry

     The total energy is the sum of the following terms:

     one-electron contribution =       3.11912713 Ry
     hartree contribution      =       1.09774854 Ry
     xc contribution           =      -4.00625638 Ry
     ewald contribution        =     -16.89975858 Ry
     - averaged Fock potential =       1.69578918 Ry
     + Fock energy             =      -0.84802486 Ry

     convergence has been achieved in   1 iterations


     entering subroutine stress ...

          total   stress  (Ry/bohr**3)                   (kbar)     P=  -21.32
  -0.00014490   0.00000000   0.00000000        -21.32      0.00      0.00
   0.00000000  -0.00014490   0.00000000          0.00    -21.32      0.00
   0.00000000   0.00000000  -0.00014490          0.00      0.00    -21.32


     Writing output data file pwscf.save
 
     init_run     :      0.03s CPU      0.04s WALL (       1 calls)
     electrons    :     11.06s CPU     11.60s WALL (       1 calls)
     stress       :      0.47s CPU      0.56s WALL (       1 calls)

     Called by init_run:
     wfcinit      :      0.01s CPU      0.01s WALL (       1 calls)
     potinit      :      0.00s CPU      0.00s WALL (       1 calls)

     Called by electrons:
     c_bands      :      7.73s CPU      8.11s WALL (       9 calls)
     sum_band     :      0.05s CPU      0.04s WALL (       9 calls)
     v_of_rho     :      0.04s CPU      0.05s WALL (      10 calls)
     mix_rho      :      0.00s CPU      0.00s WALL (       9 calls)

     Called by c_bands:
     init_us_2    :      0.01s CPU      0.01s WALL (     200 calls)
     cegterg      :      7.72s CPU      8.10s WALL (      90 calls)

     Called by *egterg:
     h_psi        :      7.64s CPU      8.00s WALL (     288 calls)
     g_psi        :      0.00s CPU      0.01s WALL (     188 calls)
     cdiaghg      :      0.05s CPU      0.05s WALL (     248 calls)

     Called by h_psi:
     add_vuspsi   :      0.01s CPU      0.00s WALL (     288 calls)

     General routines
     calbec       :      0.00s CPU      0.01s WALL (     298 calls)
     fft          :      0.01s CPU      0.01s WALL (     112 calls)
     ffts         :      4.62s CPU      5.08s WALL (   75840 calls)
     fftw         :      0.27s CPU      0.24s WALL (    7156 calls)
     davcio       :      0.02s CPU      0.01s WALL (     400 calls)
 
     EXX routines
     exx_grid     :      0.00s CPU      0.00s WALL (       1 calls)
     exxinit      :      0.12s CPU      0.14s WALL (       3 calls)
     vexx         :      7.48s CPU      7.83s WALL (     126 calls)
     exxen2       :      3.11s CPU      3.25s WALL (       7 calls)
 
     PWSCF        :    11.64s CPU        12.28s WALL

 
   This run was terminated on:  22:26:25  29Nov2012            

=------------------------------------------------------------------------------=
   JOB DONE.
=------------------------------------------------------------------------------=
