
     Program PWSCF v.4.99       starts on  6Jan2012 at 10:24:12 

     This program is part of the open-source Quantum ESPRESSO suite
     for quantum simulation of materials; please cite
         "P. Giannozzi et al., J. Phys.:Condens. Matter 21 395502 (2009);
          URL http://www.quantum-espresso.org", 
     in publications or presentations arising from this work. More details at
     http://www.quantum-espresso.org/quote.php

     Serial version

     Current dimensions of program PWSCF are:
     Max number of different atomic species (ntypx) = 10
     Max number of k-points (npk) =  40000
     Max angular momentum in pseudopotentials (lmaxx) =  3
     Reading input from /home/giannozz/trunk/espresso/tests/lda+U-user_ns.in
               file O.pz-rrkjus.UPF: wavefunction(s)  2S renormalized
               file Fe.pz-nd-rrkjus.UPF: wavefunction(s)  4S renormalized
               file Fe.pz-nd-rrkjus.UPF: wavefunction(s)  4S renormalized
 
     G-vector sticks info
     --------------------
     sticks:   dense  smooth     PW     G-vecs:    dense   smooth      PW
     Sum        1061     539    163                17255     6111    1081
 


     bravais-lattice index     =            0
     lattice parameter (alat)  =       8.1900  a.u.
     unit-cell volume          =     274.6766 (a.u.)^3
     number of atoms/cell      =            4
     number of atomic types    =            3
     number of electrons       =        28.00
     number of Kohn-Sham states=           20
     kinetic-energy cutoff     =      30.0000  Ry
     charge density cutoff     =     240.0000  Ry
     convergence threshold     =      1.0E-06
     mixing beta               =       0.3000
     number of iterations used =            8  plain     mixing
     Exchange-correlation      =  SLA  PZ   NOGX NOGC ( 1 1 0 0 0)
     EXX-fraction              =        0.00

     celldm(1)=   8.190000  celldm(2)=   0.000000  celldm(3)=   0.000000
     celldm(4)=   0.000000  celldm(5)=   0.000000  celldm(6)=   0.000000

     crystal axes: (cart. coord. in units of alat)
               a(1) = (   0.500000   0.500000   1.000000 )  
               a(2) = (   0.500000   1.000000   0.500000 )  
               a(3) = (   1.000000   0.500000   0.500000 )  

     reciprocal axes: (cart. coord. in units 2 pi/alat)
               b(1) = ( -0.500000 -0.500000  1.500000 )  
               b(2) = ( -0.500000  1.500000 -0.500000 )  
               b(3) = (  1.500000 -0.500000 -0.500000 )  


     PseudoPot. # 1 for O  read from file:
     /home/giannozz/trunk/espresso/pseudo/O.pz-rrkjus.UPF
     MD5 check sum: 24fb942a68ef5d262e498166c462ef4a
     Pseudo is Ultrasoft, Zval =  6.0
     Generated by new atomic code, or converted to UPF format
     Using radial grid of 1269 points,  4 beta functions with: 
                l(1) =   0
                l(2) =   0
                l(3) =   1
                l(4) =   1
     Q(r) pseudized with 0 coefficients 


     PseudoPot. # 2 for Fe read from file:
     /home/giannozz/trunk/espresso/pseudo/Fe.pz-nd-rrkjus.UPF
     MD5 check sum: 2e083728ad07023434bc1cc596eb954d
     Pseudo is Ultrasoft + core correction, Zval =  8.0
     Generated by new atomic code, or converted to UPF format
     Using radial grid of  957 points,  6 beta functions with: 
                l(1) =   0
                l(2) =   0
                l(3) =   1
                l(4) =   1
                l(5) =   2
                l(6) =   2
     Q(r) pseudized with 0 coefficients 


     PseudoPot. # 3 for Fe read from file:
     /home/giannozz/trunk/espresso/pseudo/Fe.pz-nd-rrkjus.UPF
     MD5 check sum: 2e083728ad07023434bc1cc596eb954d
     Pseudo is Ultrasoft + core correction, Zval =  8.0
     Generated by new atomic code, or converted to UPF format
     Using radial grid of  957 points,  6 beta functions with: 
                l(1) =   0
                l(2) =   0
                l(3) =   1
                l(4) =   1
                l(5) =   2
                l(6) =   2
     Q(r) pseudized with 0 coefficients 


     atomic species   valence    mass     pseudopotential
        O1             6.00     1.00000     O ( 1.00)
        Fe1            8.00     1.00000     Fe( 1.00)
        Fe2            8.00     1.00000     Fe( 1.00)

     Starting magnetic structure 
     atomic species   magnetization
        O1           0.000
        Fe1          0.500
        Fe2         -0.500

     LDA+U calculation, Hubbard_lmax = 2
     atomic species  L   Hubbard U  Hubbard alpha
        Fe1          2    0.316044    0.000000
        Fe2          2    0.316044    0.000000

     12 Sym. Ops., with inversion, found



   Cartesian axes

     site n.     atom                  positions (alat units)
         1           O1  tau(   1) = (   0.5000000   0.5000000   0.5000000  )
         2           O1  tau(   2) = (   1.5000000   1.5000000   1.5000000  )
         3           Fe1 tau(   3) = (   0.0000000   0.0000000   0.0000000  )
         4           Fe2 tau(   4) = (   1.0000000   1.0000000   1.0000000  )

     number of k points=     8  gaussian smearing, width (Ry)=  0.0100
                       cart. coord. in units 2pi/alat
        k(    1) = (   0.0000000   0.0000000   0.0000000), wk =   0.1250000
        k(    2) = (  -0.7500000   0.2500000   0.2500000), wk =   0.3750000
        k(    3) = (  -0.5000000  -0.5000000   0.5000000), wk =   0.3750000
        k(    4) = (  -0.2500000  -0.2500000  -0.2500000), wk =   0.1250000
        k(    5) = (   0.0000000   0.0000000   0.0000000), wk =   0.1250000
        k(    6) = (  -0.7500000   0.2500000   0.2500000), wk =   0.3750000
        k(    7) = (  -0.5000000  -0.5000000   0.5000000), wk =   0.3750000
        k(    8) = (  -0.2500000  -0.2500000  -0.2500000), wk =   0.1250000

     Dense  grid:    17255 G-vectors     FFT dimensions: (  50,  50,  50)

     Smooth grid:     6111 G-vectors     FFT dimensions: (  36,  36,  36)

     Largest allocated arrays     est. size (Mb)     dimensions
        Kohn-Sham Wavefunctions         0.24 Mb     (    780,   20)
        Atomic wavefunctions            0.24 Mb     (    780,   20)
        NL pseudopotentials             0.62 Mb     (    780,   52)
        Each V/rho on FFT grid          3.81 Mb     ( 125000,   2)
        Each G-vector array             0.13 Mb     (  17255)
        G-vector shells                 0.00 Mb     (    342)
     Largest temporary arrays     est. size (Mb)     dimensions
        Auxiliary wavefunctions         0.95 Mb     (    780,   80)
        Each subspace H/S matrix        0.10 Mb     (  80,  80)
        Each <psi_i|beta_j> matrix      0.02 Mb     (     52,   20)
        Arrays for rho mixing          15.26 Mb     ( 125000,   8)

     Check: negative/imaginary core charge=   -0.000003    0.000000

     Initial potential from superposition of free atoms

     starting charge   27.99905, renormalised to   28.00000

     Parameters of the lda+U calculation:
     Number of iteration with fixed ns =  0
     Starting ns and Hubbard U :
 enter write_ns
U( 1) =  0.0000      U( 2) =  4.3000      U( 3) =  4.3000
alpha( 1) =  0.0000      alpha( 2) =  0.0000      alpha( 3) =  0.0000
atom    3   Tr[ns(na)]=   6.0000000
atom    3   spin  1
eigenvalues:  1.0000000 1.0000000 1.0000000 1.0000000 1.0000000
 eigenvectors
 1   1.0000000  0.0000000  0.0000000  0.0000000  0.0000000
 2   0.0000000  1.0000000  0.0000000  0.0000000  0.0000000
 3   0.0000000  0.0000000  1.0000000  0.0000000  0.0000000
 4   0.0000000  0.0000000  0.0000000  1.0000000  0.0000000
 5   0.0000000  0.0000000  0.0000000  0.0000000  1.0000000
 occupations
 1.000  0.000  0.000  0.000  0.000
 0.000  1.000  0.000  0.000  0.000
 0.000  0.000  1.000  0.000  0.000
 0.000  0.000  0.000  1.000  0.000
 0.000  0.000  0.000  0.000  1.000
atom    3   spin  2
eigenvalues:  0.2000000 0.2000000 0.2000000 0.2000000 0.2000000
 eigenvectors
 1   1.0000000  0.0000000  0.0000000  0.0000000  0.0000000
 2   0.0000000  1.0000000  0.0000000  0.0000000  0.0000000
 3   0.0000000  0.0000000  1.0000000  0.0000000  0.0000000
 4   0.0000000  0.0000000  0.0000000  1.0000000  0.0000000
 5   0.0000000  0.0000000  0.0000000  0.0000000  1.0000000
 occupations
 0.200  0.000  0.000  0.000  0.000
 0.000  0.200  0.000  0.000  0.000
 0.000  0.000  0.200  0.000  0.000
 0.000  0.000  0.000  0.200  0.000
 0.000  0.000  0.000  0.000  0.200
atom    4   Tr[ns(na)]=   6.0000000
atom    4   spin  1
eigenvalues:  0.2000000 0.2000000 0.2000000 0.2000000 0.2000000
 eigenvectors
 1   1.0000000  0.0000000  0.0000000  0.0000000  0.0000000
 2   0.0000000  1.0000000  0.0000000  0.0000000  0.0000000
 3   0.0000000  0.0000000  1.0000000  0.0000000  0.0000000
 4   0.0000000  0.0000000  0.0000000  1.0000000  0.0000000
 5   0.0000000  0.0000000  0.0000000  0.0000000  1.0000000
 occupations
 0.200  0.000  0.000  0.000  0.000
 0.000  0.200  0.000  0.000  0.000
 0.000  0.000  0.200  0.000  0.000
 0.000  0.000  0.000  0.200  0.000
 0.000  0.000  0.000  0.000  0.200
atom    4   spin  2
eigenvalues:  1.0000000 1.0000000 1.0000000 1.0000000 1.0000000
 eigenvectors
 1   1.0000000  0.0000000  0.0000000  0.0000000  0.0000000
 2   0.0000000  1.0000000  0.0000000  0.0000000  0.0000000
 3   0.0000000  0.0000000  1.0000000  0.0000000  0.0000000
 4   0.0000000  0.0000000  0.0000000  1.0000000  0.0000000
 5   0.0000000  0.0000000  0.0000000  0.0000000  1.0000000
 occupations
 1.000  0.000  0.000  0.000  0.000
 0.000  1.000  0.000  0.000  0.000
 0.000  0.000  1.000  0.000  0.000
 0.000  0.000  0.000  1.000  0.000
 0.000  0.000  0.000  0.000  1.000
nsum =  12.0000000
 exit write_ns
 Atomic wfc used for LDA+U Projector are NOT orthogonalized
     Starting wfc are   20 randomized atomic wfcs

     total cpu time spent up to now is        2.4 secs

     per-process dynamical memory:    35.5 Mb

     Self-consistent Calculation

     iteration #  1     ecut=    30.00 Ry     beta=0.30
     Davidson diagonalization with overlap
     ethr =  1.00E-02,  avg # of iterations =  2.4
 enter write_ns
U( 1) =  0.0000      U( 2) =  4.3000      U( 3) =  4.3000
alpha( 1) =  0.0000      alpha( 2) =  0.0000      alpha( 3) =  0.0000
atom    3   Tr[ns(na)]=   6.1236738
atom    3   spin  1
eigenvalues:  0.9970989 0.9970989 1.0025910 1.0025910 1.0030644
 eigenvectors
 1  -0.3789127 -0.2579907  0.4910036  0.7031973  0.2330128
 2  -0.7031973  0.4180111  0.0144210 -0.3789127  0.4324321
 3  -0.4388606 -0.6242316  0.1484642 -0.4115095 -0.4757673
 4   0.4115095 -0.1889685  0.6350847 -0.4388606  0.4461161
 5   0.0000000  0.5773503  0.5773503  0.0000000 -0.5773503
 occupations
 0.999  0.001  0.001  0.000  0.002
 0.001  1.001  0.001  0.002 -0.001
 0.001  0.001  1.001 -0.002 -0.001
 0.000  0.002 -0.002  0.999  0.000
 0.002 -0.001 -0.001  0.000  1.001
atom    3   spin  2
eigenvalues:  0.1554230 0.1554230 0.2572383 0.2765727 0.2765727
 eigenvectors
 1   0.2412029 -0.0515430  0.0688967 -0.9664971  0.0173537
 2  -0.9664971 -0.0497967 -0.0197392 -0.2412029 -0.0695359
 3   0.0000000  0.5773503  0.5773503  0.0000000 -0.5773503
 4   0.0636250  0.1904648 -0.7800244 -0.0604686 -0.5895596
 5  -0.0604686  0.7907297 -0.2304175 -0.0636250  0.5603122
 occupations
 0.156 -0.004 -0.004  0.000 -0.009
-0.004  0.270 -0.006 -0.007  0.006
-0.004 -0.006  0.270  0.007  0.006
 0.000 -0.007  0.007  0.156  0.000
-0.009  0.006  0.006  0.000  0.270
atom    4   Tr[ns(na)]=   6.1234246
atom    4   spin  1
eigenvalues:  0.1554052 0.1554052 0.2569412 0.2766731 0.2766731
 eigenvectors
 1   0.0647646 -0.0595231  0.0641761 -0.9940434  0.0046531
 2  -0.9940434 -0.0397385 -0.0316792 -0.0647646 -0.0714178
 3   0.0000000  0.5773503  0.5773503  0.0000000 -0.5773503
 4   0.0775556 -0.0315929 -0.6880571 -0.0408453 -0.7196500
 5   0.0408453 -0.8127401  0.4337303  0.0775556 -0.3790098
 occupations
 0.156 -0.004 -0.004  0.000 -0.009
-0.004  0.269 -0.006 -0.007  0.006
-0.004 -0.006  0.269  0.007  0.006
 0.000 -0.007  0.007  0.156  0.000
-0.009  0.006  0.006  0.000  0.269
atom    4   spin  2
eigenvalues:  0.9970655 0.9970655 1.0025690 1.0025690 1.0030580
 eigenvectors
 1  -0.3563734 -0.2705816  0.4884999  0.7167029  0.2179184
 2  -0.7167029  0.4078508  0.0304051 -0.3563734  0.4382559
 3  -0.4526410 -0.6178044  0.1243193 -0.3930027 -0.4934850
 4  -0.3930027  0.2131379 -0.6416032  0.4526410 -0.4284653
 5   0.0000000  0.5773503  0.5773503  0.0000000 -0.5773503
 occupations
 0.999  0.001  0.001  0.000  0.002
 0.001  1.001  0.001  0.002 -0.001
 0.001  0.001  1.001 -0.002 -0.001
 0.000  0.002 -0.002  0.999  0.000
 0.002 -0.001 -0.001  0.000  1.001
nsum =  12.2470983
 exit write_ns
 Modify starting ns matrices according to input values 
 enter write_ns
U( 1) =  0.0000      U( 2) =  4.3000      U( 3) =  4.3000
alpha( 1) =  0.0000      alpha( 2) =  0.0000      alpha( 3) =  0.0000
atom    3   Tr[ns(na)]=   6.8664354
atom    3   spin  1
eigenvalues:  0.9970989 0.9970989 1.0025910 1.0025910 1.0030644
 eigenvectors
 1  -0.4223040 -0.2312442  0.4909406  0.6780270  0.2596964
 2  -0.6780270  0.4333805 -0.0164269 -0.4223040  0.4169536
 3  -0.4933685 -0.5906553  0.0557962 -0.3442764 -0.5348592
 4  -0.3442764  0.2765872 -0.6498161  0.4933685 -0.3732289
 5   0.0000000  0.5773503  0.5773503  0.0000000 -0.5773503
 occupations
 0.999  0.001  0.001  0.000  0.002
 0.001  1.001  0.001  0.002 -0.001
 0.001  0.001  1.001 -0.002 -0.001
 0.000  0.002 -0.002  0.999  0.000
 0.002 -0.001 -0.001  0.000  1.001
atom    3   spin  2
eigenvalues:  0.1554230 0.1554230 0.2765727 0.2765727 1.0000000
 eigenvectors
 1   0.3118757 -0.0477273  0.0701656 -0.9460597  0.0224383
 2  -0.9460597 -0.0534649 -0.0146006 -0.3118757 -0.0680655
 3   0.0565833  0.2763353 -0.8006454 -0.0671038 -0.5243102
 4   0.0671038 -0.7649635  0.1431684  0.0565833 -0.6217951
 5   0.0000000 -0.5773503 -0.5773503  0.0000000  0.5773503
 occupations
 0.156 -0.004 -0.004  0.000 -0.009
-0.004  0.517  0.241 -0.007 -0.241
-0.004  0.241  0.517  0.007 -0.241
 0.000 -0.007  0.007  0.156  0.000
-0.009 -0.241 -0.241  0.000  0.517
atom    4   Tr[ns(na)]=   6.8664834
atom    4   spin  1
eigenvalues:  0.1554052 0.1554052 0.2766731 0.2766731 1.0000000
 eigenvectors
 1   0.1281670 -0.0568614  0.0660697 -0.9878715  0.0092082
 2  -0.9878715 -0.0434617 -0.0275126 -0.1281670 -0.0709743
 3  -0.0862909  0.2766136  0.5240919  0.0153982  0.8007055
 4  -0.0153982  0.7648722 -0.6219905 -0.0862909  0.1428817
 5   0.0000000 -0.5773503 -0.5773503  0.0000000  0.5773503
 occupations
 0.156 -0.004 -0.004  0.000 -0.009
-0.004  0.517  0.241 -0.007 -0.241
-0.004  0.241  0.517  0.007 -0.241
 0.000 -0.007  0.007  0.156  0.000
-0.009 -0.241 -0.241  0.000  0.517
atom    4   spin  2
eigenvalues:  0.9970655 0.9970655 1.0025690 1.0025690 1.0030580
 eigenvectors
 1  -0.3709244 -0.2622025  0.4890187  0.7092814  0.2268162
 2  -0.7092814  0.4132874  0.0204303 -0.3709244  0.4337177
 3  -0.4503659 -0.6190239  0.1280192 -0.3956078 -0.4910046
 4  -0.3956078  0.2095697 -0.6408753  0.4503659 -0.4313055
 5   0.0000000  0.5773503  0.5773503  0.0000000 -0.5773503
 occupations
 0.999  0.001  0.001  0.000  0.002
 0.001  1.001  0.001  0.002 -0.001
 0.001  0.001  1.001 -0.002 -0.001
 0.000  0.002 -0.002  0.999  0.000
 0.002 -0.001 -0.001  0.000  1.001
nsum =  13.7329189
 exit write_ns

     total cpu time spent up to now is        3.5 secs

     total energy              =    -174.07153699 Ry
     Harris-Foulkes estimate   =    -174.93549708 Ry
     estimated scf accuracy    <       2.39735328 Ry

     total magnetization       =     0.00 Bohr mag/cell
     absolute magnetization    =     8.53 Bohr mag/cell

     iteration #  2     ecut=    30.00 Ry     beta=0.30
     Davidson diagonalization with overlap
     ethr =  8.56E-03,  avg # of iterations =  2.2

     total cpu time spent up to now is        4.6 secs

     total energy              =    -174.49892747 Ry
     Harris-Foulkes estimate   =    -174.52899663 Ry
     estimated scf accuracy    <       0.27207227 Ry

     total magnetization       =     0.00 Bohr mag/cell
     absolute magnetization    =     7.16 Bohr mag/cell

     iteration #  3     ecut=    30.00 Ry     beta=0.30
     Davidson diagonalization with overlap
     ethr =  9.72E-04,  avg # of iterations =  2.5

     total cpu time spent up to now is        5.6 secs

     total energy              =    -174.52701987 Ry
     Harris-Foulkes estimate   =    -174.51778970 Ry
     estimated scf accuracy    <       0.09636570 Ry

     total magnetization       =     0.00 Bohr mag/cell
     absolute magnetization    =     7.33 Bohr mag/cell

     iteration #  4     ecut=    30.00 Ry     beta=0.30
     Davidson diagonalization with overlap
     ethr =  3.44E-04,  avg # of iterations =  2.0

     total cpu time spent up to now is        6.6 secs

     total energy              =    -174.53642354 Ry
     Harris-Foulkes estimate   =    -174.53660911 Ry
     estimated scf accuracy    <       0.00264565 Ry

     total magnetization       =     0.00 Bohr mag/cell
     absolute magnetization    =     7.34 Bohr mag/cell

     iteration #  5     ecut=    30.00 Ry     beta=0.30
     Davidson diagonalization with overlap
     ethr =  9.45E-06,  avg # of iterations =  3.0

     total cpu time spent up to now is        7.7 secs

     total energy              =    -174.53718200 Ry
     Harris-Foulkes estimate   =    -174.53699672 Ry
     estimated scf accuracy    <       0.00100954 Ry

     total magnetization       =     0.00 Bohr mag/cell
     absolute magnetization    =     7.32 Bohr mag/cell

     iteration #  6     ecut=    30.00 Ry     beta=0.30
     Davidson diagonalization with overlap
     ethr =  3.61E-06,  avg # of iterations =  2.0

     total cpu time spent up to now is        8.8 secs

     total energy              =    -174.53736480 Ry
     Harris-Foulkes estimate   =    -174.53736447 Ry
     estimated scf accuracy    <       0.00010845 Ry

     total magnetization       =     0.00 Bohr mag/cell
     absolute magnetization    =     7.31 Bohr mag/cell

     iteration #  7     ecut=    30.00 Ry     beta=0.30
     Davidson diagonalization with overlap
     ethr =  3.87E-07,  avg # of iterations =  3.6

     total cpu time spent up to now is        9.9 secs

     total energy              =    -174.53740628 Ry
     Harris-Foulkes estimate   =    -174.53739490 Ry
     estimated scf accuracy    <       0.00001496 Ry

     total magnetization       =     0.00 Bohr mag/cell
     absolute magnetization    =     7.32 Bohr mag/cell

     iteration #  8     ecut=    30.00 Ry     beta=0.30
     Davidson diagonalization with overlap
     ethr =  5.34E-08,  avg # of iterations =  3.1

     total cpu time spent up to now is       11.1 secs

     total energy              =    -174.53741373 Ry
     Harris-Foulkes estimate   =    -174.53741007 Ry
     estimated scf accuracy    <       0.00000276 Ry

     total magnetization       =     0.00 Bohr mag/cell
     absolute magnetization    =     7.32 Bohr mag/cell

     iteration #  9     ecut=    30.00 Ry     beta=0.30
     Davidson diagonalization with overlap
     ethr =  9.86E-09,  avg # of iterations =  2.4

     total cpu time spent up to now is       12.1 secs

     End of self-consistent calculation
 enter write_ns
U( 1) =  0.0000      U( 2) =  4.3000      U( 3) =  4.3000
alpha( 1) =  0.0000      alpha( 2) =  0.0000      alpha( 3) =  0.0000
atom    3   Tr[ns(na)]=   6.7660345
atom    3   spin  1
eigenvalues:  0.9940263 0.9940263 1.0012167 1.0012167 1.0019649
 eigenvectors
 1   0.3177347  0.1597430 -0.2416336 -0.8991295 -0.0818906
 2  -0.8991295  0.1867868  0.0449481 -0.3177347  0.2317349
 3   0.2618435  0.6712802  0.0060203  0.1484880  0.6773005
 4  -0.1484880  0.3945154 -0.7786034  0.2618435 -0.3840880
 5   0.0000000 -0.5773503 -0.5773503  0.0000000  0.5773503
 occupations
 0.995  0.001  0.001  0.000  0.002
 0.001  1.001  0.000  0.001  0.000
 0.001  0.000  1.001 -0.001  0.000
 0.000  0.001 -0.001  0.995  0.000
 0.002  0.000  0.000  0.000  1.001
atom    3   spin  2
eigenvalues:  0.1022322 0.1022322 0.2925567 0.2925567 0.9840056
 eigenvectors
 1   0.0664896  0.1879152 -0.7790371 -0.0627944 -0.5911219
 2   0.0627944 -0.7910617  0.2327915  0.0664896 -0.5582702
 3   0.0344421  0.0659210 -0.0633383  0.9952134  0.0025827
 4   0.9952134  0.0350773  0.0395507 -0.0344421  0.0746279
 5   0.0000000 -0.5773503 -0.5773503  0.0000000  0.5773503
 occupations
 0.291  0.007  0.007  0.000  0.014
 0.007  0.397  0.293  0.012 -0.293
 0.007  0.293  0.397 -0.012 -0.293
 0.000  0.012 -0.012  0.291  0.000
 0.014 -0.293 -0.293  0.000  0.397
atom    4   Tr[ns(na)]=   6.7660241
atom    4   spin  1
eigenvalues:  0.1022320 0.1022320 0.2925523 0.2925523 0.9840044
 eigenvectors
 1   0.0912926 -0.3639449 -0.4476910 -0.0054385 -0.8116360
 2  -0.0054385  0.7270728 -0.6787219 -0.0912926  0.0483508
 3   0.1522612  0.0696164 -0.0581989  0.9840999  0.0114175
 4  -0.9840999 -0.0270092 -0.0467850  0.1522612 -0.0737942
 5   0.0000000 -0.5773503 -0.5773503  0.0000000  0.5773503
 occupations
 0.291  0.007  0.007  0.000  0.014
 0.007  0.397  0.293  0.012 -0.293
 0.007  0.293  0.397 -0.012 -0.293
 0.000  0.012 -0.012  0.291  0.000
 0.014 -0.293 -0.293  0.000  0.397
atom    4   spin  2
eigenvalues:  0.9940260 0.9940260 1.0012169 1.0012169 1.0019653
 eigenvectors
 1  -0.2423836 -0.1746195  0.2370874  0.9223045  0.0624678
 2  -0.9223045  0.1729483  0.0647508 -0.2423836  0.2376991
 3   0.2472042  0.7044604 -0.0650032  0.1717402  0.6394572
 4   0.1717402 -0.3316612  0.7759112 -0.2472042  0.4442500
 5   0.0000000  0.5773503  0.5773503  0.0000000 -0.5773503
 occupations
 0.995  0.001  0.001  0.000  0.002
 0.001  1.001  0.000  0.001  0.000
 0.001  0.000  1.001 -0.001  0.000
 0.000  0.001 -0.001  0.995  0.000
 0.002  0.000  0.000  0.000  1.001
nsum =  13.5320585
 exit write_ns

 ------ SPIN UP ------------


          k = 0.0000 0.0000 0.0000 (   731 PWs)   bands (ev):

    -8.7181  -7.4674   1.4537   3.6647   3.6647   5.4888   5.4888   6.8732
     7.8284   7.8808   7.8808   8.4602   8.4602   9.8920  11.5965  12.5866
    12.5866  13.4555  13.4555  15.5164

          k =-0.7500 0.2500 0.2500 (   764 PWs)   bands (ev):

    -8.0104  -7.3302   2.4599   3.6248   4.1630   4.2257   5.5886   5.6547
     6.2710   6.5401   7.3465   8.7895   9.2131   9.4788  12.5151  12.7502
    13.3334  13.6655  17.3710  17.6645

          k =-0.5000-0.5000 0.5000 (   780 PWs)   bands (ev):

    -7.8301  -7.4830   1.8599   4.1300   4.1640   4.2158   5.6545   5.6827
     6.6626   6.6856   7.2422   8.6735   8.8899   9.7821  12.5728  12.8532
    13.7801  13.8685  15.3276  16.7000

          k =-0.2500-0.2500-0.2500 (   748 PWs)   bands (ev):

    -8.2020  -8.1490   3.4508   3.7652   3.7652   4.2985   5.5345   5.5345
     6.9751   6.9751   7.8691   9.4393   9.4393   9.5137  12.5355  12.5355
    13.1783  13.1783  14.1108  14.3872

 ------ SPIN DOWN ----------


          k = 0.0000 0.0000 0.0000 (   731 PWs)   bands (ev):

    -8.7181  -7.4674   1.4537   3.6648   3.6648   5.4889   5.4889   6.8733
     7.8284   7.8808   7.8808   8.4603   8.4603   9.8919  11.5965  12.5865
    12.5865  13.4554  13.4554  15.5164

          k =-0.7500 0.2500 0.2500 (   764 PWs)   bands (ev):

    -8.0104  -7.3302   2.4599   3.6249   4.1631   4.2256   5.5886   5.6549
     6.2712   6.5401   7.3467   8.7896   9.2132   9.4786  12.5150  12.7501
    13.3333  13.6654  17.3710  17.6645

          k =-0.5000-0.5000 0.5000 (   780 PWs)   bands (ev):

    -7.8301  -7.4830   1.8599   4.1301   4.1641   4.2158   5.6546   5.6828
     6.6625   6.6855   7.2424   8.6735   8.8900   9.7820  12.5727  12.8531
    13.7800  13.8683  15.3276  16.7000

          k =-0.2500-0.2500-0.2500 (   748 PWs)   bands (ev):

    -8.2020  -8.1490   3.4508   3.7653   3.7653   4.2985   5.5347   5.5347
     6.9751   6.9751   7.8692   9.4393   9.4393   9.5136  12.5354  12.5354
    13.1782  13.1782  14.1108  14.3873

     the Fermi energy is    10.7842 ev

!    total energy              =    -174.53741678 Ry
     Harris-Foulkes estimate   =    -174.53741447 Ry
     estimated scf accuracy    <       0.00000026 Ry

     The total energy is the sum of the following terms:

     one-electron contribution =       0.54107788 Ry
     hartree contribution      =      28.09015047 Ry
     xc contribution           =     -65.85551973 Ry
     ewald contribution        =    -137.50929535 Ry
     Hubbard energy            =       0.19616994 Ry
     smearing contrib. (-TS)   =       0.00000000 Ry

     total magnetization       =     0.00 Bohr mag/cell
     absolute magnetization    =     7.32 Bohr mag/cell

     convergence has been achieved in   9 iterations

     Writing output data file pwscf.save
 
     init_run     :      2.32s CPU      2.34s WALL (       1 calls)
     electrons    :      9.50s CPU      9.66s WALL (       1 calls)

     Called by init_run:
     wfcinit      :      0.23s CPU      0.24s WALL (       1 calls)
     potinit      :      0.09s CPU      0.09s WALL (       1 calls)

     Called by electrons:
     c_bands      :      5.06s CPU      5.11s WALL (       9 calls)
     sum_band     :      2.51s CPU      2.56s WALL (       9 calls)
     v_of_rho     :      0.42s CPU      0.43s WALL (      10 calls)
     newd         :      1.25s CPU      1.29s WALL (      10 calls)
     mix_rho      :      0.12s CPU      0.12s WALL (       9 calls)

     Called by c_bands:
     init_us_2    :      0.12s CPU      0.12s WALL (     160 calls)
     cegterg      :      4.78s CPU      4.82s WALL (      72 calls)

     Called by *egterg:
     h_psi        :      4.04s CPU      4.07s WALL (     266 calls)
     s_psi        :      0.15s CPU      0.14s WALL (     274 calls)
     g_psi        :      0.04s CPU      0.06s WALL (     186 calls)
     cdiaghg      :      0.32s CPU      0.27s WALL (     258 calls)

     Called by h_psi:
     add_vuspsi   :      0.14s CPU      0.16s WALL (     266 calls)

     General routines
     calbec       :      0.31s CPU      0.33s WALL (     684 calls)
     fft          :      0.37s CPU      0.35s WALL (     160 calls)
     ffts         :      0.02s CPU      0.03s WALL (      38 calls)
     fftw         :      3.10s CPU      3.19s WALL (    8400 calls)
     interpolate  :      0.15s CPU      0.16s WALL (      38 calls)
     davcio       :      0.00s CPU      0.05s WALL (     464 calls)
 
 
     PWSCF        :    11.98s CPU        12.23s WALL

 
   This run was terminated on:  10:24:25   6Jan2012            

=------------------------------------------------------------------------------=
   JOB DONE.
=------------------------------------------------------------------------------=
