
     Program PWSCF v.4.99       starts on  6Jan2012 at 11:21:54 

     This program is part of the open-source Quantum ESPRESSO suite
     for quantum simulation of materials; please cite
         "P. Giannozzi et al., J. Phys.:Condens. Matter 21 395502 (2009);
          URL http://www.quantum-espresso.org", 
     in publications or presentations arising from this work. More details at
     http://www.quantum-espresso.org/quote.php

     Serial version

     Current dimensions of program PWSCF are:
     Max number of different atomic species (ntypx) = 10
     Max number of k-points (npk) =  40000
     Max angular momentum in pseudopotentials (lmaxx) =  3
     Reading input from /home/giannozz/trunk/espresso/tests/paw-atom_lda.in

     gamma-point specific algorithms are used
 
     G-vector sticks info
     --------------------
     sticks:   dense  smooth     PW     G-vecs:    dense   smooth      PW
     Sum        2587    2587    649                86907    86907   10849
     Tot        1294    1294    325
 


     bravais-lattice index     =            2
     lattice parameter (alat)  =      25.0000  a.u.
     unit-cell volume          =    3906.2500 (a.u.)^3
     number of atoms/cell      =            1
     number of atomic types    =            1
     number of electrons       =         6.00
     number of Kohn-Sham states=            6
     kinetic-energy cutoff     =      30.0000  Ry
     charge density cutoff     =     120.0000  Ry
     convergence threshold     =      1.0E-06
     mixing beta               =       0.7000
     number of iterations used =            8  plain     mixing
     Exchange-correlation      =  SLA  PZ   NOGX NOGC ( 1 1 0 0 0)
     EXX-fraction              =        0.00

     celldm(1)=  25.000000  celldm(2)=   0.000000  celldm(3)=   0.000000
     celldm(4)=   0.000000  celldm(5)=   0.000000  celldm(6)=   0.000000

     crystal axes: (cart. coord. in units of alat)
               a(1) = (  -0.500000   0.000000   0.500000 )  
               a(2) = (   0.000000   0.500000   0.500000 )  
               a(3) = (  -0.500000   0.500000   0.000000 )  

     reciprocal axes: (cart. coord. in units 2 pi/alat)
               b(1) = ( -1.000000 -1.000000  1.000000 )  
               b(2) = (  1.000000  1.000000  1.000000 )  
               b(3) = ( -1.000000  1.000000 -1.000000 )  


     PseudoPot. # 1 for  O read from file:
     /home/giannozz/trunk/espresso/pseudo/O.pz-kjpaw.UPF
     MD5 check sum: bb913733245261b4623cea235e432065
     Pseudo is Projector augmented-wave + core cor, Zval =  6.0
     Generated using "atomic" code by A. Dal Corso (espresso distribution)
     Shape of augmentation charge: BESSEL
     Using radial grid of 1095 points,  4 beta functions with: 
                l(1) =   0
                l(2) =   0
                l(3) =   1
                l(4) =   1
     Q(r) pseudized with 0 coefficients 


     atomic species   valence    mass     pseudopotential
        O              6.00     1.00000      O( 1.00)

     48 Sym. Ops., with inversion, found



   Cartesian axes

     site n.     atom                  positions (alat units)
         1           O   tau(   1) = (   0.0000000   0.0000000   0.0000000  )

     number of k points=     1
                       cart. coord. in units 2pi/alat
        k(    1) = (   0.0000000   0.0000000   0.0000000), wk =   2.0000000

     Dense  grid:    43454 G-vectors     FFT dimensions: (  64,  64,  64)

     Occupations read from input 

        2.0000   1.3333   1.3333   1.3333   0.0000   0.0000

     Largest allocated arrays     est. size (Mb)     dimensions
        Kohn-Sham Wavefunctions         0.50 Mb     (   5425,    6)
        NL pseudopotentials             0.66 Mb     (   5425,    8)
        Each V/rho on FFT grid          4.00 Mb     ( 262144)
        Each G-vector array             0.33 Mb     (  43454)
        G-vector shells                 0.00 Mb     (    636)
     Largest temporary arrays     est. size (Mb)     dimensions
        Auxiliary wavefunctions         0.99 Mb     (   5425,   24)
        Each subspace H/S matrix        0.00 Mb     (  24,  24)
        Each <psi_i|beta_j> matrix      0.00 Mb     (      8,    6)
        Arrays for rho mixing          32.00 Mb     ( 262144,   8)

     Initial potential from superposition of free atoms
     Check: negative starting charge=   -0.015596

     starting charge    6.00000, renormalised to    6.00000

     negative rho (up, down):  0.156E-01 0.000E+00
     Starting wfc are    4 randomized atomic wfcs

     total cpu time spent up to now is        1.1 secs

     per-process dynamical memory:    35.7 Mb

     Self-consistent Calculation

     iteration #  1     ecut=    30.00 Ry     beta=0.70
     Davidson diagonalization with overlap
     ethr =  1.00E-02,  avg # of iterations =  5.0

     Threshold (ethr) on eigenvalues was too large:
     Diagonalizing with lowered threshold

     Davidson diagonalization with overlap
     ethr =  1.56E-07,  avg # of iterations = 19.0

     negative rho (up, down):  0.156E-01 0.000E+00

     total cpu time spent up to now is        2.2 secs

     total energy              =     -40.13459252 Ry
     Harris-Foulkes estimate   =     -40.13458585 Ry
     estimated scf accuracy    <       0.00000993 Ry

     iteration #  2     ecut=    30.00 Ry     beta=0.70
     Davidson diagonalization with overlap
     ethr =  1.65E-07,  avg # of iterations =  2.0

     negative rho (up, down):  0.156E-01 0.000E+00

     total cpu time spent up to now is        2.6 secs

     total energy              =     -40.13459647 Ry
     Harris-Foulkes estimate   =     -40.13459691 Ry
     estimated scf accuracy    <       0.00000279 Ry

     iteration #  3     ecut=    30.00 Ry     beta=0.70
     Davidson diagonalization with overlap
     ethr =  4.65E-08,  avg # of iterations =  2.0

     negative rho (up, down):  0.157E-01 0.000E+00

     total cpu time spent up to now is        2.9 secs

     End of self-consistent calculation

          k = 0.0000 0.0000 0.0000 (  5425 PWs)   bands (ev):

   -23.5476  -9.0387  -9.0387  -9.0387  -0.7522   1.7757

     highest occupied, lowest unoccupied level (ev):    -9.0387   -0.7522

!    total energy              =     -40.13459742 Ry
     Harris-Foulkes estimate   =     -40.13459701 Ry
     estimated scf accuracy    <       0.00000001 Ry

     total all-electron energy =      -148.934751 Ry

     The total energy is the sum of the following terms:

     one-electron contribution =     -38.76818298 Ry
     hartree contribution      =      20.83222753 Ry
     xc contribution           =      -6.33200302 Ry
     ewald contribution        =      -6.60220143 Ry
     one-center paw contrib.   =      -9.26443752 Ry

     convergence has been achieved in   3 iterations

     Writing output data file pwscf.save
 
     init_run     :      0.90s CPU      0.92s WALL (       1 calls)
     electrons    :      1.75s CPU      1.78s WALL (       1 calls)

     Called by init_run:
     wfcinit      :      0.06s CPU      0.06s WALL (       1 calls)
     potinit      :      0.08s CPU      0.09s WALL (       1 calls)

     Called by electrons:
     c_bands      :      0.98s CPU      0.98s WALL (       4 calls)
     sum_band     :      0.40s CPU      0.40s WALL (       4 calls)
     v_of_rho     :      0.15s CPU      0.16s WALL (       4 calls)
     newd         :      0.18s CPU      0.18s WALL (       4 calls)
     mix_rho      :      0.04s CPU      0.05s WALL (       4 calls)

     Called by c_bands:
     init_us_2    :      0.01s CPU      0.02s WALL (       9 calls)
     regterg      :      0.96s CPU      0.96s WALL (       4 calls)

     Called by *egterg:
     h_psi        :      0.92s CPU      0.93s WALL (      33 calls)
     s_psi        :      0.00s CPU      0.00s WALL (      33 calls)
     g_psi        :      0.01s CPU      0.01s WALL (      28 calls)
     rdiaghg      :      0.02s CPU      0.01s WALL (      31 calls)

     Called by h_psi:
     add_vuspsi   :      0.00s CPU      0.00s WALL (      33 calls)

     General routines
     calbec       :      0.01s CPU      0.01s WALL (      37 calls)
     fft          :      0.21s CPU      0.20s WALL (      26 calls)
     fftw         :      0.82s CPU      0.82s WALL (     118 calls)
     davcio       :      0.00s CPU      0.00s WALL (       3 calls)
 
 
     PAW routines
     PAW_pot      :      0.03s CPU      0.03s WALL (       4 calls)
     PAW_ddot     :      0.01s CPU      0.01s WALL (       6 calls)
     PAW_symme    :      0.00s CPU      0.00s WALL (       8 calls)
 
     PWSCF        :     2.94s CPU         3.03s WALL

 
   This run was terminated on:  11:21:57   6Jan2012            

=------------------------------------------------------------------------------=
   JOB DONE.
=------------------------------------------------------------------------------=
