
     Program PWSCF v.4.99       starts on  6Jan2012 at 11:21:57 

     This program is part of the open-source Quantum ESPRESSO suite
     for quantum simulation of materials; please cite
         "P. Giannozzi et al., J. Phys.:Condens. Matter 21 395502 (2009);
          URL http://www.quantum-espresso.org", 
     in publications or presentations arising from this work. More details at
     http://www.quantum-espresso.org/quote.php

     Serial version

     Current dimensions of program PWSCF are:
     Max number of different atomic species (ntypx) = 10
     Max number of k-points (npk) =  40000
     Max angular momentum in pseudopotentials (lmaxx) =  3
     Reading input from /home/giannozz/trunk/espresso/tests/paw-atom_spin.in

     gamma-point specific algorithms are used
 
     G-vector sticks info
     --------------------
     sticks:   dense  smooth     PW     G-vecs:    dense   smooth      PW
     Sum        2587    2587    649                86907    86907   10849
     Tot        1294    1294    325
 


     bravais-lattice index     =            2
     lattice parameter (alat)  =      25.0000  a.u.
     unit-cell volume          =    3906.2500 (a.u.)^3
     number of atoms/cell      =            1
     number of atomic types    =            1
     number of electrons       =         6.00
     number of Kohn-Sham states=            7
     kinetic-energy cutoff     =      30.0000  Ry
     charge density cutoff     =     120.0000  Ry
     convergence threshold     =      1.0E-06
     mixing beta               =       0.7000
     number of iterations used =            8  plain     mixing
     Exchange-correlation      =  SLA  PW   PBX  PBC ( 1 4 3 4 0)
     EXX-fraction              =        0.00

     celldm(1)=  25.000000  celldm(2)=   0.000000  celldm(3)=   0.000000
     celldm(4)=   0.000000  celldm(5)=   0.000000  celldm(6)=   0.000000

     crystal axes: (cart. coord. in units of alat)
               a(1) = (  -0.500000   0.000000   0.500000 )  
               a(2) = (   0.000000   0.500000   0.500000 )  
               a(3) = (  -0.500000   0.500000   0.000000 )  

     reciprocal axes: (cart. coord. in units 2 pi/alat)
               b(1) = ( -1.000000 -1.000000  1.000000 )  
               b(2) = (  1.000000  1.000000  1.000000 )  
               b(3) = ( -1.000000  1.000000 -1.000000 )  


     PseudoPot. # 1 for  O read from file:
     /home/giannozz/trunk/espresso/pseudo/O.pbe-kjpaw.UPF
     MD5 check sum: 90f4868982d1b5f8aada8373f3a0510a
     Pseudo is Projector augmented-wave + core cor, Zval =  6.0
     Generated using "atomic" code by A. Dal Corso (espresso distribution)
     Shape of augmentation charge: BESSEL
     Using radial grid of 1095 points,  4 beta functions with: 
                l(1) =   0
                l(2) =   0
                l(3) =   1
                l(4) =   1
     Q(r) pseudized with 0 coefficients 


     atomic species   valence    mass     pseudopotential
        O              6.00     1.00000      O( 1.00)

     Starting magnetic structure 
     atomic species   magnetization
        O            0.000

     No symmetry found



   Cartesian axes

     site n.     atom                  positions (alat units)
         1           O   tau(   1) = (   0.0000000   0.0000000   0.0000000  )

     number of k points=     2
                       cart. coord. in units 2pi/alat
        k(    1) = (   0.0000000   0.0000000   0.0000000), wk =   1.0000000
        k(    2) = (   0.0000000   0.0000000   0.0000000), wk =   1.0000000

     Dense  grid:    43454 G-vectors     FFT dimensions: (  64,  64,  64)

     Occupations read from input 

      Spin-up

        1.0000   1.0000   1.0000   1.0000   0.0000   0.0000   0.0000

      Spin-down

        1.0000   1.0000   0.0000   0.0000   0.0000   0.0000   0.0000

     Largest allocated arrays     est. size (Mb)     dimensions
        Kohn-Sham Wavefunctions         0.58 Mb     (   5425,    7)
        NL pseudopotentials             0.66 Mb     (   5425,    8)
        Each V/rho on FFT grid          8.00 Mb     ( 262144,   2)
        Each G-vector array             0.33 Mb     (  43454)
        G-vector shells                 0.00 Mb     (    636)
     Largest temporary arrays     est. size (Mb)     dimensions
        Auxiliary wavefunctions         1.16 Mb     (   5425,   28)
        Each subspace H/S matrix        0.01 Mb     (  28,  28)
        Each <psi_i|beta_j> matrix      0.00 Mb     (      8,    7)
        Arrays for rho mixing          32.00 Mb     ( 262144,   8)

     Initial potential from superposition of free atoms
     Check: negative starting charge=(component1):   -0.000870
     Check: negative starting charge=(component2):   -0.000870

     starting charge    6.00001, renormalised to    6.00000

     negative rho (up, down):  0.870E-03 0.870E-03
     Starting wfc are    4 randomized atomic wfcs

     total cpu time spent up to now is        1.8 secs

     per-process dynamical memory:    59.3 Mb

     Self-consistent Calculation

     iteration #  1     ecut=    30.00 Ry     beta=0.70
     Davidson diagonalization with overlap
     ethr =  1.00E-02,  avg # of iterations =  5.5

     negative rho (up, down):  0.133E-02 0.138E-02

     total cpu time spent up to now is        3.4 secs

     total energy              =     -41.23972817 Ry
     Harris-Foulkes estimate   =     -41.12659484 Ry
     estimated scf accuracy    <       0.13264910 Ry

     total magnetization       =     2.00 Bohr mag/cell
     absolute magnetization    =     2.01 Bohr mag/cell

     iteration #  2     ecut=    30.00 Ry     beta=0.70
     Davidson diagonalization with overlap
     ethr =  2.21E-03,  avg # of iterations =  1.0

     negative rho (up, down):  0.165E-02 0.207E-02

     total cpu time spent up to now is        4.7 secs

     total energy              =     -41.26326404 Ry
     Harris-Foulkes estimate   =     -41.24460665 Ry
     estimated scf accuracy    <       0.01327977 Ry

     total magnetization       =     2.00 Bohr mag/cell
     absolute magnetization    =     2.01 Bohr mag/cell

     iteration #  3     ecut=    30.00 Ry     beta=0.70
     Davidson diagonalization with overlap
     ethr =  2.21E-04,  avg # of iterations =  5.5

     negative rho (up, down):  0.168E-02 0.200E-02

     total cpu time spent up to now is        6.2 secs

     total energy              =     -41.26485237 Ry
     Harris-Foulkes estimate   =     -41.26488891 Ry
     estimated scf accuracy    <       0.00039000 Ry

     total magnetization       =     2.00 Bohr mag/cell
     absolute magnetization    =     2.02 Bohr mag/cell

     iteration #  4     ecut=    30.00 Ry     beta=0.70
     Davidson diagonalization with overlap
     ethr =  6.50E-06,  avg # of iterations = 15.5

     negative rho (up, down):  0.173E-02 0.195E-02

     total cpu time spent up to now is        8.1 secs

     total energy              =     -41.26499927 Ry
     Harris-Foulkes estimate   =     -41.26497531 Ry
     estimated scf accuracy    <       0.00005784 Ry

     total magnetization       =     2.00 Bohr mag/cell
     absolute magnetization    =     2.02 Bohr mag/cell

     iteration #  5     ecut=    30.00 Ry     beta=0.70
     Davidson diagonalization with overlap
     ethr =  9.64E-07,  avg # of iterations =  9.5

     negative rho (up, down):  0.173E-02 0.193E-02

     total cpu time spent up to now is        9.6 secs

     End of self-consistent calculation

 ------ SPIN UP ------------


          k = 0.0000 0.0000 0.0000 (  5425 PWs)   bands (ev):

   -24.9956 -10.7285 -10.7284  -8.6396  -0.6272   1.7930   1.7943

 ------ SPIN DOWN ----------


          k = 0.0000 0.0000 0.0000 (  5425 PWs)   bands (ev):

   -21.3870  -7.4232  -6.3289  -6.3255  -0.5091   1.9391   2.0640

     highest occupied, lowest unoccupied level (ev):    -7.4232   -6.3289

!    total energy              =     -41.26501001 Ry
     Harris-Foulkes estimate   =     -41.26500949 Ry
     estimated scf accuracy    <       0.00000049 Ry

     total all-electron energy =      -150.025756 Ry

     The total energy is the sum of the following terms:

     one-electron contribution =     -38.87639260 Ry
     hartree contribution      =      20.87866631 Ry
     xc contribution           =      -6.69553199 Ry
     ewald contribution        =      -6.60220143 Ry
     one-center paw contrib.   =      -9.96955029 Ry

     total magnetization       =     2.00 Bohr mag/cell
     absolute magnetization    =     2.03 Bohr mag/cell

     convergence has been achieved in   5 iterations

     Writing output data file pwscf.save
 
     init_run     :      1.56s CPU      1.60s WALL (       1 calls)
     electrons    :      7.64s CPU      7.83s WALL (       1 calls)

     Called by init_run:
     wfcinit      :      0.15s CPU      0.15s WALL (       1 calls)
     potinit      :      0.64s CPU      0.66s WALL (       1 calls)

     Called by electrons:
     c_bands      :      3.02s CPU      3.04s WALL (       5 calls)
     sum_band     :      0.95s CPU      0.96s WALL (       5 calls)
     v_of_rho     :      2.54s CPU      2.62s WALL (       6 calls)
     newd         :      0.38s CPU      0.38s WALL (       6 calls)
     mix_rho      :      0.22s CPU      0.23s WALL (       5 calls)

     Called by c_bands:
     init_us_2    :      0.05s CPU      0.04s WALL (      22 calls)
     regterg      :      2.98s CPU      2.99s WALL (      10 calls)

     Called by *egterg:
     h_psi        :      2.85s CPU      2.84s WALL (      86 calls)
     s_psi        :      0.02s CPU      0.01s WALL (      86 calls)
     g_psi        :      0.06s CPU      0.04s WALL (      74 calls)
     rdiaghg      :      0.00s CPU      0.02s WALL (      84 calls)

     Called by h_psi:
     add_vuspsi   :      0.01s CPU      0.01s WALL (      86 calls)

     General routines
     calbec       :      0.06s CPU      0.04s WALL (      96 calls)
     fft          :      1.00s CPU      1.02s WALL (     146 calls)
     fftw         :      2.51s CPU      2.53s WALL (     374 calls)
     davcio       :      0.00s CPU      0.01s WALL (      32 calls)
 
 
     PAW routines
     PAW_pot      :      0.89s CPU      0.89s WALL (       6 calls)
     PAW_ddot     :      0.04s CPU      0.03s WALL (      21 calls)
 
     PWSCF        :     9.45s CPU         9.71s WALL

 
   This run was terminated on:  11:22: 7   6Jan2012            

=------------------------------------------------------------------------------=
   JOB DONE.
=------------------------------------------------------------------------------=
