
     Program PWSCF v.5.0.2 (svn rev. 10636) starts on 12Dec2013 at 21:37:19 

     This program is part of the open-source Quantum ESPRESSO suite
     for quantum simulation of materials; please cite
         "P. Giannozzi et al., J. Phys.:Condens. Matter 21 395502 (2009);
          URL http://www.quantum-espresso.org", 
     in publications or presentations arising from this work. More details at
     http://www.quantum-espresso.org/quote

     Parallel version (MPI), running on     2 processors
     R & G space division:  proc/nbgrp/npool/nimage =       2
     Reading input from /home/giannozz/trunk/espresso-para/PW/tests/vdw-ts.in

     Current dimensions of program PWSCF are:
     Max number of different atomic species (ntypx) = 10
     Max number of k-points (npk) =  40000
     Max angular momentum in pseudopotentials (lmaxx) =  3

     gamma-point specific algorithms are used

     Subspace diagonalization in iterative solution of the eigenvalue problem:
     a serial algorithm will be used

 
     Parallelization info
     --------------------
     sticks:   dense  smooth     PW     G-vecs:    dense   smooth      PW
     Min         132     132     30                 4632     4632     562
     Max         133     133     31                 4635     4635     579
     Sum         265     265     61                 9267     9267    1141
     Tot         133     133     31
 


     bravais-lattice index     =            4
     lattice parameter (alat)  =       4.6600  a.u.
     unit-cell volume          =     227.8567 (a.u.)^3
     number of atoms/cell      =            4
     number of atomic types    =            1
     number of electrons       =        16.00
     number of Kohn-Sham states=            8
     kinetic-energy cutoff     =      45.0000  Ry
     charge density cutoff     =     180.0000  Ry
     convergence threshold     =      1.0E-06
     mixing beta               =       0.5000
     number of iterations used =           20  plain     mixing
     Exchange-correlation      =  SLA  PW   PBX  PBC ( 1  4  3  4 0)

     celldm(1)=   4.660000  celldm(2)=   0.000000  celldm(3)=   2.600000
     celldm(4)=   0.000000  celldm(5)=   0.000000  celldm(6)=   0.000000

     crystal axes: (cart. coord. in units of alat)
               a(1) = (   1.000000   0.000000   0.000000 )  
               a(2) = (  -0.500000   0.866025   0.000000 )  
               a(3) = (   0.000000   0.000000   2.600000 )  

     reciprocal axes: (cart. coord. in units 2 pi/alat)
               b(1) = (  1.000000  0.577350  0.000000 )  
               b(2) = (  0.000000  1.154701  0.000000 )  
               b(3) = (  0.000000  0.000000  0.384615 )  


     PseudoPot. # 1 for C  read from file:
     /home/giannozz/trunk/espresso-para/pseudo/C.pbe-mt_gipaw.UPF
     MD5 check sum: 5ac2f21f2c440b14befe521540822c15
     Pseudo is Norm-conserving, Zval =  4.0
     Generated by new atomic code, or converted to UPF format
     Using radial grid of 1073 points,  1 beta functions with: 
                l(1) =   0

     atomic species   valence    mass     pseudopotential
        C              4.00    12.00000     C ( 1.00)

      8 Sym. Ops., with inversion, found ( 4 have fractional translation)



   Cartesian axes

     site n.     atom                  positions (alat units)
         1           C   tau(   1) = (  -0.5000000   0.8660254   1.9500000  )
         2           C   tau(   2) = (   0.5000050   0.2886722   1.9500000  )
         3           C   tau(   3) = (  -0.5000000   0.8660254   0.6500000  )
         4           C   tau(   4) = (  -0.0000050   0.5773532   0.6500000  )

     number of k points=     1
                       cart. coord. in units 2pi/alat
        k(    1) = (   0.0000000   0.0000000   0.0000000), wk =   2.0000000

     Dense  grid:     4634 G-vectors     FFT dimensions: (  20,  20,  54)

     Largest allocated arrays     est. size (Mb)     dimensions
        Kohn-Sham Wavefunctions         0.04 Mb     (     290,    8)
        NL pseudopotentials             0.02 Mb     (     290,    4)
        Each V/rho on FFT grid          0.16 Mb     (   10800)
        Each G-vector array             0.02 Mb     (    2318)
        G-vector shells                 0.00 Mb     (     506)
     Largest temporary arrays     est. size (Mb)     dimensions
        Auxiliary wavefunctions         0.07 Mb     (     290,   32)
        Each subspace H/S matrix        0.01 Mb     (      32,   32)
        Each <psi_i|beta_j> matrix      0.00 Mb     (       4,    8)
        Arrays for rho mixing           3.30 Mb     (   10800,   20)
 
   TS-vdW initialization
   ---------------------
 
   Determining TS-vdW damping function parameters...
     ddamp = 20.000000
     sR =  0.940000
   Initializing species #   1 with atomic symbol C  
     Radial grid parameter: NrgpA is  1073.
     Radial grid parameter: gfctrA is  0.000152.
     Radial grid parameter: dxA is  0.012500.
     The number of valence electrons, eref, is         3.499999999998509.
     The reference free atom volume, vref, is        24.844374096763794 bohr^3.
     Determining intial radial grid cutoff...
     An acceptable radial grid cutoff was determined by retaining  853 of 1073 radial grid points.
     The magnitude of the atomic pseudo-density at the radial grid cutoff is  1.954562E-06.
     Using this radial grid cutoff value of         6.412444341510000 au:
     The free atom volume computed with this cutoff is        24.632690833739360 bohr^3 with an error of  0.852%.
     Linear grid spacing was computed as:         0.007412444341510 bohr.
     The free atom static dipole polarizability is     12.000000 bohr^3.
     The free atom homonuclear C6 coefficient is     46.600000 Hartree bohr^6.
     The free atom vdW radius is      3.590000 bohr.

     Initial potential from superposition of free atoms

     starting charge   13.99999, renormalised to   16.00000
     Starting wfc are   32 randomized atomic wfcs

     total cpu time spent up to now is        0.2 secs

     per-process dynamical memory:     9.6 Mb

     Self-consistent Calculation

     iteration #  1     ecut=    45.00 Ry     beta=0.50
     Davidson diagonalization with overlap
     ethr =  1.00E-02,  avg # of iterations =  2.0

     total cpu time spent up to now is        0.3 secs

     total energy              =     -44.61335135 Ry
     Harris-Foulkes estimate   =     -44.69231091 Ry
     estimated scf accuracy    <       0.34106359 Ry

     iteration #  2     ecut=    45.00 Ry     beta=0.50
     Davidson diagonalization with overlap
     ethr =  2.13E-03,  avg # of iterations =  1.0

     total cpu time spent up to now is        0.4 secs

     total energy              =     -44.61298054 Ry
     Harris-Foulkes estimate   =     -44.62164553 Ry
     estimated scf accuracy    <       0.06391412 Ry

     iteration #  3     ecut=    45.00 Ry     beta=0.50
     Davidson diagonalization with overlap
     ethr =  3.99E-04,  avg # of iterations =  2.0

     total cpu time spent up to now is        0.5 secs

     total energy              =     -44.61792021 Ry
     Harris-Foulkes estimate   =     -44.61961436 Ry
     estimated scf accuracy    <       0.00228618 Ry

     iteration #  4     ecut=    45.00 Ry     beta=0.50
     Davidson diagonalization with overlap
     ethr =  1.43E-05,  avg # of iterations =  2.0

     total cpu time spent up to now is        0.5 secs

     total energy              =     -44.61796538 Ry
     Harris-Foulkes estimate   =     -44.61796832 Ry
     estimated scf accuracy    <       0.00079180 Ry

     iteration #  5     ecut=    45.00 Ry     beta=0.50
     Davidson diagonalization with overlap
     ethr =  4.95E-06,  avg # of iterations =  2.0

     total cpu time spent up to now is        0.6 secs

     total energy              =     -44.61805947 Ry
     Harris-Foulkes estimate   =     -44.61802305 Ry
     estimated scf accuracy    <       0.00000272 Ry

     iteration #  6     ecut=    45.00 Ry     beta=0.50
     Davidson diagonalization with overlap
     ethr =  1.70E-08,  avg # of iterations =  3.0

     total cpu time spent up to now is        0.7 secs

     End of self-consistent calculation

          k = 0.0000 0.0000 0.0000 (   571 PWs)   bands (ev):

   -11.6562 -11.1788  -1.0803   1.6104   5.2586   5.2589   5.2928   5.2931

     highest occupied level (ev):     5.2931

!    total energy              =     -44.61806086 Ry
     Harris-Foulkes estimate   =     -44.61807946 Ry
     estimated scf accuracy    <       0.00000080 Ry

     The total energy is the sum of the following terms:

     one-electron contribution =      -7.24652950 Ry
     hartree contribution      =      12.89389569 Ry
     xc contribution           =     -14.35193688 Ry
     ewald contribution        =     -35.87244955 Ry
     Dispersion T-S Correction =      -0.04104061 Ry

     convergence has been achieved in   6 iterations

     Forces acting on atoms (Ry/au):

     atom    1 type  1   force =    -0.00132428    0.00076458    0.00000000
     atom    2 type  1   force =     0.00126945   -0.00073292    0.00000000
     atom    3 type  1   force =     0.00132428   -0.00076458    0.00000000
     atom    4 type  1   force =    -0.00126945    0.00073292    0.00000000

     Total force =     0.002996     Total SCF correction =     0.000096


     entering subroutine stress ...

          total   stress  (Ry/bohr**3)                   (kbar)     P=  186.83
   0.00128405  -0.00000083   0.00000000        188.89     -0.12      0.00
  -0.00000083   0.00128309   0.00000000         -0.12    188.75      0.00
   0.00000000   0.00000000   0.00124303          0.00      0.00    182.86


     Writing output data file pwscf.save
 
     init_run     :      0.19s CPU      0.19s WALL (       1 calls)
     electrons    :      0.48s CPU      0.51s WALL (       1 calls)
     forces       :      0.02s CPU      0.02s WALL (       1 calls)
     stress       :      0.02s CPU      0.06s WALL (       1 calls)

     Called by init_run:
     wfcinit      :      0.03s CPU      0.03s WALL (       1 calls)
     potinit      :      0.09s CPU      0.09s WALL (       1 calls)

     Called by electrons:
     c_bands      :      0.04s CPU      0.04s WALL (       6 calls)
     sum_band     :      0.01s CPU      0.01s WALL (       6 calls)
     v_of_rho     :      0.48s CPU      0.49s WALL (       7 calls)
     mix_rho      :      0.02s CPU      0.01s WALL (       6 calls)

     Called by c_bands:
     init_us_2    :      0.00s CPU      0.00s WALL (      13 calls)
     regterg      :      0.04s CPU      0.04s WALL (       6 calls)

     Called by *egterg:
     h_psi        :      0.07s CPU      0.06s WALL (      19 calls)
     g_psi        :      0.00s CPU      0.00s WALL (      12 calls)
     rdiaghg      :      0.00s CPU      0.00s WALL (      18 calls)

     Called by h_psi:
     add_vuspsi   :      0.00s CPU      0.00s WALL (      19 calls)

     General routines
     calbec       :      0.00s CPU      0.00s WALL (      24 calls)
     fft          :      0.04s CPU      0.04s WALL (      84 calls)
     fftw         :      0.07s CPU      0.06s WALL (     184 calls)
     davcio       :      0.00s CPU      0.00s WALL (       1 calls)
 
     Parallel routines
     fft_scatter  :      0.03s CPU      0.04s WALL (     268 calls)
 
     PWSCF        :     0.76s CPU         0.83s WALL

 
   This run was terminated on:  21:37:19  12Dec2013            

=------------------------------------------------------------------------------=
   JOB DONE.
=------------------------------------------------------------------------------=
