
     Program PWSCF v.5.0.2 (svn rev. 10839) starts on  3Apr2014 at  8:44:36 

     This program is part of the open-source Quantum ESPRESSO suite
     for quantum simulation of materials; please cite
         "P. Giannozzi et al., J. Phys.:Condens. Matter 21 395502 (2009);
          URL http://www.quantum-espresso.org", 
     in publications or presentations arising from this work. More details at
     http://www.quantum-espresso.org/quote

     Parallel version (MPI), running on     2 processors
     R & G space division:  proc/nbgrp/npool/nimage =       2
     Reading input from /home/giannozz/trunk/espresso/PW/tests/vdw5.in

     Current dimensions of program PWSCF are:
     Max number of different atomic species (ntypx) = 10
     Max number of k-points (npk) =  40000
     Max angular momentum in pseudopotentials (lmaxx) =  3

     IMPORTANT: XC functional enforced from input :
     Exchange-correlation      = VDW-DF-C09 ( 1  4 16  0 1)
     Any further DFT definition will be discarded
     Please, verify this is what you really want


     gamma-point specific algorithms are used

     Subspace diagonalization in iterative solution of the eigenvalue problem:
     a serial algorithm will be used

 
     Parallelization info
     --------------------
     sticks:   dense  smooth     PW     G-vecs:    dense   smooth      PW
     Min         150      54     15                 5457     1166     143
     Max         151      55     16                 5458     1183     144
     Sum         301     109     31                10915     2349     287
     Tot         151      55     16
 


     bravais-lattice index     =            4
     lattice parameter (alat)  =       4.6600  a.u.
     unit-cell volume          =     227.8567 (a.u.)^3
     number of atoms/cell      =            4
     number of atomic types    =            1
     number of electrons       =        16.00
     number of Kohn-Sham states=           12
     kinetic-energy cutoff     =      18.0000  Ry
     charge density cutoff     =     200.0000  Ry
     convergence threshold     =      1.0E-06
     mixing beta               =       0.5000
     number of iterations used =           20  plain     mixing
     Exchange-correlation      = VDW-DF-C09 ( 1  4 16  0 1)

     celldm(1)=   4.660000  celldm(2)=   0.000000  celldm(3)=   2.600000
     celldm(4)=   0.000000  celldm(5)=   0.000000  celldm(6)=   0.000000

     crystal axes: (cart. coord. in units of alat)
               a(1) = (   1.000000   0.000000   0.000000 )  
               a(2) = (  -0.500000   0.866025   0.000000 )  
               a(3) = (   0.000000   0.000000   2.600000 )  

     reciprocal axes: (cart. coord. in units 2 pi/alat)
               b(1) = (  1.000000  0.577350  0.000000 )  
               b(2) = (  0.000000  1.154701  0.000000 )  
               b(3) = (  0.000000  0.000000  0.384615 )  


     PseudoPot. # 1 for C  read from file:
     /home/giannozz/trunk/espresso/pseudo/C.pbe-van_bm.UPF
     MD5 check sum: 1a69bf6b8db32088f5b2163dbdb77a27
     Pseudo is Ultrasoft, Zval =  4.0
     Generated by new atomic code, or converted to UPF format
     Using radial grid of  721 points,  4 beta functions with: 
                l(1) =   0
                l(2) =   0
                l(3) =   1
                l(4) =   1
     Q(r) pseudized with  8 coefficients,  rinner =    0.800   0.800   0.800


     vdW kernel table read from file vdW_kernel_table
     MD5 check sum: f53da8562cfe6bfda6a1b4f380354fea

     atomic species   valence    mass     pseudopotential
        C              4.00    12.00000     C ( 1.00)

      8 Sym. Ops., with inversion, found ( 4 have fractional translation)



   Cartesian axes

     site n.     atom                  positions (alat units)
         1           C   tau(   1) = (  -0.5000000   0.8660254   1.9500000  )
         2           C   tau(   2) = (   0.5000050   0.2886722   1.9500000  )
         3           C   tau(   3) = (  -0.5000000   0.8660254   0.6500000  )
         4           C   tau(   4) = (  -0.0000050   0.5773532   0.6500000  )

     number of k points=     1  Marzari-Vanderbilt smearing, width (Ry)=  0.0200
                       cart. coord. in units 2pi/alat
        k(    1) = (   0.0000000   0.0000000   0.0000000), wk =   2.0000000

     Dense  grid:     5458 G-vectors     FFT dimensions: (  24,  24,  60)

     Smooth grid:     1175 G-vectors     FFT dimensions: (  15,  15,  36)

     Largest allocated arrays     est. size (Mb)     dimensions
        Kohn-Sham Wavefunctions         0.01 Mb     (      72,   12)
        NL pseudopotentials             0.04 Mb     (      72,   32)
        Each V/rho on FFT grid          0.26 Mb     (   17280)
        Each G-vector array             0.02 Mb     (    2729)
        G-vector shells                 0.00 Mb     (     616)
     Largest temporary arrays     est. size (Mb)     dimensions
        Auxiliary wavefunctions         0.03 Mb     (      72,   48)
        Each subspace H/S matrix        0.02 Mb     (      48,   48)
        Each <psi_i|beta_j> matrix      0.00 Mb     (      32,   12)
        Arrays for rho mixing           5.27 Mb     (   17280,   20)

     Initial potential from superposition of free atoms

     starting charge   15.99984, renormalised to   16.00000


     ************************************************************************
     *
     * You are using vdW-DF for exchange-correlation in this calculation.
     * Please cite the following three references that made this development
     * possible:
     *
     *   M. Dion, H. Rydberg, E. Schroder, D. C. Langreth, and
     *   B. I. Lundqvist, Phys. Rev. Lett. 92, 246401 (2004).
     *
     *   T. Thonhauser, V. R. Cooper, S. Li, A. Puzder, P. Hyldgaard, and
     *   D. C. Langreth, Phys. Rev. B 76, 125112 (2007).
     *
     *   G. Roman-Perez and J. M. Soler, Phys. Rev. Lett. 103, 096102 (2009).
     *
     *
     * If you are using vdW-DF2, please also cite:
     *
     *   K. Lee, E. D. Murray, L. Kong, B. I. Lundqvist, and
     *   D. C. Langreth, Phys. Rev. B 82, 081101(R) (2010).
     *
     *
     * If you are calculating the stress with vdW-DF, please also cite:
     *
     *   R. Sabatini, E. Kucukbenli, B. Kolb, T. Thonhauser, and
     *   S. de Gironcoli, J. Phys.: Condens. Matter 24, 424209 (2012).
     *
     ************************************************************************

     Carrying out vdW-DF run using the following parameters:

     Nqs =      20    Nr_points =    1024   r_max =   100.000
     q_mesh =
               0.00001000     0.04494208     0.09755937     0.15916263
               0.23128650     0.31572767     0.41458969     0.53033537
               0.66584808     0.82450364     1.01025438     1.22772762
               1.48234092     1.78043706     2.12944203     2.53805004
               3.01644009     3.57652955     4.23227104     5.00000000

     Gradients computed in reciprocal space

     ************************************************************************


     Starting wfc are   16 randomized atomic wfcs

     total cpu time spent up to now is        0.3 secs

     per-process dynamical memory:    22.5 Mb

     Self-consistent Calculation

     iteration #  1     ecut=    18.00 Ry     beta=0.50
     Davidson diagonalization with overlap
     ethr =  1.00E-02,  avg # of iterations =  3.0

     total cpu time spent up to now is        0.4 secs

     total energy              =     -44.12985777 Ry
     Harris-Foulkes estimate   =     -44.39091641 Ry
     estimated scf accuracy    <       0.66496346 Ry

     iteration #  2     ecut=    18.00 Ry     beta=0.50
     Davidson diagonalization with overlap
     ethr =  4.16E-03,  avg # of iterations =  2.0

     total cpu time spent up to now is        0.5 secs

     total energy              =     -44.13058751 Ry
     Harris-Foulkes estimate   =     -44.16365618 Ry
     estimated scf accuracy    <       0.09370729 Ry

     iteration #  3     ecut=    18.00 Ry     beta=0.50
     Davidson diagonalization with overlap
     ethr =  5.86E-04,  avg # of iterations =  2.0

     total cpu time spent up to now is        0.6 secs

     total energy              =     -44.13918122 Ry
     Harris-Foulkes estimate   =     -44.13912305 Ry
     estimated scf accuracy    <       0.00315424 Ry

     iteration #  4     ecut=    18.00 Ry     beta=0.50
     Davidson diagonalization with overlap
     ethr =  1.97E-05,  avg # of iterations =  1.0

     total cpu time spent up to now is        0.7 secs

     total energy              =     -44.13933450 Ry
     Harris-Foulkes estimate   =     -44.13931559 Ry
     estimated scf accuracy    <       0.00002092 Ry

     iteration #  5     ecut=    18.00 Ry     beta=0.50
     Davidson diagonalization with overlap
     ethr =  1.31E-07,  avg # of iterations =  2.0

     total cpu time spent up to now is        0.8 secs

     End of self-consistent calculation

          k = 0.0000 0.0000 0.0000 (   144 PWs)   bands (ev):

   -11.7753 -11.3009  -1.0057   1.6346   5.6543   5.6547   5.8108   5.8112
    11.8729  16.7189  16.7195  16.7502

     the Fermi energy is     9.8909 ev

!    total energy              =     -44.13934991 Ry
     Harris-Foulkes estimate   =     -44.13933998 Ry
     estimated scf accuracy    <       0.00000078 Ry

     The total energy is the sum of the following terms:

     one-electron contribution =      -6.67059759 Ry
     hartree contribution      =      12.64116009 Ry
     xc contribution           =     -14.23746259 Ry
     ewald contribution        =     -35.87244982 Ry
     smearing contrib. (-TS)   =       0.00000000 Ry

     convergence has been achieved in   5 iterations

     Forces acting on atoms (Ry/au):

     atom    1 type  1   force =     0.00008199   -0.00004734    0.00000000
     atom    2 type  1   force =    -0.00007066    0.00004079    0.00000000
     atom    3 type  1   force =    -0.00008199    0.00004734    0.00000000
     atom    4 type  1   force =     0.00007066   -0.00004079    0.00000000

     Total force =     0.000177     Total SCF correction =     0.000285
     SCF correction compared to forces is large: reduce conv_thr to get better values


     entering subroutine stress ...

          total   stress  (Ry/bohr**3)                   (kbar)     P= -380.13
  -0.00281298  -0.00000045   0.00000000       -413.80     -0.07      0.00
  -0.00000045  -0.00281350   0.00000000         -0.07   -413.88      0.00
   0.00000000   0.00000000  -0.00212572          0.00      0.00   -312.70


     Writing output data file pwscf.save
 
     init_run     :      0.14s CPU      0.14s WALL (       1 calls)
     electrons    :      0.46s CPU      0.46s WALL (       1 calls)
     forces       :      0.02s CPU      0.02s WALL (       1 calls)
     stress       :      0.14s CPU      0.14s WALL (       1 calls)

     Called by init_run:
     wfcinit      :      0.00s CPU      0.00s WALL (       1 calls)
     potinit      :      0.08s CPU      0.09s WALL (       1 calls)

     Called by electrons:
     c_bands      :      0.02s CPU      0.02s WALL (       5 calls)
     sum_band     :      0.04s CPU      0.04s WALL (       5 calls)
     v_of_rho     :      0.44s CPU      0.44s WALL (       6 calls)
     newd         :      0.03s CPU      0.03s WALL (       6 calls)
     mix_rho      :      0.01s CPU      0.01s WALL (       5 calls)
     vdW_energy   :      0.08s CPU      0.09s WALL (       6 calls)
     vdW_ffts     :      0.16s CPU      0.16s WALL (      14 calls)
     vdW_v        :      0.07s CPU      0.07s WALL (       6 calls)

     Called by c_bands:
     init_us_2    :      0.00s CPU      0.00s WALL (      11 calls)
     regterg      :      0.02s CPU      0.02s WALL (       5 calls)

     Called by *egterg:
     h_psi        :      0.01s CPU      0.01s WALL (      16 calls)
     s_psi        :      0.00s CPU      0.00s WALL (      16 calls)
     g_psi        :      0.00s CPU      0.00s WALL (      10 calls)
     rdiaghg      :      0.00s CPU      0.00s WALL (      15 calls)

     Called by h_psi:
     add_vuspsi   :      0.00s CPU      0.00s WALL (      16 calls)

     General routines
     calbec       :      0.00s CPU      0.00s WALL (      26 calls)
     fft          :      0.28s CPU      0.25s WALL (     444 calls)
     ffts         :      0.00s CPU      0.00s WALL (      11 calls)
     fftw         :      0.01s CPU      0.01s WALL (     192 calls)
     interpolate  :      0.01s CPU      0.01s WALL (      11 calls)
     davcio       :      0.00s CPU      0.00s WALL (       1 calls)
 
     Parallel routines
     fft_scatter  :      0.04s CPU      0.06s WALL (     647 calls)
 
     PWSCF        :     1.16s CPU         1.36s WALL

 
   This run was terminated on:   8:44:38   3Apr2014            

=------------------------------------------------------------------------------=
   JOB DONE.
=------------------------------------------------------------------------------=
