<PP_INFO>
Generated using Vanderbilt code, version   7  3  2                              
Author: Sit and Marzari  Generation date: JCP 122 204510 (2005)
Similar to local H PP generated by P.Giannozzi for LDA
    0        The Pseudo was generated with a Non-Relativistic Calculation
nl pn  l   occ               Rcut            Rcut US             E pseu
0S  0  0  1.00      0.00000000000      0.00000000000      0.00000000000
</PP_INFO>


<PP_HEADER>
   0                   Version Number
   H                   Element
   NC                  Norm - Conserving pseudopotential
    F                  Nonlinear Core Correction
SLA  PW   PBE  PBE     PBE  Exchange-Correlation functional
    1.00000000000      Z valence
    0.00000000000      Total energy
  0.0000000  0.0000000 Suggested cutoff for wfc and rho
   -1                  Max angular momentum component
  325                  Number of points in mesh
    1    0             Number of Wavefunctions, Number of Projectors
 Wavefunctions         nl  l   occ
                       0S  0  1.00
</PP_HEADER>


<PP_MESH>
  <PP_R>
  1.83156388887E-02  1.87793014947E-02  1.92547017754E-02  1.97421368715E-02
  2.02419114458E-02  2.07543378737E-02  2.12797364384E-02  2.18184355310E-02
  2.23707718562E-02  2.29370906419E-02  2.35177458560E-02  2.41131004268E-02
  2.47235264703E-02  2.53494055227E-02  2.59911287788E-02  2.66490973364E-02
  2.73237224473E-02  2.80154257742E-02  2.87246396542E-02  2.94518073691E-02
  3.01973834223E-02  3.09618338232E-02  3.17456363781E-02  3.25492809891E-02
  3.33732699603E-02  3.42181183117E-02  3.50843541008E-02  3.59725187534E-02
  3.68831674012E-02  3.78168692293E-02  3.87742078317E-02  3.97557815762E-02
  4.07622039784E-02  4.17941040849E-02  4.28521268670E-02  4.39369336234E-02
  4.50492023936E-02  4.61896283817E-02  4.73589243911E-02  4.85578212700E-02
  4.97870683679E-02  5.10474340042E-02  5.23397059484E-02  5.36646919127E-02
  5.50232200564E-02  5.64161395038E-02  5.78443208748E-02  5.93086568294E-02
  6.08100626252E-02  6.23494766897E-02  6.39278612067E-02  6.55462027180E-02
  6.72055127397E-02  6.89068283947E-02  7.06512130604E-02  7.24397570343E-02
  7.42735782143E-02  7.61538227986E-02  7.80816660012E-02  8.00583127867E-02
  8.20849986239E-02  8.41629902573E-02  8.62935864994E-02  8.84781190421E-02
  9.07179532894E-02  9.30144892107E-02  9.53691622155E-02  9.77834440514E-02
  1.00258843723E-01  1.02796908435E-01  1.05399224562E-01  1.08067418635E-01
  1.10803158362E-01  1.13608153671E-01  1.16484157773E-01  1.19432968267E-01
  1.22456428253E-01  1.25556427493E-01  1.28734903588E-01  1.31993843188E-01
  1.35335283237E-01  1.38761312243E-01  1.42274071587E-01  1.45875756856E-01
  1.49568619223E-01  1.53354966845E-01  1.57237166314E-01  1.61217644130E-01
  1.65298888222E-01  1.69483449499E-01  1.73773943450E-01  1.78173051773E-01
  1.82683524053E-01  1.87308179482E-01  1.92049908621E-01  1.96911675204E-01
  2.01896517995E-01  2.07007552681E-01  2.12247973827E-01  2.17621056865E-01
  2.23130160148E-01  2.28778727045E-01  2.34570288094E-01  2.40508463208E-01
  2.46596963942E-01  2.52839595805E-01  2.59240260646E-01  2.65802959089E-01
  2.72531793034E-01  2.79430968221E-01  2.86504796860E-01  2.93757700324E-01
  3.01194211912E-01  3.08818979688E-01  3.16636769379E-01  3.24652467358E-01
  3.32871083698E-01  3.41297755301E-01  3.49937749111E-01  3.58796465406E-01
  3.67879441171E-01  3.77192353563E-01  3.86741023455E-01  3.96531419075E-01
  4.06569659741E-01  4.16862019679E-01  4.27414931949E-01  4.38234992465E-01
  4.49328964117E-01  4.60703780999E-01  4.72366552741E-01  4.84324568955E-01
  4.96585303791E-01  5.09156420608E-01  5.22045776761E-01  5.35261428519E-01
  5.48811636094E-01  5.62704868807E-01  5.76949810380E-01  5.91555364367E-01
  6.06530659713E-01  6.21885056465E-01  6.37628151622E-01  6.53769785130E-01
  6.70320046036E-01  6.87289278791E-01  7.04688089719E-01  7.22527353642E-01
  7.40818220682E-01  7.59572123225E-01  7.78800783071E-01  7.98516218759E-01
  8.18730753078E-01  8.39457020769E-01  8.60707976425E-01  8.82496902585E-01
  9.04837418036E-01  9.27743486329E-01  9.51229424501E-01  9.75309912028E-01
  1.00000000000E+00  1.02531512052E+00  1.05127109638E+00  1.07788415088E+00
  1.10517091808E+00  1.13314845307E+00  1.16183424273E+00  1.19124621661E+00
  1.22140275816E+00  1.25232271619E+00  1.28402541669E+00  1.31653067487E+00
  1.34985880758E+00  1.38403064598E+00  1.41906754859E+00  1.45499141462E+00
  1.49182469764E+00  1.52959041966E+00  1.56831218549E+00  1.60801419749E+00
  1.64872127070E+00  1.69045884838E+00  1.73325301787E+00  1.77713052691E+00
  1.82211880039E+00  1.86824595743E+00  1.91554082901E+00  1.96403297597E+00
  2.01375270747E+00  2.06473109997E+00  2.11700001661E+00  2.17059212718E+00
  2.22554092849E+00  2.28188076533E+00  2.33964685193E+00  2.39887529397E+00
  2.45960311116E+00  2.52186826036E+00  2.58570965932E+00  2.65116721098E+00
  2.71828182846E+00  2.78709546057E+00  2.85765111806E+00  2.92999290053E+00
  3.00416602395E+00  3.08021684892E+00  3.15819290969E+00  3.23814294384E+00
  3.32011692274E+00  3.40416608279E+00  3.49034295746E+00  3.57870141010E+00
  3.66929666762E+00  3.76218535500E+00  3.85742553070E+00  3.95507672292E+00
  4.05519996684E+00  4.15785784276E+00  4.26311451517E+00  4.37103577293E+00
  4.48168907034E+00  4.59514356931E+00  4.71147018259E+00  4.83074161811E+00
  4.95303242440E+00  5.07841903718E+00  5.20697982718E+00  5.33879514907E+00
  5.47394739173E+00  5.61252102969E+00  5.75460267601E+00  5.90028113632E+00
  6.04964746441E+00  6.20279501910E+00  6.35981952260E+00  6.52081912033E+00
  6.68589444228E+00  6.85514866590E+00  7.02868758059E+00  7.20661965382E+00
  7.38905609893E+00  7.57611094464E+00  7.76790110631E+00  7.96454645903E+00
  8.16616991257E+00  8.37289748813E+00  8.58485839718E+00  8.80218512219E+00
  9.02501349943E+00  9.25348280391E+00  9.48773583636E+00  9.72791901256E+00
  9.97418245481E+00  1.02266800858E+01  1.04855697247E+01  1.07510131861E+01
  1.10231763806E+01  1.13022294193E+01  1.15883467192E+01  1.18817071131E+01
  1.21824939607E+01  1.24908952636E+01  1.28071037827E+01  1.31313171585E+01
  1.34637380350E+01  1.38045741861E+01  1.41540386454E+01  1.45123498396E+01
  1.48797317249E+01  1.52564139269E+01  1.56426318842E+01  1.60386269957E+01
  1.64446467711E+01  1.68609449861E+01  1.72877818406E+01  1.77254241215E+01
  1.81741453694E+01  1.86342260499E+01  1.91059537282E+01  1.95896232496E+01
  2.00855369232E+01  2.05940047112E+01  2.11153444225E+01  2.16498819115E+01
  2.21979512814E+01  2.27598950935E+01  2.33360645809E+01  2.39268198684E+01
  2.45325301971E+01  2.51535741558E+01  2.57903399172E+01  2.64432254806E+01
  2.71126389207E+01  2.77989986427E+01  2.85027336438E+01  2.92242837812E+01
  2.99641000474E+01  3.07226448515E+01  3.15003923087E+01  3.22978285366E+01
  3.31154519587E+01  3.39537736162E+01  3.48133174876E+01  3.56946208157E+01
  3.65982344437E+01  3.75247231596E+01  3.84746660490E+01  3.94486568572E+01
  4.04473043601E+01  4.14712327448E+01  4.25210820001E+01  4.35975083157E+01
  4.47011844933E+01  4.58328003663E+01  4.69930632316E+01  4.81826982911E+01
  4.94024491055E+01  5.06530780588E+01  5.19353668348E+01  5.32501169057E+01
  5.45981500331E+01  5.59803087816E+01  5.73974570454E+01  5.88504805883E+01
  6.03402875974E+01
  </PP_R>
  <PP_RAB>
  4.57890972218E-04  4.69482537367E-04  4.81367544385E-04  4.93553421787E-04
  5.06047786145E-04  5.18858446842E-04  5.31993410959E-04  5.45460888276E-04
  5.59269296404E-04  5.73427266048E-04  5.87943646400E-04  6.02827510670E-04
  6.18088161758E-04  6.33735138068E-04  6.49778219469E-04  6.66227433409E-04
  6.83093061182E-04  7.00385644356E-04  7.18115991356E-04  7.36295184228E-04
  7.54934585558E-04  7.74045845579E-04  7.93640909452E-04  8.13732024728E-04
  8.34331749008E-04  8.55452957792E-04  8.77108852521E-04  8.99312968836E-04
  9.22079185031E-04  9.45421730733E-04  9.69355195793E-04  9.93894539406E-04
  1.01905509946E-03  1.04485260212E-03  1.07130317168E-03  1.09842334059E-03
  1.12623005984E-03  1.15474070954E-03  1.18397310978E-03  1.21394553175E-03
  1.24467670920E-03  1.27618585010E-03  1.30849264871E-03  1.34161729782E-03
  1.37558050141E-03  1.41040348759E-03  1.44610802187E-03  1.48271642074E-03
  1.52025156563E-03  1.55873691724E-03  1.59819653017E-03  1.63865506795E-03
  1.68013781849E-03  1.72267070987E-03  1.76628032651E-03  1.81099392586E-03
  1.85683945536E-03  1.90384556997E-03  1.95204165003E-03  2.00145781967E-03
  2.05212496560E-03  2.10407475643E-03  2.15733966248E-03  2.21195297605E-03
  2.26794883224E-03  2.32536223027E-03  2.38422905539E-03  2.44458610128E-03
  2.50647109307E-03  2.56992271088E-03  2.63498061405E-03  2.70168546587E-03
  2.77007895906E-03  2.84020384177E-03  2.91210394434E-03  2.98582420667E-03
  3.06141070632E-03  3.13891068733E-03  3.21837258970E-03  3.29984607970E-03
  3.38338208092E-03  3.46903280607E-03  3.55685178966E-03  3.64689392141E-03
  3.73921548057E-03  3.83387417112E-03  3.93092915784E-03  4.03044110324E-03
  4.13247220554E-03  4.23708623749E-03  4.34434858626E-03  4.45432629432E-03
  4.56708810132E-03  4.68270448705E-03  4.80124771552E-03  4.92279188010E-03
  5.04741294987E-03  5.17518881703E-03  5.30619934567E-03  5.44052642163E-03
  5.57825400371E-03  5.71946817613E-03  5.86425720234E-03  6.01271158021E-03
  6.16492409854E-03  6.32098989512E-03  6.48100651615E-03  6.64507397722E-03
  6.81329482585E-03  6.98577420554E-03  7.16261992150E-03  7.34394250809E-03
  7.52985529781E-03  7.72047449220E-03  7.91591923448E-03  8.11631168396E-03
  8.32177709245E-03  8.53244388252E-03  8.74844372778E-03  8.96991163515E-03
  9.19698602929E-03  9.42980883908E-03  9.66852558636E-03  9.91328547687E-03
  1.01642414935E-02  1.04215504920E-02  1.06853732987E-02  1.09558748116E-02
  1.12332241029E-02  1.15175945250E-02  1.18091638185E-02  1.21081142239E-02
  1.24146325948E-02  1.27289105152E-02  1.30511444190E-02  1.33815357130E-02
  1.37202909024E-02  1.40676217202E-02  1.44237452595E-02  1.47888841092E-02
  1.51632664928E-02  1.55471264116E-02  1.59407037905E-02  1.63442446282E-02
  1.67580011509E-02  1.71822319698E-02  1.76172022430E-02  1.80631838411E-02
  1.85204555170E-02  1.89893030806E-02  1.94700195768E-02  1.99629054690E-02
  2.04682688269E-02  2.09864255192E-02  2.15176994106E-02  2.20624225646E-02
  2.26209354509E-02  2.31935871582E-02  2.37807356125E-02  2.43827478007E-02
  2.50000000000E-02  2.56328780131E-02  2.62817774094E-02  2.69471037721E-02
  2.76292729519E-02  2.83287113267E-02  2.90458560682E-02  2.97811554153E-02
  3.05350689540E-02  3.13080679048E-02  3.21006354172E-02  3.29132668717E-02
  3.37464701894E-02  3.46007661495E-02  3.54766887148E-02  3.63747853655E-02
  3.72956174410E-02  3.82397604916E-02  3.92078046373E-02  4.02003549371E-02
  4.12180317675E-02  4.22614712095E-02  4.33313254467E-02  4.44282631729E-02
  4.55529700098E-02  4.67061489358E-02  4.78885207253E-02  4.91008243992E-02
  5.03438176868E-02  5.16182774992E-02  5.29250004153E-02  5.42648031796E-02
  5.56385232123E-02  5.70470191332E-02  5.84911712981E-02  5.99718823492E-02
  6.14900777789E-02  6.30467065090E-02  6.46427414829E-02  6.62791802746E-02
  6.79570457115E-02  6.96773865141E-02  7.14412779516E-02  7.32498225133E-02
  7.51041505987E-02  7.70054212230E-02  7.89548227422E-02  8.09535735959E-02
  8.30029230684E-02  8.51041520698E-02  8.72585739365E-02  8.94675352525E-02
  9.17324166905E-02  9.40546338750E-02  9.64356382674E-02  9.88769180730E-02
  1.01379999171E-01  1.03946446069E-01  1.06577862879E-01  1.09275894323E-01
  1.12042226758E-01  1.14878589233E-01  1.17786754565E-01  1.20768540453E-01
  1.23825810610E-01  1.26960475930E-01  1.30174495679E-01  1.33469878727E-01
  1.36848684793E-01  1.40313025742E-01  1.43865066900E-01  1.47507028408E-01
  1.51241186610E-01  1.55069875478E-01  1.58995488065E-01  1.63020478008E-01
  1.67147361057E-01  1.71378716647E-01  1.75717189515E-01  1.80165491346E-01
  1.84726402473E-01  1.89402773616E-01  1.94197527658E-01  1.99113661476E-01
  2.04154247814E-01  2.09322437203E-01  2.14621459929E-01  2.20054628055E-01
  2.25625337486E-01  2.31337070098E-01  2.37193395909E-01  2.43197975314E-01
  2.49354561370E-01  2.55667002145E-01  2.62139243118E-01  2.68775329652E-01
  2.75579409516E-01  2.82555735482E-01  2.89708667981E-01  2.97042677827E-01
  3.04562349018E-01  3.12272381590E-01  3.20177594567E-01  3.28282928962E-01
  3.36593450875E-01  3.45114354652E-01  3.53850966134E-01  3.62808745990E-01
  3.71993293122E-01  3.81410348171E-01  3.91065797105E-01  4.00965674891E-01
  4.11116169277E-01  4.21523624652E-01  4.32194546014E-01  4.43135603037E-01
  4.54353634236E-01  4.65855651247E-01  4.77648843206E-01  4.89740581240E-01
  5.02138423080E-01  5.14850117780E-01  5.27883610564E-01  5.41247047788E-01
  5.54948782036E-01  5.68997377338E-01  5.83401614524E-01  5.98170496709E-01
  6.13313254928E-01  6.28839353895E-01  6.44758497930E-01  6.61080637014E-01
  6.77815973016E-01  6.94974966067E-01  7.12568341094E-01  7.30607094531E-01
  7.49102501185E-01  7.68066121288E-01  7.87509807719E-01  8.07445713415E-01
  8.27886298967E-01  8.48844340406E-01  8.70332937190E-01  8.92365520391E-01
  9.14955861092E-01  9.38118078990E-01  9.61866651226E-01  9.86216421430E-01
  1.01118260900E+00  1.03678081862E+00  1.06302705000E+00  1.08993770789E+00
  1.11752961233E+00  1.14582000916E+00  1.17482658079E+00  1.20456745728E+00
  1.23506122764E+00  1.26632695147E+00  1.29838417087E+00  1.33125292264E+00
  1.36495375083E+00  1.39950771954E+00  1.43493642614E+00  1.47126201471E+00
  1.50850718993E+00
  </PP_RAB>
</PP_MESH>


<PP_LOCAL>
 -9.22514970000E+00 -9.22514970000E+00 -9.22507120001E+00 -9.22498869998E+00
 -9.22490170002E+00 -9.22481020002E+00 -9.22471379997E+00 -9.22461220004E+00
 -9.22450519998E+00 -9.22439250000E+00 -9.22427380002E+00 -9.22414870001E+00
 -9.22401680003E+00 -9.22387780000E+00 -9.22373129999E+00 -9.22357680000E+00
 -9.22341399998E+00 -9.22324220002E+00 -9.22306110003E+00 -9.22287009999E+00
 -9.22266849999E+00 -9.22245579999E+00 -9.22223129998E+00 -9.22199430001E+00
 -9.22174410000E+00 -9.22147990000E+00 -9.22120090002E+00 -9.22090610001E+00
 -9.22059470001E+00 -9.22026550000E+00 -9.21991740001E+00 -9.21954950000E+00
 -9.21916030000E+00 -9.21874850001E+00 -9.21831270000E+00 -9.21785150000E+00
 -9.21736310000E+00 -9.21684579999E+00 -9.21629770002E+00 -9.21571679999E+00
 -9.21510089999E+00 -9.21444779999E+00 -9.21375480001E+00 -9.21301940001E+00
 -9.21223860000E+00 -9.21140929999E+00 -9.21052810000E+00 -9.20959150001E+00
 -9.20859560000E+00 -9.20753599999E+00 -9.20640839999E+00 -9.20520780000E+00
 -9.20392890001E+00 -9.20256600000E+00 -9.20111300000E+00 -9.19956309999E+00
 -9.19790920001E+00 -9.19614340000E+00 -9.19425729999E+00 -9.19224170001E+00
 -9.19008670000E+00 -9.18778160000E+00 -9.18531469999E+00 -9.18267340000E+00
 -9.17984400000E+00 -9.17681170000E+00 -9.17356040001E+00 -9.17007260000E+00
 -9.16632949998E+00 -9.16231040002E+00 -9.15799309999E+00 -9.15335339998E+00
 -9.14836510001E+00 -9.14299979998E+00 -9.13722660007E+00 -9.13101209996E+00
 -9.12431989999E+00 -9.11711070000E+00 -9.10934200000E+00 -9.10096749997E+00
 -9.09193709999E+00 -9.08219680002E+00 -9.07168769997E+00 -9.06034659998E+00
 -9.04810489995E+00 -9.03488829997E+00 -9.02061679996E+00 -9.00520400000E+00
 -8.98855690000E+00 -8.97057480004E+00 -8.95114990003E+00 -8.93016589999E+00
 -8.90749799997E+00 -8.88301210001E+00 -8.85656490000E+00 -8.82800280003E+00
 -8.79716160000E+00 -8.76386660001E+00 -8.72793160000E+00 -8.68915869999E+00
 -8.64733870002E+00 -8.60224999999E+00 -8.55365949999E+00 -8.50132200002E+00
 -8.44498149997E+00 -8.38437059999E+00 -8.31921229999E+00 -8.24922110000E+00
 -8.17410380000E+00 -8.09356240000E+00 -8.00729610001E+00 -7.91500460000E+00
 -7.81639160001E+00 -7.71116940000E+00 -7.59906399999E+00 -7.47982150002E+00
 -7.35321460001E+00 -7.21905119999E+00 -7.07718330001E+00 -6.92751690000E+00
 -6.77002330000E+00 -6.60475180000E+00 -6.43184209999E+00 -6.25153869999E+00
 -6.06420470000E+00 -5.87033740000E+00 -5.67058130000E+00 -5.46574260001E+00
 -5.25680070000E+00 -5.04491720001E+00 -4.83144220000E+00 -4.61791520000E+00
 -4.40605890000E+00 -4.19776620000E+00 -3.99507589999E+00 -3.80013610000E+00
 -3.61515409999E+00 -3.44232750000E+00 -3.28375810000E+00 -3.14134320000E+00
 -3.01664640000E+00 -2.91074720000E+00 -2.82407310000E+00 -2.75622240000E+00
 -2.70579190000E+00 -2.67023360000E+00 -2.64577950000E+00 -2.62749229999E+00
 -2.60953000000E+00 -2.58574930000E+00 -2.55082610000E+00 -2.50214380000E+00
 -2.44285770000E+00 -2.38249500000E+00 -2.32366860000E+00 -2.26629650000E+00
 -2.21034190000E+00 -2.15576860000E+00 -2.10254219999E+00 -2.05063040000E+00
 -1.99999990000E+00 -1.95061990001E+00 -1.90245889999E+00 -1.85548700001E+00
 -1.80967479999E+00 -1.76499390000E+00 -1.72141609999E+00 -1.67891410000E+00
 -1.63746170000E+00 -1.59703250001E+00 -1.55760150000E+00 -1.51914430000E+00
 -1.48163649999E+00 -1.44505480000E+00 -1.40937630001E+00 -1.37457850000E+00
 -1.34064010000E+00 -1.30753970000E+00 -1.27525640000E+00 -1.24377010000E+00
 -1.21306130000E+00 -1.18311070000E+00 -1.15389970000E+00 -1.12540970001E+00
 -1.09762320000E+00 -1.07052280000E+00 -1.04409150000E+00 -1.01831280000E+00
 -9.93170600000E-01 -9.68649119999E-01 -9.44733089999E-01 -9.21407540001E-01
 -8.98657910002E-01 -8.76469969999E-01 -8.54829879997E-01 -8.33724019997E-01
 -8.13139279998E-01 -7.93062849998E-01 -7.73482029999E-01 -7.54384720001E-01
 -7.35758930001E-01 -7.17592910001E-01 -6.99875420002E-01 -6.82595490002E-01
 -6.65742239998E-01 -6.49304900001E-01 -6.33273460001E-01 -6.17638020000E-01
 -6.02388460000E-01 -5.87515369999E-01 -5.73009589999E-01 -5.58861929999E-01
 -5.45063590001E-01 -5.31605920001E-01 -5.18480500000E-01 -5.05679160000E-01
 -4.93193920000E-01 -4.81016899999E-01 -4.69140509999E-01 -4.57557410000E-01
 -4.46260279999E-01 -4.35242050000E-01 -4.24495900000E-01 -4.14015050000E-01
 -4.03792979999E-01 -3.93823310000E-01 -3.84099779999E-01 -3.74616330001E-01
 -3.65367019999E-01 -3.56346080000E-01 -3.47547860000E-01 -3.38966870000E-01
 -3.30597750000E-01 -3.22435270000E-01 -3.14474309999E-01 -3.06709910000E-01
 -2.99137220000E-01 -2.91751490000E-01 -2.84548119999E-01 -2.77522600000E-01
 -2.70670540000E-01 -2.63987660001E-01 -2.57469780000E-01 -2.51112830000E-01
 -2.44912830000E-01 -2.38865910000E-01 -2.32968290000E-01 -2.27216279999E-01
 -2.21606290000E-01 -2.16134810000E-01 -2.10798430000E-01 -2.05593790000E-01
 -2.00517660000E-01 -1.95566870000E-01 -1.90738300001E-01 -1.86028959999E-01
 -1.81435880001E-01 -1.76956210000E-01 -1.72587590001E-01 -1.68326330000E-01
 -1.64170330000E-01 -1.60116950000E-01 -1.56163279999E-01 -1.52307640000E-01
 -1.48547160000E-01 -1.44879510000E-01 -1.41302430000E-01 -1.37813660000E-01
 -1.34411020000E-01 -1.31092400000E-01 -1.27855720000E-01 -1.24698950000E-01
 -1.21620120000E-01 -1.18617310000E-01 -1.15688640000E-01 -1.12832280000E-01
 -1.10046440000E-01 -1.07329380000E-01 -1.04679410000E-01 -1.02094870000E-01
 -9.95741359998E-02 -9.71156420000E-02 -9.47178480001E-02 -9.23792559999E-02
 -9.00984040003E-02 -8.78738670000E-02 -8.57042530002E-02 -8.35882080001E-02
 -8.15244080000E-02 -7.95115630002E-02 -7.75484150000E-02 -7.56337379998E-02
 -7.37663350001E-02 -7.19450369999E-02 -7.01687079999E-02 -6.84362360000E-02
 -6.67465400001E-02 -6.50985620000E-02 -6.34912730000E-02 -6.19236669999E-02
 -6.03947669998E-02 -5.89036139999E-02 -5.74492790000E-02 -5.60308509998E-02
 -5.46474450000E-02 -5.32981940001E-02 -5.19822570000E-02 -5.06988110001E-02
 -4.94470530000E-02 -4.82262010000E-02 -4.70354920001E-02 -4.58741809999E-02
 -4.47415440000E-02 -4.36368709999E-02 -4.25594729999E-02 -4.15086760000E-02
 -4.04838229999E-02 -3.94842740001E-02 -3.85094030001E-02 -3.75586030001E-02
 -3.66312780000E-02 -3.57268479999E-02 -3.48447490001E-02 -3.39844290000E-02
 -3.31453510001E-02
</PP_LOCAL>


<PP_NONLOCAL>
  <PP_DIJ>
    0                  Number of nonzero Dij
  </PP_DIJ>
</PP_NONLOCAL>


<PP_PSWFC>
0S    0  1.00          Wavefunction
  2.91358770000E-02  2.98727560000E-02  3.06282340000E-02  3.14027790000E-02
  3.21968680000E-02  3.30109920000E-02  3.38456520000E-02  3.47013620000E-02
  3.55786490000E-02  3.64780530000E-02  3.74001260000E-02  3.83454340000E-02
  3.93145580000E-02  4.03080910000E-02  4.13266410000E-02  4.23708320000E-02
  4.34413010000E-02  4.45387020000E-02  4.56637030000E-02  4.68169880000E-02
  4.79992590000E-02  4.92112330000E-02  5.04536450000E-02  5.17272460000E-02
  5.30328040000E-02  5.43711080000E-02  5.57429620000E-02  5.71491900000E-02
  5.85906340000E-02  6.00681570000E-02  6.15826400000E-02  6.31349830000E-02
  6.47261080000E-02  6.63569570000E-02  6.80284910000E-02  6.97416960000E-02
  7.14975740000E-02  7.32971520000E-02  7.51414790000E-02  7.70316240000E-02
  7.89686800000E-02  8.09537600000E-02  8.29880030000E-02  8.50725680000E-02
  8.72086380000E-02  8.93974180000E-02  9.16401370000E-02  9.39380460000E-02
  9.62924200000E-02  9.87045540000E-02  1.01175770000E-01  1.03707410000E-01
  1.06300830000E-01  1.08957430000E-01  1.11678610000E-01  1.14465790000E-01
  1.17320430000E-01  1.20243990000E-01  1.23237960000E-01  1.26303840000E-01
  1.29443160000E-01  1.32657440000E-01  1.35948240000E-01  1.39317130000E-01
  1.42765670000E-01  1.46295450000E-01  1.49908050000E-01  1.53605070000E-01
  1.57388110000E-01  1.61258770000E-01  1.65218620000E-01  1.69269260000E-01
  1.73412260000E-01  1.77649180000E-01  1.81981550000E-01  1.86410900000E-01
  1.90938700000E-01  1.95566400000E-01  2.00295420000E-01  2.05127120000E-01
  2.10062790000E-01  2.15103700000E-01  2.20251000000E-01  2.25505790000E-01
  2.30869090000E-01  2.36341780000E-01  2.41924680000E-01  2.47618450000E-01
  2.53423640000E-01  2.59340640000E-01  2.65369680000E-01  2.71510830000E-01
  2.77763960000E-01  2.84128720000E-01  2.90604570000E-01  2.97190700000E-01
  3.03886070000E-01  3.10689340000E-01  3.17598890000E-01  3.24612770000E-01
  3.31728730000E-01  3.38944140000E-01  3.46256000000E-01  3.53660940000E-01
  3.61155170000E-01  3.68734470000E-01  3.76394210000E-01  3.84129270000E-01
  3.91934100000E-01  3.99802680000E-01  4.07728490000E-01  4.15704580000E-01
  4.23723500000E-01  4.31777360000E-01  4.39857850000E-01  4.47956210000E-01
  4.56063350000E-01  4.64169810000E-01  4.72265860000E-01  4.80341560000E-01
  4.88386810000E-01  4.96391440000E-01  5.04345300000E-01  5.12238380000E-01
  5.20060900000E-01  5.27803420000E-01  5.35456970000E-01  5.43013200000E-01
  5.50464410000E-01  5.57803750000E-01  5.65025260000E-01  5.72123970000E-01
  5.79095890000E-01  5.85938080000E-01  5.92648550000E-01  5.99226180000E-01
  6.05670550000E-01  6.11981700000E-01  6.18159790000E-01  6.24204750000E-01
  6.30115740000E-01  6.35890730000E-01  6.41525860000E-01  6.47014960000E-01
  6.52349060000E-01  6.57516110000E-01  6.62500840000E-01  6.67285060000E-01
  6.71848280000E-01  6.76168860000E-01  6.80225500000E-01  6.83998950000E-01
  6.87473210000E-01  6.90635280000E-01  6.93473270000E-01  6.95975490000E-01
  6.98130450000E-01  6.99926950000E-01  7.01354050000E-01  7.02401160000E-01
  7.03058080000E-01  7.03315010000E-01  7.03162670000E-01  7.02592250000E-01
  7.01595560000E-01  7.00164990000E-01  6.98293630000E-01  6.95975280000E-01
  6.93204500000E-01  6.89976690000E-01  6.86288100000E-01  6.82135910000E-01
  6.77518270000E-01  6.72434340000E-01  6.66884340000E-01  6.60869610000E-01
  6.54392600000E-01  6.47456980000E-01  6.40067620000E-01  6.32230650000E-01
  6.23953450000E-01  6.15244730000E-01  6.06114480000E-01  5.96574040000E-01
  5.86636040000E-01  5.76314420000E-01  5.65624440000E-01  5.54582590000E-01
  5.43206620000E-01  5.31515440000E-01  5.19529090000E-01  5.07268640000E-01
  4.94756170000E-01  4.82014600000E-01  4.69067670000E-01  4.55939760000E-01
  4.42655850000E-01  4.29241350000E-01  4.15721980000E-01  4.02123700000E-01
  3.88472520000E-01  3.74794440000E-01  3.61115310000E-01  3.47460740000E-01
  3.33855980000E-01  3.20325830000E-01  3.06894610000E-01  2.93586030000E-01
  2.80423130000E-01  2.67428270000E-01  2.54623050000E-01  2.42028250000E-01
  2.29663830000E-01  2.17548840000E-01  2.05701420000E-01  1.94138720000E-01
  1.82876880000E-01  1.71930930000E-01  1.61314770000E-01  1.51041100000E-01
  1.41121300000E-01  1.31565420000E-01  1.22382080000E-01  1.13578380000E-01
  1.05159900000E-01  9.71305910000E-02  8.94927600000E-02  8.22470580000E-02
  7.53924670000E-02  6.89263160000E-02  6.28443150000E-02  5.71406130000E-02
  5.18078650000E-02  4.68373260000E-02  4.22189570000E-02  3.79415420000E-02
  3.39928170000E-02  3.03596130000E-02  2.70279990000E-02  2.39834250000E-02
  2.12108790000E-02  1.86950240000E-02  1.64203480000E-02  1.43712960000E-02
  1.25323970000E-02  1.08883890000E-02  9.42431840000E-03  8.12564640000E-03
  6.97832680000E-03  5.96888160000E-03  5.08446040000E-03  4.31288770000E-03
  3.64269890000E-03  3.06316420000E-03  2.56430190000E-03  2.13688210000E-03
  1.77242110000E-03  1.46316760000E-03  1.20208120000E-03  9.82822840000E-04
  7.99615700000E-04  6.47602140000E-04  5.21934490000E-04  4.18337470000E-04
  3.33380530000E-04  2.64122950000E-04  2.07998930000E-04  1.62794640000E-04
  1.26612460000E-04  9.78366880000E-05  7.51010130000E-05  5.72580630000E-05
  4.33511370000E-05  3.25882930000E-05  2.43188140000E-05  1.80120550000E-05
  1.32386210000E-05  9.65378020000E-06  6.98300200000E-06  5.00945730000E-06
  3.56332890000E-06  2.51278260000E-06  0.00000000000E+00  0.00000000000E+00
  0.00000000000E+00  0.00000000000E+00  0.00000000000E+00  0.00000000000E+00
  0.00000000000E+00  0.00000000000E+00  0.00000000000E+00  0.00000000000E+00
  0.00000000000E+00  0.00000000000E+00  0.00000000000E+00  0.00000000000E+00
  0.00000000000E+00  0.00000000000E+00  0.00000000000E+00  0.00000000000E+00
  0.00000000000E+00  0.00000000000E+00  0.00000000000E+00  0.00000000000E+00
  0.00000000000E+00  0.00000000000E+00  0.00000000000E+00  0.00000000000E+00
  0.00000000000E+00  0.00000000000E+00  0.00000000000E+00  0.00000000000E+00
  0.00000000000E+00  0.00000000000E+00  0.00000000000E+00  0.00000000000E+00
  0.00000000000E+00  0.00000000000E+00  0.00000000000E+00  0.00000000000E+00
  0.00000000000E+00  0.00000000000E+00  0.00000000000E+00  0.00000000000E+00
  0.00000000000E+00
</PP_PSWFC>


<PP_RHOATOM>
  8.48899328559E-04  8.92381551036E-04  9.38088717959E-04  9.86134528923E-04
  1.03663830901E-03  1.08972559282E-03  1.14552815931E-03  1.20418452466E-03
  1.26584026467E-03  1.33064835067E-03  1.39876942482E-03  1.47037230865E-03
  1.54563447074E-03  1.62474220006E-03  1.70789125634E-03  1.79528740437E-03
  1.88714663257E-03  1.98369597584E-03  2.08517377167E-03  2.19183036539E-03
  2.30392886455E-03  2.42174545338E-03  2.54557029379E-03  2.67570797874E-03
  2.81247830010E-03  2.95621738515E-03  3.10727781253E-03  3.26602991766E-03
  3.43286239252E-03  3.60818348538E-03  3.79242154937E-03  3.98602607841E-03
  4.18946905683E-03  4.40324574230E-03  4.62787558774E-03  4.86390416096E-03
  5.11190308789E-03  5.37247249131E-03  5.64624186631E-03  5.93387109608E-03
  6.23605242094E-03  6.55351125814E-03  6.88700864193E-03  7.23734182611E-03
  7.60534654182E-03  7.99189834507E-03  8.39791470938E-03  8.82435648630E-03
  9.27223014946E-03  9.74258898034E-03  1.02365364351E-02  1.07552268889E-02
  1.12998664587E-02  1.18717215522E-02  1.24721119315E-02  1.31024170803E-02
  1.37640832954E-02  1.44586171311E-02  1.51875947850E-02  1.59526599987E-02
  1.67555316708E-02  1.75979963874E-02  1.84819239591E-02  1.94092627114E-02
  2.03820365305E-02  2.14023586907E-02  2.24724234548E-02  2.35945175297E-02
  2.47710171694E-02  2.60043909019E-02  2.72971923947E-02  2.86520823809E-02
  3.00718119183E-02  3.15592311547E-02  3.31172845404E-02  3.47490236388E-02
  3.64575871577E-02  3.82462168090E-02  4.01182552730E-02  4.20771353595E-02
  4.41263757426E-02  4.62696017537E-02  4.85105030010E-02  5.08528613235E-02
  5.33005367174E-02  5.58574369736E-02  5.85275507931E-02  6.13148967804E-02
  6.42235413108E-02  6.72575675556E-02  7.04210670633E-02  7.37181308073E-02
  7.71528174749E-02  8.07291295288E-02  8.44510161049E-02  8.83223121665E-02
  9.23467435400E-02  9.65278659896E-02  1.00869054929E-01  1.05373450447E-01
  1.10043950307E-01  1.14883130040E-01  1.19893217536E-01  1.25076060482E-01
  1.30433056818E-01  1.35965109366E-01  1.41672601322E-01  1.47555296071E-01
  1.53612338743E-01  1.59842182935E-01  1.66242521558E-01  1.72810297833E-01
  1.79541604452E-01  1.86431688609E-01  1.93474928207E-01  2.00664766078E-01
  2.07993779213E-01  2.15453612515E-01  2.23035042522E-01  2.30728014263E-01
  2.38521676182E-01  2.46404461705E-01  2.54364181632E-01  2.62388157945E-01
  2.70463339709E-01  2.78576450164E-01  2.86714166722E-01  2.94863335374E-01
  3.03011066677E-01  3.11145023514E-01  3.19253544438E-01  3.27325837049E-01
  3.35352049815E-01  3.43323433594E-01  3.51232303817E-01  3.59072014797E-01
  3.66836815137E-01  3.74521601135E-01  3.82121525973E-01  3.89631569923E-01
  3.97045845796E-01  4.04357020500E-01  4.11555429049E-01  4.18628358464E-01
  4.25559296083E-01  4.32327434910E-01  4.38907363001E-01  4.45269351299E-01
  4.51380111339E-01  4.57204327234E-01  4.62706730850E-01  4.67854563601E-01
  4.72619414468E-01  4.76977089981E-01  4.80905176204E-01  4.84381882681E-01
  4.87386125217E-01  4.89897735336E-01  4.91897503451E-01  4.93367389569E-01
  4.94290663853E-01  4.94652003291E-01  4.94437740482E-01  4.93635869760E-01
  4.92236329812E-01  4.90231013222E-01  4.87613993699E-01  4.84381590371E-01
  4.80532478820E-01  4.76067832743E-01  4.70991356202E-01  4.65309399712E-01
  4.59031006184E-01  4.52167941611E-01  4.44734722937E-01  4.36748641422E-01
  4.28229674935E-01  4.19200540951E-01  4.09686558172E-01  3.99715594799E-01
  3.89317907767E-01  3.78526077793E-01  3.67374762866E-01  3.55900585202E-01
  3.44141843427E-01  3.32138310700E-01  3.19931007125E-01  3.07561849131E-01