<PP_INFO>
Generated using Andrea Dal Corso code (rrkj3)
Author: Andrea Dal Corso   Generation date: unknown
Info:   O LDA 2s2 2p4 RRKJ3 US
    1        The Pseudo was generated with a Scalar-Relativistic Calculation
  1.40000000000E+00    Local Potential cutoff radius
nl pn  l   occ               Rcut            Rcut US             E pseu
2S  1  0  2.00      1.40000000000      1.60000000000      0.00000000000
2S  1  0  0.00      1.40000000000      1.60000000000      0.00000000000
2P  2  1  4.00      1.40000000000      1.60000000000      0.00000000000
2P  2  1  0.00      1.40000000000      1.60000000000      0.00000000000
3D  3  2 -2.00      1.40000000000      1.40000000000      0.00000000000
</PP_INFO>


<PP_HEADER>
   0                   Version Number
  O                    Element
   US                  Ultrasoft pseudopotential
    F                  Nonlinear Core Correction
 SLA  PZ   NOGX NOGC   PZ   Exchange-Correlation functional
    6.00000000000      Z valence
  -31.31422127500      Total energy
  0.0000000  0.0000000 Suggested cutoff for wfc and rho
    2                  Max angular momentum component
 1269                  Number of points in mesh
    2    4             Number of Wavefunctions, Number of Projectors
 Wavefunctions         nl  l   occ
                       2S  0  2.00
                       2P  1  4.00
</PP_HEADER>


<PP_MESH>
  <PP_R>
  3.09844022083E-04  3.12958006275E-04  3.16103286529E-04  3.19280177374E-04
  3.22488996503E-04  3.25730064801E-04  3.29003706377E-04  3.32310248597E-04
  3.35650022119E-04  3.39023360923E-04  3.42430602346E-04  3.45872087114E-04
  3.49348159380E-04  3.52859166752E-04  3.56405460335E-04  3.59987394761E-04
  3.63605328227E-04  3.67259622528E-04  3.70950643098E-04  3.74678759041E-04
  3.78444343172E-04  3.82247772053E-04  3.86089426030E-04  3.89969689271E-04
  3.93888949806E-04  3.97847599564E-04  4.01846034413E-04  4.05884654201E-04
  4.09963862793E-04  4.14084068112E-04  4.18245682184E-04  4.22449121172E-04
  4.26694805424E-04  4.30983159513E-04  4.35314612276E-04  4.39689596864E-04
  4.44108550778E-04  4.48571915916E-04  4.53080138621E-04  4.57633669716E-04
  4.62232964560E-04  4.66878483086E-04  4.71570689849E-04  4.76310054074E-04
  4.81097049701E-04  4.85932155435E-04  4.90815854788E-04  4.95748636136E-04
  5.00730992761E-04  5.05763422903E-04  5.10846429808E-04  5.15980521782E-04
  5.21166212238E-04  5.26404019750E-04  5.31694468102E-04  5.37038086344E-04
  5.42435408842E-04  5.47886975334E-04  5.53393330979E-04  5.58955026419E-04
  5.64572617827E-04  5.70246666967E-04  5.75977741249E-04  5.81766413785E-04
  5.87613263448E-04  5.93518874926E-04  5.99483838787E-04  6.05508751531E-04
  6.11594215655E-04  6.17740839710E-04  6.23949238364E-04  6.30220032461E-04
  6.36553849087E-04  6.42951321629E-04  6.49413089838E-04  6.55939799898E-04
  6.62532104484E-04  6.69190662832E-04  6.75916140805E-04  6.82709210955E-04
  6.89570552595E-04  6.96500851865E-04  7.03500801801E-04  7.10571102402E-04
  7.17712460707E-04  7.24925590855E-04  7.32211214167E-04  7.39570059210E-04
  7.47002861876E-04  7.54510365450E-04  7.62093320689E-04  7.69752485896E-04
  7.77488626993E-04  7.85302517600E-04  7.93194939114E-04  8.01166680782E-04
  8.09218539786E-04  8.17351321319E-04  8.25565838664E-04  8.33862913282E-04
  8.42243374886E-04  8.50708061529E-04  8.59257819687E-04  8.67893504343E-04
  8.76615979073E-04  8.85426116132E-04  8.94324796539E-04  9.03312910172E-04
  9.12391355849E-04  9.21561041421E-04  9.30822883866E-04  9.40177809374E-04
  9.49626753447E-04  9.59170660987E-04  9.68810486392E-04  9.78547193653E-04
  9.88381756449E-04  9.98315158244E-04  1.00834839239E-03  1.01848246221E-03
  1.02871838113E-03  1.03905717274E-03  1.04949987094E-03  1.06004751999E-03
  1.07070117469E-03  1.08146190039E-03  1.09233077318E-03  1.10330887997E-03
  1.11439731855E-03  1.12559719780E-03  1.13690963771E-03  1.14833576953E-03
  1.15987673588E-03  1.17153369088E-03  1.18330780021E-03  1.19520024132E-03
  1.20721220344E-03  1.21934488779E-03  1.23159950765E-03  1.24397728848E-03
  1.25647946808E-03  1.26910729667E-03  1.28186203705E-03  1.29474496470E-03
  1.30775736793E-03  1.32090054798E-03  1.33417581919E-03  1.34758450909E-03
  1.36112795857E-03  1.37480752198E-03  1.38862456728E-03  1.40258047620E-03
  1.41667664433E-03  1.43091448131E-03  1.44529541093E-03  1.45982087130E-03
  1.47449231497E-03  1.48931120910E-03  1.50427903559E-03  1.51939729124E-03
  1.53466748788E-03  1.55009115256E-03  1.56566982763E-03  1.58140507100E-03
  1.59729845619E-03  1.61335157256E-03  1.62956602543E-03  1.64594343626E-03
  1.66248544281E-03  1.67919369928E-03  1.69606987653E-03  1.71311566217E-03
  1.73033276081E-03  1.74772289417E-03  1.76528780127E-03  1.78302923862E-03
  1.80094898039E-03  1.81904881855E-03  1.83733056311E-03  1.85579604226E-03
  1.87444710256E-03  1.89328560913E-03  1.91231344584E-03  1.93153251549E-03
  1.95094474000E-03  1.97055206061E-03  1.99035643806E-03  2.01035985282E-03
  2.03056430524E-03  2.05097181579E-03  2.07158442522E-03  2.09240419482E-03
  2.11343320659E-03  2.13467356344E-03  2.15612738942E-03  2.17779682994E-03
  2.19968405195E-03  2.22179124421E-03  2.24412061744E-03  2.26667440460E-03
  2.28945486109E-03  2.31246426498E-03  2.33570491722E-03  2.35917914189E-03
  2.38288928645E-03  2.40683772192E-03  2.43102684317E-03  2.45545906913E-03
  2.48013684305E-03  2.50506263271E-03  2.53023893073E-03  2.55566825474E-03
  2.58135314771E-03  2.60729617815E-03  2.63349994038E-03  2.65996705480E-03
  2.68670016814E-03  2.71370195373E-03  2.74097511178E-03  2.76852236963E-03
  2.79634648202E-03  2.82445023139E-03  2.85283642814E-03  2.88150791090E-03
  2.91046754686E-03  2.93971823200E-03  2.96926289141E-03  2.99910447959E-03
  3.02924598071E-03  3.05969040896E-03  3.09044080879E-03  3.12150025528E-03
  3.15287185440E-03  3.18455874334E-03  3.21656409079E-03  3.24889109734E-03
  3.28154299571E-03  3.31452305111E-03  3.34783456158E-03  3.38148085829E-03
  3.41546530591E-03  3.44979130291E-03  3.48446228191E-03  3.51948171004E-03
  3.55485308927E-03  3.59057995678E-03  3.62666588527E-03  3.66311448338E-03
  3.69992939599E-03  3.73711430462E-03  3.77467292779E-03  3.81260902140E-03
  3.85092637909E-03  3.88962883263E-03  3.92872025230E-03  3.96820454726E-03
  4.00808566598E-03  4.04836759661E-03  4.08905436738E-03  4.13015004699E-03
  4.17165874504E-03  4.21358461245E-03  4.25593184182E-03  4.29870466793E-03
  4.34190736809E-03  4.38554426261E-03  4.42961971520E-03  4.47413813346E-03
  4.51910396926E-03  4.56452171922E-03  4.61039592516E-03  4.65673117453E-03
  4.70353210090E-03  4.75080338440E-03  4.79854975219E-03  4.84677597897E-03
  4.89548688737E-03  4.94468734855E-03  4.99438228258E-03  5.04457665900E-03
  5.09527549730E-03  5.14648386738E-03  5.19820689015E-03  5.25044973793E-03
  5.30321763506E-03  5.35651585838E-03  5.41034973775E-03  5.46472465659E-03
  5.51964605246E-03  5.57511941753E-03  5.63115029919E-03  5.68774430058E-03
  5.74490708113E-03  5.80264435718E-03  5.86096190250E-03  5.91986554889E-03
  5.97936118677E-03  6.03945476576E-03  6.10015229525E-03  6.16145984506E-03
  6.22338354598E-03  6.28592959045E-03  6.34910423311E-03  6.41291379149E-03
  6.47736464659E-03  6.54246324355E-03  6.60821609229E-03  6.67462976815E-03
  6.74171091254E-03  6.80946623365E-03  6.87790250705E-03  6.94702657644E-03
  7.01684535427E-03  7.08736582248E-03  7.15859503318E-03  7.23054010935E-03
  7.30320824556E-03  7.37660670868E-03  7.45074283862E-03  7.52562404905E-03
  7.60125782815E-03  7.67765173938E-03  7.75481342217E-03  7.83275059277E-03
  7.91147104496E-03  7.99098265084E-03  8.07129336165E-03  8.15241120852E-03
  8.23434430330E-03  8.31710083938E-03  8.40068909247E-03  8.48511742147E-03
  8.57039426928E-03  8.65652816367E-03  8.74352771808E-03  8.83140163255E-03
  8.92015869455E-03  9.00980777985E-03  9.10035785343E-03  9.19181797038E-03
  9.28419727679E-03  9.37750501067E-03  9.47175050286E-03  9.56694317799E-03
  9.66309255541E-03  9.76020825014E-03  9.85829997383E-03  9.95737753574E-03
  1.00574508437E-02  1.01585299051E-02  1.02606248280E-02  1.03637458219E-02
  1.04679031990E-02  1.05731073752E-02  1.06793688709E-02  1.07866983124E-02
  1.08951064327E-02  1.10046040728E-02  1.11152021824E-02  1.12269118215E-02
  1.13397441612E-02  1.14537104847E-02  1.15688221888E-02  1.16850907848E-02
  1.18025278995E-02  1.19211452769E-02  1.20409547788E-02  1.21619683862E-02
  1.22841982005E-02  1.24076564450E-02  1.25323554654E-02  1.26583077317E-02
  1.27855258394E-02  1.29140225104E-02  1.30438105943E-02  1.31749030702E-02
  1.33073130474E-02  1.34410537670E-02  1.35761386031E-02  1.37125810644E-02
  1.38503947953E-02  1.39895935772E-02  1.41301913301E-02  1.42722021139E-02
  1.44156401298E-02  1.45605197217E-02  1.47068553777E-02  1.48546617316E-02
  1.50039535639E-02  1.51547458042E-02  1.53070535316E-02  1.54608919772E-02
  1.56162765248E-02  1.57732227131E-02  1.59317462369E-02  1.60918629485E-02
  1.62535888598E-02  1.64169401436E-02  1.65819331350E-02  1.67485843336E-02
  1.69169104046E-02  1.70869281807E-02  1.72586546639E-02  1.74321070269E-02
  1.76073026151E-02  1.77842589483E-02  1.79629937222E-02  1.81435248105E-02
  1.83258702663E-02  1.85100483244E-02  1.86960774028E-02  1.88839761045E-02
  1.90737632196E-02  1.92654577269E-02  1.94590787960E-02  1.96546457892E-02
  1.98521782634E-02  2.00516959719E-02  2.02532188667E-02  2.04567671003E-02
  2.06623610277E-02  2.08700212084E-02  2.10797684086E-02  2.12916236032E-02
  2.15056079779E-02  2.17217429313E-02  2.19400500771E-02  2.21605512462E-02
  2.23832684889E-02  2.26082240771E-02  2.28354405066E-02  2.30649404991E-02
  2.32967470049E-02  2.35308832048E-02  2.37673725127E-02  2.40062385776E-02
  2.42475052864E-02  2.44911967659E-02  2.47373373855E-02  2.49859517594E-02
  2.52370647493E-02  2.54907014668E-02  2.57468872756E-02  2.60056477946E-02
  2.62670089001E-02  2.65309967283E-02  2.67976376784E-02  2.70669584145E-02
  2.73389858690E-02  2.76137472449E-02  2.78912700186E-02  2.81715819424E-02
  2.84547110480E-02  2.87406856483E-02  2.90295343412E-02  2.93212860117E-02
  2.96159698353E-02  2.99136152805E-02  3.02142521121E-02  3.05179103942E-02
  3.08246204927E-02  3.11344130790E-02  3.14473191325E-02  3.17633699441E-02
  3.20825971192E-02  3.24050325807E-02  3.27307085725E-02  3.30596576625E-02
  3.33919127457E-02  3.37275070481E-02  3.40664741293E-02  3.44088478862E-02
  3.47546625566E-02  3.51039527223E-02  3.54567533125E-02  3.58130996075E-02
  3.61730272424E-02  3.65365722101E-02  3.69037708655E-02  3.72746599287E-02
  3.76492764890E-02  3.80276580083E-02  3.84098423251E-02  3.87958676582E-02
  3.91857726103E-02  3.95795961724E-02  3.99773777270E-02  4.03791570528E-02
  4.07849743279E-02  4.11948701344E-02  4.16088854623E-02  4.20270617133E-02
  4.24494407056E-02  4.28760646773E-02  4.33069762913E-02  4.37422186389E-02
  4.41818352448E-02  4.46258700711E-02  4.50743675216E-02  4.55273724464E-02
  4.59849301464E-02  4.64470863778E-02  4.69138873564E-02  4.73853797629E-02
  4.78616107469E-02  4.83426279318E-02  4.88284794198E-02  4.93192137965E-02
  4.98148801356E-02  5.03155280042E-02  5.08212074676E-02  5.13319690940E-02
  5.18478639602E-02  5.23689436560E-02  5.28952602897E-02  5.34268664936E-02
  5.39638154286E-02  5.45061607902E-02  5.50539568132E-02  5.56072582779E-02
  5.61661205147E-02  5.67305994103E-02  5.73007514132E-02  5.78766335389E-02
  5.84583033762E-02  5.90458190926E-02  5.96392394401E-02  6.02386237613E-02
  6.08440319950E-02  6.14555246826E-02  6.20731629739E-02  6.26970086333E-02
  6.33271240457E-02  6.39635722233E-02  6.46064168115E-02  6.52557220951E-02
  6.59115530054E-02  6.65739751259E-02  6.72430546993E-02  6.79188586343E-02
  6.86014545118E-02  6.92909105918E-02  6.99872958207E-02  7.06906798374E-02
  7.14011329811E-02  7.21187262976E-02  7.28435315467E-02  7.35756212098E-02
  7.43150684963E-02  7.50619473515E-02  7.58163324641E-02  7.65782992731E-02
  7.73479239758E-02  7.81252835353E-02  7.89104556884E-02  7.97035189527E-02
  8.05045526354E-02  8.13136368404E-02  8.21308524769E-02  8.29562812670E-02
  8.37900057545E-02  8.46321093123E-02  8.54826761515E-02  8.63417913297E-02
  8.72095407589E-02  8.80860112148E-02  8.89712903453E-02  8.98654666790E-02
  9.07686296342E-02  9.16808695280E-02  9.26022775852E-02  9.35329459473E-02
  9.44729676820E-02  9.54224367921E-02  9.63814482254E-02  9.73500978839E-02
  9.83284826333E-02  9.93167003129E-02  1.00314849745E-01  1.01323030746E-01
  1.02341344135E-01  1.03369891743E-01  1.04408776426E-01  1.05458102075E-01
  1.06517973621E-01  1.07588497053E-01  1.08669779425E-01  1.09761928865E-01
  1.10865054590E-01  1.11979266912E-01  1.13104677254E-01  1.14241398159E-01
  1.15389543298E-01  1.16549227488E-01  1.17720566698E-01  1.18903678063E-01
  1.20098679894E-01  1.21305691694E-01  1.22524834163E-01  1.23756229219E-01
  1.25000000000E-01  1.26256270886E-01  1.27525167503E-01  1.28806816744E-01
  1.30101346774E-01  1.31408887047E-01  1.32729568318E-01  1.34063522657E-01
  1.35410883459E-01  1.36771785463E-01  1.38146364759E-01  1.39534758807E-01
  1.40937106447E-01  1.42353547916E-01  1.43784224857E-01  1.45229280341E-01
  1.46688858874E-01  1.48163106415E-01  1.49652170390E-01  1.51156199707E-01
  1.52675344770E-01  1.54209757495E-01  1.55759591323E-01  1.57325001241E-01
  1.58906143790E-01  1.60503177086E-01  1.62116260833E-01  1.63745556342E-01
  1.65391226542E-01  1.67053436003E-01  1.68732350947E-01  1.70428139267E-01
  1.72140970542E-01  1.73871016058E-01  1.75618448820E-01  1.77383443574E-01
  1.79166176820E-01  1.80966826833E-01  1.82785573679E-01  1.84622599235E-01
  1.86478087205E-01  1.88352223139E-01  1.90245194452E-01  1.92157190444E-01
  1.94088402314E-01  1.96039023186E-01  1.98009248124E-01  1.99999274152E-01
  2.02009300274E-01  2.04039527494E-01  2.06090158838E-01  2.08161399368E-01
  2.10253456212E-01  2.12366538577E-01  2.14500857773E-01  2.16656627233E-01
  2.18834062537E-01  2.21033381429E-01  2.23254803844E-01  2.25498551925E-01
  2.27764850049E-01  2.30053924848E-01  2.32366005231E-01  2.34701322408E-01
  2.37060109913E-01  2.39442603627E-01  2.41849041800E-01  2.44279665079E-01
  2.46734716529E-01  2.49214441655E-01  2.51719088434E-01  2.54248907331E-01
  2.56804151330E-01  2.59385075959E-01  2.61991939312E-01  2.64625002077E-01
  2.67284527562E-01  2.69970781723E-01  2.72684033187E-01  2.75424553282E-01
  2.78192616062E-01  2.80988498335E-01  2.83812479692E-01  2.86664842533E-01
  2.89545872098E-01  2.92455856491E-01  2.95395086713E-01  2.98363856691E-01
  3.01362463302E-01  3.04391206411E-01  3.07450388895E-01  3.10540316673E-01
  3.13661298742E-01  3.16813647202E-01  3.19997677291E-01  3.23213707414E-01
  3.26462059178E-01  3.29743057419E-01  3.33057030241E-01  3.36404309044E-01
  3.39785228557E-01  3.43200126877E-01  3.46649345496E-01  3.50133229337E-01
  3.53652126794E-01  3.57206389758E-01  3.60796373658E-01  3.64422437497E-01
  3.68084943883E-01  3.71784259070E-01  3.75520752993E-01  3.79294799304E-01
  3.83106775412E-01  3.86957062516E-01  3.90846045648E-01  3.94774113711E-01
  3.98741659515E-01  4.02749079816E-01  4.06796775361E-01  4.10885150923E-01
  4.15014615342E-01  4.19185581569E-01  4.23398466703E-01  4.27653692036E-01
  4.31951683095E-01  4.36292869683E-01  4.40677685921E-01  4.45106570294E-01
  4.49579965696E-01  4.54098319469E-01  4.58662083452E-01  4.63271714026E-01
  4.67927672158E-01  4.72630423446E-01  4.77380438171E-01  4.82178191337E-01
  4.87024162724E-01  4.91918836934E-01  4.96862703437E-01  5.01856256624E-01
  5.06899995856E-01  5.11994425509E-01  5.17140055031E-01  5.22337398990E-01
  5.27586977125E-01  5.32889314396E-01  5.38244941043E-01  5.43654392633E-01
  5.49118210115E-01  5.54636939875E-01  5.60211133792E-01  5.65841349289E-01
  5.71528149393E-01  5.77272102787E-01  5.83073783874E-01  5.88933772824E-01
  5.94852655642E-01  6.00831024222E-01  6.06869476405E-01  6.12968616041E-01
  6.19129053049E-01  6.25351403479E-01  6.31636289570E-01  6.37984339817E-01
  6.44396189029E-01  6.50872478397E-01  6.57413855556E-01  6.64020974648E-01
  6.70694496390E-01  6.77435088141E-01  6.84243423966E-01  6.91120184703E-01
  6.98066058035E-01  7.05081738554E-01  7.12167927834E-01  7.19325334501E-01
  7.26554674300E-01  7.33856670173E-01  7.41232052324E-01  7.48681558298E-01
  7.56205933052E-01  7.63805929029E-01  7.71482306235E-01  7.79235832316E-01
  7.87067282628E-01  7.94977440325E-01  8.02967096429E-01  8.11037049911E-01
  8.19188107774E-01  8.27421085130E-01  8.35736805285E-01  8.44136099816E-01
  8.52619808661E-01  8.61188780198E-01  8.69843871330E-01  8.78585947574E-01
  8.87415883145E-01  8.96334561043E-01  9.05342873145E-01  9.14441720289E-01
  9.23632012366E-01  9.32914668415E-01  9.42290616708E-01  9.51760794847E-01
  9.61326149860E-01  9.70987638288E-01  9.80746226290E-01  9.90602889731E-01
  1.00055861429E+00  1.01061439554E+00  1.02077123907E+00  1.03103016058E+00
  1.04139218596E+00  1.05185835143E+00  1.06242970361E+00  1.07310729965E+00
  1.08389220731E+00  1.09478550509E+00  1.10578828234E+00  1.11690163934E+00
  1.12812668743E+00  1.13946454913E+00  1.15091635824E+00  1.16248325994E+00
  1.17416641093E+00  1.18596697954E+00  1.19788614585E+00  1.20992510176E+00
  1.22208505119E+00  1.23436721015E+00  1.24677280685E+00  1.25930308188E+00
  1.27195928826E+00  1.28474269163E+00  1.29765457034E+00  1.31069621559E+00
  1.32386893155E+00  1.33717403551E+00  1.35061285799E+00  1.36418674288E+00
  1.37789704758E+00  1.39174514313E+00  1.40573241436E+00  1.41986026000E+00
  1.43413009285E+00  1.44854333990E+00  1.46310144250E+00  1.47780585646E+00
  1.49265805223E+00  1.50765951506E+00  1.52281174509E+00  1.53811625756E+00
  1.55357458295E+00  1.56918826708E+00  1.58495887135E+00  1.60088797283E+00
  1.61697716444E+00  1.63322805512E+00  1.64964226996E+00  1.66622145040E+00
  1.68296725438E+00  1.69988135648E+00  1.71696544813E+00  1.73422123777E+00
  1.75165045097E+00  1.76925483067E+00  1.78703613733E+00  1.80499614910E+00
  1.82313666199E+00  1.84145949006E+00  1.85996646561E+00  1.87865943936E+00
  1.89754028062E+00  1.91661087749E+00  1.93587313704E+00  1.95532898552E+00
  1.97498036853E+00  1.99482925122E+00  2.01487761850E+00  2.03512747522E+00
  2.05558084639E+00  2.07623977735E+00  2.09710633402E+00  2.11818260307E+00
  2.13947069214E+00  2.16097273007E+00  2.18269086707E+00  2.20462727498E+00
  2.22678414745E+00  2.24916370019E+00  2.27176817118E+00  2.29459982088E+00
  2.31766093247E+00  2.34095381208E+00  2.36448078903E+00  2.38824421603E+00
  2.41224646944E+00  2.43648994950E+00  2.46097708060E+00  2.48571031145E+00
  2.51069211540E+00  2.53592499066E+00  2.56141146052E+00  2.58715407367E+00
  2.61315540439E+00  2.63941805282E+00  2.66594464525E+00  2.69273783438E+00
  2.71980029952E+00  2.74713474697E+00  2.77474391018E+00  2.80263055009E+00
  2.83079745540E+00  2.85924744281E+00  2.88798335734E+00  2.91700807262E+00
  2.94632449113E+00  2.97593554455E+00  3.00584419401E+00  3.03605343039E+00
  3.06656627464E+00  3.09738577807E+00  3.12851502267E+00  3.15995712137E+00
  3.19171521842E+00  3.22379248965E+00  3.25619214281E+00  3.28891741791E+00
  3.32197158748E+00  3.35535795699E+00  3.38907986508E+00  3.42314068399E+00
  3.45754381981E+00  3.49229271290E+00  3.52739083818E+00  3.56284170547E+00
  3.59864885991E+00  3.63481588222E+00  3.67134638916E+00  3.70824403380E+00
  3.74551250592E+00  3.78315553243E+00  3.82117687763E+00  3.85958034371E+00
  3.89836977104E+00  3.93754903859E+00  3.97712206433E+00  4.01709280559E+00
  4.05746525948E+00  4.09824346328E+00  4.13943149484E+00  4.18103347299E+00
  4.22305355798E+00  4.26549595184E+00  4.30836489886E+00  4.35166468595E+00
  4.39539964314E+00  4.43957414395E+00  4.48419260588E+00  4.52925949081E+00
  4.57477930546E+00  4.62075660185E+00  4.66719597776E+00  4.71410207715E+00
  4.76147959067E+00  4.80933325613E+00  4.85766785892E+00  4.90648823254E+00
  4.95579925907E+00  5.00560586966E+00  5.05591304501E+00  5.10672581587E+00
  5.15804926358E+00  5.20988852050E+00  5.26224877062E+00  5.31513525001E+00
  5.36855324735E+00  5.42250810448E+00  5.47700521695E+00  5.53205003450E+00
  5.58764806166E+00  5.64380485829E+00  5.70052604011E+00  5.75781727928E+00
  5.81568430497E+00  5.87413290395E+00  5.93316892111E+00  5.99279826010E+00
  6.05302688392E+00  6.11386081547E+00  6.17530613819E+00  6.23736899668E+00
  6.30005559726E+00  6.36337220865E+00  6.42732516257E+00  6.49192085435E+00
  6.55716574364E+00  6.62306635496E+00  6.68962927844E+00  6.75686117042E+00
  6.82476875414E+00  6.89335882043E+00  6.96263822835E+00  7.03261390589E+00
  7.10329285068E+00  7.17468213068E+00  7.24678888487E+00  7.31962032399E+00
  7.39318373124E+00  7.46748646302E+00  7.54253594967E+00  7.61833969620E+00
  7.69490528305E+00  7.77224036685E+00  7.85035268115E+00  7.92925003727E+00
  8.00894032499E+00  8.08943151343E+00  8.17073165175E+00  8.25284887005E+00
  8.33579138012E+00  8.41956747626E+00  8.50418553618E+00  8.58965402173E+00
  8.67598147984E+00  8.76317654334E+00  8.85124793178E+00  8.94020445240E+00
  9.03005500092E+00  9.12080856245E+00  9.21247421245E+00  9.30506111754E+00
  9.39857853650E+00  9.49303582115E+00  9.58844241729E+00  9.68480786566E+00
  9.78214180289E+00  9.88045396245E+00  9.97975417564E+00  1.00800523726E+01
  1.01813585831E+01  1.02836829380E+01  1.03870356698E+01  1.04914271138E+01
  1.05968677092E+01  1.07033680003E+01  1.08109386370E+01  1.09195903767E+01
  1.10293340845E+01  1.11401807348E+01  1.12521414126E+01  1.13652273138E+01
  1.14794497473E+01  1.15948201353E+01  1.17113500149E+01  1.18290510394E+01
  1.19479349788E+01  1.20680137216E+01  1.21892992759E+01  1.23118037702E+01
  1.24355394552E+01  1.25605187045E+01  1.26867540162E+01  1.28142580138E+01
  1.29430434479E+01  1.30731231971E+01  1.32045102696E+01  1.33372178041E+01
  1.34712590714E+01  1.36066474759E+01  1.37433965565E+01  1.38815199882E+01
  1.40210315835E+01  1.41619452936E+01  1.43042752100E+01  1.44480355659E+01
  1.45932407374E+01  1.47399052451E+01  1.48880437556E+01  1.50376710829E+01
  1.51888021898E+01  1.53414521897E+01  1.54956363475E+01  1.56513700818E+01
  1.58086689663E+01  1.59675487308E+01  1.61280252634E+01  1.62901146121E+01
  1.64538329857E+01  1.66191967564E+01  1.67862224606E+01  1.69549268011E+01
  1.71253266483E+01  1.72974390425E+01  1.74712811950E+01  1.76468704902E+01
  1.78242244871E+01  1.80033609214E+01  1.81842977067E+01  1.83670529370E+01
  1.85516448878E+01  1.87380920186E+01  1.89264129743E+01  1.91166265870E+01
  1.93087518782E+01  1.95028080608E+01  1.96988145404E+01  1.98967909179E+01
  2.00967569911E+01  2.02987327567E+01  2.05027384125E+01  2.07087943592E+01
  2.09169212026E+01  2.11271397556E+01  2.13394710402E+01  2.15539362896E+01
  2.17705569506E+01  2.19893546855E+01  2.22103513742E+01  2.24335691165E+01
  2.26590302344E+01  2.28867572742E+01  2.31167730088E+01  2.33491004400E+01
  2.35837628007E+01  2.38207835573E+01  2.40601864122E+01  2.43019953057E+01
  2.45462344190E+01  2.47929281762E+01  2.50421012468E+01  2.52937785485E+01
  2.55479852491E+01  2.58047467695E+01  2.60640887861E+01  2.63260372333E+01
  2.65906183062E+01  2.68578584630E+01  2.71277844281E+01  2.74004231942E+01
  2.76758020255E+01  2.79539484601E+01  2.82348903128E+01  2.85186556780E+01
  2.88052729326E+01  2.90947707385E+01  2.93871780457E+01  2.96825240951E+01
  2.99808384218E+01  3.02821508572E+01  3.05864915330E+01  3.08938908835E+01
  3.12043796487E+01  3.15179888779E+01  3.18347499323E+01  3.21546944882E+01
  3.24778545404E+01  3.28042624050E+01  3.31339507233E+01  3.34669524642E+01
  3.38033009283E+01  3.41430297506E+01  3.44861729043E+01  3.48327647041E+01
  3.51828398094E+01  3.55364332280E+01  3.58935803195E+01  3.62543167990E+01
  3.66186787403E+01  3.69867025801E+01  3.73584251209E+01  3.77338835353E+01
  3.81131153696E+01  3.84961585472E+01  3.88830513727E+01  3.92738325357E+01
  3.96685411147E+01  4.00672165809E+01  4.04698988022E+01  4.08766280470E+01
  4.12874449887E+01  4.17023907093E+01  4.21215067038E+01  4.25448348840E+01
  4.29724175831E+01  4.34042975598E+01  4.38405180025E+01  4.42811225335E+01
  4.47261552136E+01  4.51756605465E+01  4.56296834832E+01  4.60882694262E+01
  4.65514642345E+01  4.70193142281E+01  4.74918661923E+01  4.79691673826E+01
  4.84512655297E+01  4.89382088437E+01  4.94300460194E+01  4.99268262409E+01
  5.04285991866E+01  5.09354150342E+01  5.14473244658E+01  5.19643786727E+01
  5.24866293608E+01  5.30141287556E+01  5.35469296074E+01  5.40850851968E+01
  5.46286493398E+01  5.51776763932E+01  5.57322212603E+01  5.62923393960E+01
  5.68580868124E+01  5.74295200850E+01  5.80066963574E+01  5.85896733478E+01
  5.91785093544E+01  5.97732632612E+01  6.03739945441E+01  6.09807632768E+01
  6.15936301367E+01  6.22126564109E+01  6.28379040025E+01  6.34694354370E+01
  6.41073138679E+01  6.47516030835E+01  6.54023675135E+01  6.60596722347E+01
  6.67235829782E+01  6.73941661356E+01  6.80714887657E+01  6.87556186015E+01
  6.94466240564E+01  7.01445742316E+01  7.08495389227E+01  7.15615886267E+01
  7.22807945492E+01  7.30072286114E+01  7.37409634573E+01  7.44820724610E+01
  7.52306297340E+01  7.59867101327E+01  7.67503892657E+01  7.75217435016E+01
  7.83008499764E+01  7.90877866015E+01  7.98826320712E+01  8.06854658706E+01
  8.14963682839E+01  8.23154204019E+01  8.31427041305E+01  8.39783021989E+01
  8.48222981674E+01  8.56747764365E+01  8.65358222546E+01  8.74055217270E+01
  8.82839618244E+01  8.91712303916E+01  9.00674161561E+01  9.09726087374E+01
  9.18868986552E+01  9.28103773396E+01  9.37431371390E+01  9.46852713302E+01
  9.56368741275E+01  9.65980406919E+01  9.75688671409E+01  9.85494505578E+01
  9.95398890020E+01
  </PP_R>
  <PP_RAB>
  3.09844022083E-06  3.12958006275E-06  3.16103286529E-06  3.19280177374E-06
  3.22488996503E-06  3.25730064801E-06  3.29003706377E-06  3.32310248597E-06
  3.35650022119E-06  3.39023360923E-06  3.42430602346E-06  3.45872087114E-06
  3.49348159380E-06  3.52859166752E-06  3.56405460335E-06  3.59987394761E-06
  3.63605328227E-06  3.67259622528E-06  3.70950643098E-06  3.74678759041E-06
  3.78444343172E-06  3.82247772053E-06  3.86089426030E-06  3.89969689271E-06
  3.93888949806E-06  3.97847599564E-06  4.01846034413E-06  4.05884654201E-06
  4.09963862793E-06  4.14084068112E-06  4.18245682184E-06  4.22449121172E-06
  4.26694805424E-06  4.30983159513E-06  4.35314612276E-06  4.39689596864E-06
  4.44108550778E-06  4.48571915916E-06  4.53080138621E-06  4.57633669716E-06
  4.62232964560E-06  4.66878483086E-06  4.71570689849E-06  4.76310054074E-06
  4.81097049701E-06  4.85932155435E-06  4.90815854788E-06  4.95748636136E-06
  5.00730992761E-06  5.05763422903E-06  5.10846429808E-06  5.15980521782E-06
  5.21166212238E-06  5.26404019750E-06  5.31694468102E-06  5.37038086344E-06
  5.42435408842E-06  5.47886975334E-06  5.53393330979E-06  5.58955026419E-06
  5.64572617827E-06  5.70246666967E-06  5.75977741249E-06  5.81766413785E-06
  5.87613263448E-06  5.93518874926E-06  5.99483838787E-06  6.05508751531E-06
  6.11594215655E-06  6.17740839710E-06  6.23949238364E-06  6.30220032461E-06
  6.36553849087E-06  6.42951321629E-06  6.49413089838E-06  6.55939799898E-06
  6.62532104484E-06  6.69190662832E-06  6.75916140805E-06  6.82709210955E-06
  6.89570552595E-06  6.96500851865E-06  7.03500801801E-06  7.10571102402E-06
  7.17712460707E-06  7.24925590855E-06  7.32211214167E-06  7.39570059210E-06
  7.47002861876E-06  7.54510365450E-06  7.62093320689E-06  7.69752485896E-06
  7.77488626993E-06  7.85302517600E-06  7.93194939114E-06  8.01166680782E-06
  8.09218539786E-06  8.17351321319E-06  8.25565838664E-06  8.33862913282E-06
  8.42243374886E-06  8.50708061529E-06  8.59257819687E-06  8.67893504343E-06
  8.76615979073E-06  8.85426116132E-06  8.94324796539E-06  9.03312910172E-06
  9.12391355849E-06  9.21561041421E-06  9.30822883866E-06  9.40177809374E-06
  9.49626753447E-06  9.59170660987E-06  9.68810486392E-06  9.78547193653E-06
  9.88381756449E-06  9.98315158244E-06  1.00834839239E-05  1.01848246221E-05
  1.02871838113E-05  1.03905717274E-05  1.04949987094E-05  1.06004751999E-05
  1.07070117469E-05  1.08146190039E-05  1.09233077318E-05  1.10330887997E-05
  1.11439731855E-05  1.12559719780E-05  1.13690963771E-05  1.14833576953E-05
  1.15987673588E-05  1.17153369088E-05  1.18330780021E-05  1.19520024132E-05
  1.20721220344E-05  1.21934488779E-05  1.23159950765E-05  1.24397728848E-05
  1.25647946808E-05  1.26910729667E-05  1.28186203705E-05  1.29474496470E-05
  1.30775736793E-05  1.32090054798E-05  1.33417581919E-05  1.34758450909E-05
  1.36112795857E-05  1.37480752198E-05  1.38862456728E-05  1.40258047620E-05
  1.41667664433E-05  1.43091448131E-05  1.44529541093E-05  1.45982087130E-05
  1.47449231497E-05  1.48931120910E-05  1.50427903559E-05  1.51939729124E-05
  1.53466748788E-05  1.55009115256E-05  1.56566982763E-05  1.58140507100E-05
  1.59729845619E-05  1.61335157256E-05  1.62956602543E-05  1.64594343626E-05
  1.66248544281E-05  1.67919369928E-05  1.69606987653E-05  1.71311566217E-05
  1.73033276081E-05  1.74772289417E-05  1.76528780127E-05  1.78302923862E-05
  1.80094898039E-05  1.81904881855E-05  1.83733056311E-05  1.85579604226E-05
  1.87444710256E-05  1.89328560913E-05  1.91231344584E-05  1.93153251549E-05
  1.95094474000E-05  1.97055206061E-05  1.99035643806E-05  2.01035985282E-05
  2.03056430524E-05  2.05097181579E-05  2.07158442522E-05  2.09240419482E-05
  2.11343320659E-05  2.13467356344E-05  2.15612738942E-05  2.17779682994E-05
  2.19968405195E-05  2.22179124421E-05  2.24412061744E-05  2.26667440460E-05
  2.28945486109E-05  2.31246426498E-05  2.33570491722E-05  2.35917914189E-05
  2.38288928645E-05  2.40683772192E-05  2.43102684317E-05  2.45545906913E-05
  2.48013684305E-05  2.50506263271E-05  2.53023893073E-05  2.55566825474E-05
  2.58135314771E-05  2.60729617815E-05  2.63349994038E-05  2.65996705480E-05