 RUNNING ,mpirun -np 4 /u/r/rbertoss/q-e/test-suite/..//bin/cp.x -nk 1 -nd 1 -nb 1 -nt 1 -input h2o-mt-blyp-cg.in

     Program CP v.6.8 starts on 12Oct2021 at 15:41: 8 

     This program is part of the open-source Quantum ESPRESSO suite
     for quantum simulation of materials; please cite
         "P. Giannozzi et al., J. Phys.:Condens. Matter 21 395502 (2009);
         "P. Giannozzi et al., J. Phys.:Condens. Matter 29 465901 (2017);
         "P. Giannozzi et al., J. Chem. Phys. 152 154105 (2020);
          URL http://www.quantum-espresso.org", 
     in publications or presentations arising from this work. More details at
     http://www.quantum-espresso.org/quote

     Parallel version (MPI), running on     4 processors

     MPI processes distributed on     1 nodes
     R & G space division:  proc/nbgrp/npool/nimage =       4
     8276 MiB available memory on the printing compute node when the environment starts
 
     Reading input from h2o-mt-blyp-cg.in

   Job Title:  Water Molecule


   Atomic Pseudopotentials Parameters
   ----------------------------------

   Reading pseudopotential for specie #  1 from file :
   /u/r/rbertoss/q-e/test-suite/..//pseudo/O.blyp-mt.UPF
   file type is xml

   Reading pseudopotential for specie #  2 from file :
   /u/r/rbertoss/q-e/test-suite/..//pseudo/H.blyp-vbc.UPF
   file type is xml


   Main Simulation Parameters (from input)
   ---------------------------------------
   Restart Mode       =       1   restart        
   Number of MD Steps =      30
   Print out every           10 MD Steps
   Reads from unit    =      51
   Writes to unit     =      51
   MD Simulation time step            =       5.00
   Electronic fictitious mass (emass) =     400.00
   emass cut-off                      =       2.50

   Simulation Cell Parameters (from input)
   external pressure       =            0.00 [KBar]
   wmass (calculated)      =         2493.41 [AU]
   ibrav =   14
   alat  =    12.00000000
   a1    =    12.00000000    0.00000000    0.00000000
   a2    =     0.00000000   12.00000000    0.00000000
   a3    =     0.00000000    0.00000000   12.00000000
 
   b1    =     0.08333333    0.00000000    0.00000000
   b2    =     0.00000000    0.08333333    0.00000000
   b3    =     0.00000000    0.00000000    0.08333333
   omega =    1728.00000000

    ========================================
    |  CONJUGATE GRADIENT                  |
    ========================================
    | iterations   =           100         |
    | conv_thr     = 0.00000100000 a.u.    |
    | passop       =       0.30000 a.u.    |
    | niter_cg_restart =            20     |
    | band precoditioning (pre_state) = F  |
    ========================================

   Energy Cut-offs
   ---------------
   Ecutwfc =   80.0 Ry,      Ecutrho =  320.0 Ry,      Ecuts =  320.0 Ry
   Gcutwfc =   17.1     ,    Gcutrho =   34.2          Gcuts =   34.2
   NOTA BENE: refg, mmx =   0.050000  7680
   Orthog. with Gram-Schmidt
   Electron dynamics with conjugate gradient
   Electron dynamics : the temperature is not controlled

   Electronic states
   -----------------
   Number of Electrons=     8, of States =     4
   Occupation numbers :
   2.00 2.00 2.00 2.00


   Exchange and correlations functionals
   -------------------------------------
     Exchange-correlation= SLA  LYP  B88  BLYP
                           (   1   3   1   3   0   0   0)


   Ions Simulation Parameters
   --------------------------
   Ions are allowed to move
   Ions dynamics with newton equations
   the temperature is computed for     6 degrees of freedom
   ion dynamics with fricp =  0.0000 and greasp =  1.0000
   Zero initial momentum for ions
   Ionic position (from input)
   sorted by specie, and converted to real a.u. coordinates
   Species   1 atoms =    1 mass =     29166.22 (a.u.),        16.00 (amu) rcmax =   0.80 (a.u.)
        0.009900     0.009900     0.000000
   Species   2 atoms =    2 mass =      1822.89 (a.u.),         1.00 (amu) rcmax =   0.80 (a.u.)
        1.832500    -0.224300    -0.000100
       -0.224300     1.832500     0.000200
   Ionic position will be re-read from restart file

   NOT all atoms are allowed to move 
    indx  ..x.. ..y.. ..z..
      1     F     F     F
   Ionic temperature is not controlled


   Cell Dynamics Parameters (from STDIN)
   -------------------------------------
   internal stress tensor calculated
   Starting cell generated from CELLDM
   Cell parameters will be re-read from restart file
   Constant VOLUME Molecular dynamics
   cell parameters are not allowed to move

   Verbosity: iverbosity =  1



   Simulation dimensions initialization
   ------------------------------------

   unit vectors of full simulation cell
   in real space:                         in reciprocal space (units 2pi/alat):
   1    12.0000    0.0000    0.0000              1.0000    0.0000    0.0000
   2     0.0000   12.0000    0.0000              0.0000    1.0000    0.0000
   3     0.0000    0.0000   12.0000              0.0000    0.0000    1.0000
 
     Parallelization info
     --------------------
     sticks:   dense  smooth     PW     G-vecs:    dense   smooth      PW
     Min         917     917    227                41757    41757    5201
     Max         920     920    230                41764    41764    5206
     Sum        3673    3673    917               167037   167037   20815
 
     Using Slab Decomposition
 
 
   Real Mesh
   ---------
   Global Dimensions   Local  Dimensions   Processor Grid
   .X.   .Y.   .Z.     .X.   .Y.   .Z.     .X.   .Y.   .Z.
    72    72    72      72    72    18       1     1     4
   Array leading dimensions ( nr1x, nr2x, nr3x )   =     72    72    72
   Local number of cell to store the grid ( nrxx ) =      93312
   Number of x-y planes for each processors: 
  |  72,  18  |  72,  18  |  72,  18  |  72,  18  |
   Using Slab Decomposition
 
   Smooth Real Mesh
   ----------------
   Global Dimensions   Local  Dimensions   Processor Grid
   .X.   .Y.   .Z.     .X.   .Y.   .Z.     .X.   .Y.   .Z.
    72    72    72      72    72    18       1     1     4
   Array leading dimensions ( nr1x, nr2x, nr3x )   =     72    72    72
   Local number of cell to store the grid ( nrxx ) =      93312
   Number of x-y planes for each processors: 
  |  72,  18  |  72,  18  |  72,  18  |  72,  18  |
   Using Slab Decomposition
 
   Reciprocal Space Mesh
   ---------------------
   Large Mesh
     Global(ngm_g)    MinLocal       MaxLocal      Average
          83519          20879          20882       20879.75
   Smooth Mesh
     Global(ngms_g)   MinLocal       MaxLocal      Average
          83519          20879          20882       20879.75
   Wave function Mesh
     Global(ngw_g)    MinLocal       MaxLocal      Average
          10408           2601           2603        2602.00


   System geometry initialization
   ------------------------------
   cell parameters read from restart file
   ibrav =   14       cell parameters 


   cell at current step : h(t)
      12.00000       0.00000       0.00000
       0.00000      12.00000       0.00000
       0.00000       0.00000      12.00000

   cell at previous step : h(t-dt)
      12.00000       0.00000       0.00000
       0.00000      12.00000       0.00000
       0.00000       0.00000      12.00000
 

     Subspace diagonalization in iterative solution of the eigenvalue problem:
     a serial algorithm will be used


   Matrix Multiplication Performances
   ortho mmul, time for parallel driver      =   0.00000 with    1 procs

   Constraints matrixes will be distributed block like on
   ortho sub-group =    1*   1 procs



   Pseudopotentials initialization
   -------------------------------


   Common initialization

   Specie:     1
   1  indv=  1   ang. mom=  0
 
                        dion 
   0.2253

   Specie:     2
 
                        dion 

   Cell parameters from input file are used in electron mass preconditioning
   init_tpiba2=    0.27415568
 
   Short Legend and Physical Units in the Output
   ---------------------------------------------
   NFI    [int]          - step index
   EKINC  [HARTREE A.U.] - kinetic energy of the fictitious electronic dynamics
   TEMPH  [K]            - Temperature of the fictitious cell dynamics
   TEMP   [K]            - Ionic temperature
   ETOT   [HARTREE A.U.] - Scf total energy (Kohn-Sham hamiltonian)
   ENTHAL [HARTREE A.U.] - Enthalpy ( ETOT + P * V )
   ECONS  [HARTREE A.U.] - Enthalpy + kinetic energy of ions and cell
   ECONT  [HARTREE A.U.] - Constant of motion for the CP lagrangian
 
 Ionic velocities set to zero

   formf: eself=    18.94976
   formf:     vps(g=0)=  -0.0061912     rhops(g=0)=  -0.0033232
   formf:     vps(g=0)=  -0.0060616     rhops(g=0)=  -0.0031806
   formf:     vps(g=0)=  -0.0060616     rhops(g=0)=  -0.0031806
   formf:     vps(g=0)=  -0.0058122     rhops(g=0)=  -0.0029134
   formf:     vps(g=0)=  -0.0058122     rhops(g=0)=  -0.0029134
   formf: sum_g vps(g)=  -4.3546661 sum_g rhops(g)=  -1.0540044
   formf:     vps(g=0)=  -0.0011639     rhops(g=0)=  -0.0005539
   formf:     vps(g=0)=  -0.0011390     rhops(g=0)=  -0.0005301
   formf:     vps(g=0)=  -0.0011390     rhops(g=0)=  -0.0005301
   formf:     vps(g=0)=  -0.0010912     rhops(g=0)=  -0.0004856
   formf:     vps(g=0)=  -0.0010912     rhops(g=0)=  -0.0004856
   formf: sum_g vps(g)=  -2.5239226 sum_g rhops(g)=  -0.1756674
   Delta V(G=0):   0.009308Ry,    0.253295eV
 WARNING setting to ZERO ions, electrons and cell velocities without 
 setting to ZERO all velocities could generate meaningles trajectories 
 PERFORMING CONJUGATE GRADIENT MINIMIZATION OF EL. STATES
  -17.1750019803169      -8.802512561727404E-005  -17.1750181675018     
  0.387572789572480       4.407890070952105E-005  4.407890070952105E-005
  -17.1750190993166      -1.791592686868695E-005  -17.1750228615755     
  0.531584787605903       0.200484912806149       8.837154565339232E-006
  -17.1750237862960      -8.097714770489440E-006  -17.1750228671740     
  0.480307233191520       0.444277241593480       3.926146653824145E-006
  -17.1750256569323      -2.043192972679518E-006  -17.1750249128702     
  0.348276530783511       0.252915769089714       9.929844005109407E-007
  -17.1750259767814      -4.730454161022433E-007  -17.1750261069952     
  0.575839431179181       0.227785432825664       2.261873814595172E-007
  -17.1750261128590      -2.197059454937935E-007  -17.1750261298522     
  0.617296188057629       0.620021892237391       1.402411282527505E-007
  -17.1750262320224      -9.901670182905684E-008  -17.1750260738652     
  0.269118669295826       0.729971892619857       1.023720818138044E-007
  -17.1750262423017      -7.603996440127244E-008  -17.1750262447923     
  0.286557247203876       0.368632450584756       3.773767139048584E-008
 
  nfi     ekinc              temph  tempp     etot                 enthal               econs                econt              vnhh    xnhh0   vnhp    xnhp0
 
       nfi   tempp            E -T.S-mu.nbsp         +K_p #Iter
Step   632       0    -17.175026    -17.175026    -17.175022     9
  -17.1750586519527      -1.498324412503713E-006  -17.1750588924050     
  0.322536145369251       7.491786742352383E-007  7.491786742352383E-007
  -17.1750588939321      -1.346766937587403E-007  -17.1750588923927     
  0.316920312481640       8.895348786162112E-002  6.664205610476968E-008
  -17.1750589120295      -2.497104178251888E-008  -17.1750589090854     
  0.267215718859705       0.172782259312107       1.151456501898627E-008
  -17.1750589146685      -1.177937366662684E-008  -17.1750589108179     
  0.165800282105870       0.341458933474565       3.931751090806582E-009
  -17.1750589162616      -7.672793252658600E-009  -17.1750589125688     
  6.763543705726710E-002  0.501865185596420       1.973208990906572E-009
 cg_sub: missed minimum, case 3, iteration           5
Step   633       3    -17.175059    -17.175059    -17.175022     6
  -17.1751233602631      -1.419398251269861E-006  -17.1751235779850     
  0.306937339516156       7.101690257553424E-007  7.101690257553424E-007
 cg_sub: missed minimum, case 1, iteration           1
  -17.1751235779850      -1.185693996088654E-007  -17.1751235987475     
  0.360311373776212       5.958195591452209E-008  5.958195591452209E-008
  -17.1751236004827      -4.447604825778925E-008  -17.1751235952144     
  0.309446239628653       0.321095329716235       1.913148777951162E-008
  -17.1751236041833      -2.083621888671724E-008  -17.1751235878169     
  0.136369725963488       0.364654071665407       6.976374915815889E-009
  -17.1751236041884      -1.993006383243575E-008  -17.1751235941924     
  4.803543437278385E-002  0.671309216229628       4.683304776860400E-009
 cg_sub: missed minimum, case 3, iteration           5
Step   634      10    -17.175124    -17.175124    -17.175022     6
  -17.1752190029065      -1.366932375867379E-006  -17.1752192133338     
  0.308095161148760       6.844389890856037E-007  6.844389890856037E-007
  -17.1752192143075      -1.497268436148437E-007  -17.1752192333902     
  0.388438116788339       0.102538210994684       7.018114947584804E-008
  -17.1752192382030      -5.485337696222295E-008  -17.1752192404263     
  0.409819039685338       0.333589902825351       2.341172283381957E-008
  -17.1752192475482      -2.874000861839753E-008  -17.1752192263913     
  0.215905711875490       0.422681680262656       9.895706345242452E-009
 cg_sub: missed minimum, case 3, iteration           4
  -17.1752192483653      -2.036555954539938E-008  -17.1752192430118     
  7.994738210204301E-002  1.036215373434427E-008  1.036215373434427E-008
 cg_sub: missed minimum, case 3, iteration           5
Step   635      19    -17.175219    -17.175219    -17.175022     6
  -17.1753439696408      -1.329393562672427E-006  -17.1753441501527     
  0.274031268275414       6.654386256447342E-007  6.654386256447342E-007
 cg_sub: missed minimum, case 1, iteration           1
  -17.1753441501527      -1.163879171358088E-007  -17.1753441690204     
  0.326348532670702       5.868099639199841E-008  5.868099639199841E-008
  -17.1753441698388      -4.760889644951818E-008  -17.1753441733073     
  0.367351644118782       0.333407139902912       1.956466317370931E-008
  -17.1753441738650      -2.525430665235886E-008  -17.1753441564327     
  0.189403218660746       0.419261400524997       8.202708083009206E-009
  -17.1753441739640      -1.786121908557003E-008  -17.1753441655701     
  8.453229456505058E-002  0.543710533805590       4.459898790464360E-009
 cg_sub: missed minimum, case 3, iteration           5
Step   636      32    -17.175344    -17.175344    -17.175022     6
  -17.1754959518153      -1.298753242395725E-006  -17.1754961566301     
  0.316235631237716       6.497665811632599E-007  6.497665811632599E-007
  -17.1754961584007      -1.134571525779649E-007  -17.1754961650764     
  0.348672805919123       8.273901415478066E-002  5.376104635617040E-008
  -17.1754961745215      -2.969434883866566E-008  -17.1754961730188     
  0.325082463258638       0.243582284281143       1.309523847678038E-008
  -17.1754961778548      -1.793210165761302E-008  -17.1754961756849     
  0.274073694471165       0.444567791881710       5.821721253786663E-009
 cg_sub: missed minimum, case 3, iteration           4
  -17.1754961779415      -8.654483472568659E-009  -17.1754961752717     
  7.395390513438926E-002  4.412360619758265E-009  4.412360619758265E-009
 cg_sub: missed minimum, case 3, iteration           5
Step   637      47    -17.175496    -17.175496    -17.175022     6
  -17.1756722841769      -1.287567727311682E-006  -17.1756724748682     
  0.296251330374816       6.440485990434283E-007  6.440485990434283E-007
  -17.1756724757213      -1.158036990631964E-007  -17.1756724855270     
  0.345647959955750       8.267653319715848E-002  5.324770537939742E-008
  -17.1756724942863      -2.914912408957904E-008  -17.1756724938431     
  0.338210023314315       0.233076129917760       1.241076909683103E-008
  -17.1756724952489      -1.670763186090876E-008  -17.1756724863978     
  0.189666238030026       0.440707836270477       5.469523195116905E-009
  -17.1756724957010      -1.115371063318747E-008  -17.1756724894588     
  7.662149612963925E-002  0.513825895741299       2.810382655008757E-009
Step   638      64    -17.175672    -17.175672    -17.175023     6
  -17.1758697175955      -1.214996698364855E-006  -17.1758699112809     
  0.320085023430092       6.076465640736741E-007  6.076465640736741E-007
  -17.1758699114930      -9.109227734600444E-008  -17.1758699188224     
  0.366098736787952       7.289282763453492E-002  4.429307625773971E-008
  -17.1758699294250      -1.928457642066190E-008  -17.1758699247062     
  0.274398257172242       0.218870638027991       9.694453860753967E-009
 cg_sub: missed minimum, case 3, iteration           3
  -17.1758699310430      -1.371780891170470E-008  -17.1758699290645     
  0.101299807014593       6.908437799610439E-009  6.908437799610439E-009
 cg_sub: missed minimum, case 3, iteration           4
  -17.1758699311703      -1.319385773264865E-008  -17.1758699291146     
  9.872586829093585E-002  6.645972116260782E-009  6.645972116260782E-009
 cg_sub: missed minimum, case 3, iteration           5
Step   639      84    -17.175870    -17.175870    -17.175023     6
  -17.1760845466932      -1.173092098976085E-006  -17.1760847155735     
  0.288390624298715       5.868260446903914E-007  5.868260446903914E-007
 cg_sub: missed minimum, case 1, iteration           1
  -17.1760847155735      -1.278558937088603E-007  -17.1760847362760     
  0.325900000033966       6.410708231669380E-008  6.410708231669380E-008
 cg_sub: missed minimum, case 1, iteration           2
  -17.1760847362760      -3.854271860103991E-008  -17.1760847375393     
  0.168398360387785       1.940253539965810E-008  1.940253539965810E-008
  -17.1760847380634      -3.994528053885045E-008  -17.1760847370017     
  0.156080861657741       0.598942171954842       1.162099669370193E-008
 cg_sub: missed minimum, case 3, iteration           4
  -17.1760847382502      -3.094426148962243E-008  -17.1760847372222     
  0.135045141922836       1.559764178338580E-008  1.559764178338580E-008
NOTE: eigenvalues are not computed without ortho
 
       nfi   tempp            E -T.S-mu.nbsp         +K_p #Iter
Step   640     105    -17.176085    -17.176085    -17.175023     6
  -17.1763125576485      -1.341158923504605E-006  -17.1763127795197     
  0.334404419467433       6.710791747130493E-007  6.710791747130493E-007
  -17.1763127834458      -1.540802678854687E-007  -17.1763128062667     
  0.429524193289613       0.108357310542876       7.271633453323900E-008
  -17.1763128165679      -5.403335841001462E-008  -17.1763128105515     
  0.380239374642315       0.345800117059861       2.514531699375807E-008
  -17.1763128192976      -2.109098807854404E-008  -17.1763128107034     
  0.247580124254127       0.304688994290214       7.661501345936762E-009
 cg_sub: missed minimum, case 3, iteration           4
  -17.1763128247058      -2.963030814182757E-008  -17.1763128169222     
  7.997269018961596E-002  1.493677756316076E-008  1.493677756316076E-008

   writing restart file (with schema): ./h2o_51.save/
     restart      :      0.01s CPU      0.10s WALL (       1 calls)
  -17.1763128255923      -2.093772924537669E-008  -17.1763128188099     
  7.212281319336548E-002  1.057978573021709E-008  1.057978573021709E-008
  -17.1763128270056      -3.010044305060991E-008  -17.1763128189843     
  2.532905344045047E-002  0.768900943235426       8.134807227192622E-009
 cg_sub: missed minimum, case 3, iteration           2
  -17.1763128275332      -1.439726126582384E-008  -17.1763128195162     
  5.251837075017499E-002  7.297054711195216E-009  7.297054711195216E-009
 cg_sub: missed minimum, case 3, iteration           3
  -17.1763128275416      -1.437259251381262E-008  -17.1763128195196     
  5.243886611604710E-002  7.284655970293244E-009  7.284655970293244E-009
 cg_sub: missed minimum, case 3, iteration           4
  -17.1763128275500      -1.434798768871584E-008  -17.1763128195231     
  5.235948153899555E-002  7.272289236859090E-009  7.272289236859090E-009
 cg_sub: missed minimum, case 3, iteration           5
Step   641     128    -17.176313    -17.176313    -17.175023     6
  -17.1765495398800      -8.548040295699983E-007  -17.1765496506630     
  0.264085277520101       4.277073292382868E-007  4.277073292382868E-007
 cg_sub: missed minimum, case 1, iteration           1
  -17.1765496506630      -6.261780875147395E-008  -17.1765496584230     
  0.255573235779498       3.150009694510956E-008  3.150009694510956E-008
 cg_sub: missed minimum, case 1, iteration           2
  -17.1765496584230      -1.782659641452439E-008  -17.1765496612997     
  0.324607940935267       9.050419419455870E-009  9.050419419455870E-009
  -17.1765496615390      -1.361812826674386E-008  -17.1765496646495     
  0.500797947520459       0.501826661911666       4.541741766166054E-009
 cg_sub: missed minimum, case 1, iteration           4
  -17.1765496646495      -2.675994007532488E-009  -17.1765496653422     
   1.09393489061834       1.356854946123228E-009  1.356854946123228E-009
 cg_sub: missed minimum, case 1, iteration           5
Step   642     151    -17.176550    -17.176550    -17.175023     6
  -17.1767903284955      -9.613913821168737E-007  -17.1767904815377     
  0.319575654174204       4.807166804289551E-007  4.807166804289551E-007
  -17.1767904825612      -6.597289045740931E-008  -17.1767904806586     
  0.305778809621802       6.699706014615810E-002  3.220660435196017E-008
  -17.1767904917216      -6.497680212277731E-009  -17.1767904903450     
  0.227103614214706       9.835184889455433E-002  3.167579084630682E-009
 cg_sub: missed minimum, case 3, iteration           3
  -17.1767904917417      -1.585265996245729E-009  -17.1767904921093     
  0.660451124899041       7.979106751186173E-010  7.979106751186173E-010
 cg_sub: missed minimum, case 2, iteration           4
  -17.1767904921093      -6.724504514910001E-010  -17.1767904922808     
   1.00142454694936       3.400692463428459E-010  3.400692463428459E-010
Step   643     175    -17.176790    -17.176790    -17.175024     6
  -17.1770300398567      -8.602280989689543E-007  -17.1770301748902     
  0.314628073619840       4.301500610984299E-007  4.301500610984299E-007
  -17.1770301756805      -6.305681120908538E-008  -17.1770301798969     
  0.352036553438546       7.048373955054001E-002  3.031858487411060E-008
  -17.1770301867797      -9.807252722601694E-009  -17.1770301876290     
  0.401406045431224       0.162155904206332       4.916337544517828E-009
  -17.1770301878492      -3.517169158238478E-009  -17.1770301821993     
  0.133760337880467       0.294600576336111       1.448355874077815E-009
  -17.1770301882622      -3.279074057490800E-009  -17.1770301888011     
  0.346918397160115       0.592578969331221       8.582652310858518E-010
Step   644     199    -17.177030    -17.177030    -17.175024     6
  -17.1772633228336      -7.616689502609154E-007  -17.1772634384855     
  0.303725888540238       3.809154546196488E-007  3.809154546196488E-007
  -17.1772634387245      -6.478888882673052E-008  -17.1772634410417     
  0.322727353281662       7.896403948181104E-002  3.007862299781795E-008
  -17.1772634464722      -1.162266002344502E-008  -17.1772634485175     
  0.443689677439131       0.175393805079093       5.275604139126801E-009
  -17.1772634496204      -5.064252095738835E-009  -17.1772634394059     
  0.135561669872193       0.388525107271914       2.049704664078396E-009
 cg_sub: missed minimum, case 3, iteration           4
  -17.1772634497573      -3.682311892711818E-009  -17.1772634492947     
  0.105728221782076       1.856846647348867E-009  1.856846647348867E-009
 cg_sub: missed minimum, case 3, iteration           5
Step   645     222    -17.177263    -17.177263    -17.175024     6
  -17.1774849062521      -6.522673095995356E-007  -17.1774849982426     
  0.283075445029899       3.262833752700161E-007  3.262833752700161E-007
  -17.1774849983814      -6.448531065234949E-008  -17.1774850044476     
  0.339483917147121       8.788110511161147E-002  2.867414359827565E-008
  -17.1774850090550      -1.755916882233208E-008  -17.1774850091018     
  0.340822109054528       0.249514212259914       7.154606352151402E-009
 cg_sub: missed minimum, case 2, iteration           3
  -17.1774850091018      -1.028291058036070E-008  -17.1774850096215     
  0.180388375692621       5.159400317219475E-009  5.159400317219475E-009
 cg_sub: missed minimum, case 1, iteration           4
  -17.1774850096215      -1.405768189602144E-009  -17.1774850112449     
  0.300000000000000       7.148482594162596E-010  7.148482594162596E-010
 cg_sub: missed minimum, case 1, iteration           5
Step   646     244    -17.177485    -17.177485    -17.175024     6
  -17.1776894269746      -5.838594033182204E-007  -17.1776895086820     
  0.281151067517778       2.919798820487042E-007  2.919798820487042E-007
 cg_sub: missed minimum, case 1, iteration           1
  -17.1776895086820      -4.196559799634680E-008  -17.1776895147875     
  0.291241762976521       2.101088946349620E-008  2.101088946349620E-008
 cg_sub: missed minimum, case 1, iteration           2
  -17.1776895147875      -7.784552812420451E-009  -17.1776895151080     
  0.173855940409429       3.912974365612304E-009  3.912974365612304E-009
 cg_sub: missed minimum, case 2, iteration           3
  -17.1776895151080      -2.754606012113231E-009  -17.1776895157497     
  0.671329436874471       1.391947215639574E-009  1.391947215639574E-009
 cg_sub: missed minimum, case 2, iteration           4
  -17.1776895157497      -1.351396316135720E-009  -17.1776895160897     
  0.929011482432784       6.861316643217195E-010  6.861316643217195E-010
 cg_sub: missed minimum, case 2, iteration           5
Step   647     264    -17.177690    -17.177690    -17.175024     6
  -17.1778717213113      -5.094671885806385E-007  -17.1778718004302     
  0.310982305349694       2.547858270020516E-007  2.547858270020516E-007
  -17.1778718009983      -4.522467028619900E-008  -17.1778718048143     
  0.359793518605381       8.187706196095636E-002  2.086111494422049E-008
  -17.1778718095693      -8.714728410355903E-009  -17.1778718105298     
  0.424872961624585       0.198314551511282       4.137062654188396E-009
  -17.1778718105735      -3.463930170112838E-009  -17.1778718111299     
  0.523911541002975       0.334854374076985       1.385313525585526E-009
 cg_sub: missed minimum, case 2, iteration           4
  -17.1778718111299      -2.918268841598950E-009  -17.1778718128989     
  0.300000000000000       1.460300023059003E-009  1.460300023059003E-009
 cg_sub: missed minimum, case 1, iteration           5
Step   648     282    -17.177872    -17.177872    -17.175024     6
  -17.1780268971169      -4.279553433499925E-007  -17.1780269620590     
  0.303540553759215       2.139854307803987E-007  2.139854307803987E-007
  -17.1780269621884      -3.023279230579821E-008  -17.1780269622279     
  0.304195211447772       6.542194015498770E-002  1.399934204655451E-008
  -17.1780269658373      -2.372143597481225E-009  -17.1780269662725     
  0.435521055168936       7.897145517155450E-002  1.105548412860737E-009
  -17.1780269663539      -6.602520983889482E-010  -17.1780269639738     
  8.475711912626023E-002  0.299811289390391       3.314558951432782E-010
  -17.1780269664052      -8.720013185268668E-010  -17.1780269652352     
  9.507399907651957E-003  0.720647171419637       2.388627532853671E-010
Step   649     297    -17.178027    -17.178027    -17.175025     6
  -17.1781503244613      -3.412442143370131E-007  -17.1781503709465     
  0.274763336610838       1.706442428371227E-007  1.706442428371227E-007
 cg_sub: missed minimum, case 1, iteration           1
  -17.1781503709465      -2.870423820507435E-008  -17.1781503751558     
  0.293437291610941       1.436441484943311E-008  1.436441484943311E-008
 cg_sub: missed minimum, case 1, iteration           2
  -17.1781503751558      -6.610190687922800E-009  -17.1781503753331     
  0.164724486371940       3.314461183710413E-009  3.314461183710413E-009
 cg_sub: missed minimum, case 2, iteration           3
  -17.1781503753331      -2.596029397754132E-009  -17.1781503721709     
  2.964230965356735E-002  1.304705090844246E-009  1.304705090844246E-009
 cg_sub: missed minimum, case 3, iteration           4
  -17.1781503764195      -3.122084742086284E-009  -17.1781503720712     
  2.658394320740253E-002  1.568256513343105E-009  1.568256513343105E-009
NOTE: eigenvalues are not computed without ortho
 
       nfi   tempp            E -T.S-mu.nbsp         +K_p #Iter
Step   650     309    -17.178150    -17.178150    -17.175025     6
  -17.1782381391226      -3.247072451875841E-007  -17.1782381941074     
  0.344395523477173       1.623952240455151E-007  1.623952240455151E-007
  -17.1782381949318      -3.163868080185897E-008  -17.1782381970316     
  0.381117742749251       8.985758365353089E-002  1.459244242960376E-008
  -17.1782382013552      -8.019020291936589E-009  -17.1782382020950     
  0.433601009077627       0.257556744248332       3.758381962799966E-009
  -17.1782382022224      -2.727766927719181E-009  -17.1782382000375     
  0.225404914764756       0.290583966472906       1.092125538270638E-009
  -17.1782382027032      -1.383102408687137E-009  -17.1782382042185     
  0.450809829529512       0.374190490254396       4.086629905848367E-010
 cg_sub: missed minimum, case 1, iteration           5

   writing restart file (with schema): ./h2o_51.save/
     restart      :      0.01s CPU      0.21s WALL (       2 calls)
  -17.1782382042185      -4.867132427139064E-010  -17.1782382042963     
  0.321100169845022       2.449217691835280E-010  2.449217691835280E-010
  -17.1782382042967      -1.145319102089538E-010  -17.1782382017876     
  9.144932135152779E-003  0.238051115470959       5.830390035725959E-011
  -17.1782382042977      -2.192224581881459E-010  -17.1782382043016     
  0.260708621256313       0.965818929845766       5.631101064888265E-011
 cg_sub: missed minimum, case 2, iteration           3
  -17.1782382043016      -9.352627214166709E-011  -17.1782382030417     
  3.267801334303195E-003  4.774888339959276E-011  4.774888339959276E-011
  -17.1782382043019      -1.834698113618549E-010  -17.1782382043030     
  0.146809059794885       0.984794197764387       4.702282332164721E-011
 cg_sub: missed minimum, case 2, iteration           5
Step   651     318    -17.178238    -17.178238    -17.175025     6
  -17.1782870975329      -2.365355694113967E-007  -17.1782871267402     
  0.254927933590775       1.182685750638015E-007  1.182685750638015E-007
 cg_sub: missed minimum, case 1, iteration           1
  -17.1782871267402      -1.643133086937178E-008  -17.1782871283025     
  0.219595619878553       8.215995771482331E-009  8.215995771482331E-009
 cg_sub: missed minimum, case 1, iteration           2
  -17.1782871283025      -1.955261268592915E-009  -17.1782871286355     
  0.347018596613058       9.778051109493646E-010  9.778051109493646E-010
  -17.1782871286417      -3.957182443745778E-010  -17.1782871286103     
  0.311339760524299       0.202455134910516       1.979616656534460E-010
  -17.1782871287033      -2.847733767234311E-011  -17.1782871287090     
  0.458233386613678       7.218512715878721E-002  1.428988800775931E-011
Step   652     323    -17.178287    -17.178287    -17.175025     6
  -17.1782947438115      -2.107850813948944E-007  -17.1782947749515     
  0.295534546350641       1.053927188631575E-007  1.053927188631575E-007
 cg_sub: missed minimum, case 1, iteration           1
  -17.1782947749515      -1.608784973577970E-008  -17.1782947779397     
  0.393848143053120       8.044172874554256E-009  8.044172874554256E-009
  -17.1782947781196      -2.271863257767141E-009  -17.1782947763699     
  0.199141634294325       0.141226330648330       1.136049018174130E-009
  -17.1782947784194      -4.865243504709088E-010  -17.1782947784877     
  0.307569513458173       0.161654091973922       1.836469724708051E-010
  -17.1782947784942      -2.093670895607410E-010  -17.1782947785127     
  0.359146271029065       0.570192113539970       1.047140553783450E-010
Step   653     323    -17.178295    -17.178295    -17.175024     6
  -17.1782597325572      -1.973419664952838E-007  -17.1782597643962     
  0.324532270989961       9.867192658148184E-008  9.867192658148184E-008
 cg_sub: missed minimum, case 1, iteration           1
  -17.1782597643962      -1.424907770688265E-008  -17.1782597658878     
  0.230396672505977       7.125283609157658E-009  7.125283609157658E-009
 cg_sub: missed minimum, case 1, iteration           2
  -17.1782597658878      -1.777518029971299E-009  -17.1782597662432     
  0.449673128474497       8.892542388466950E-010  8.892542388466950E-010
  -17.1782597662875      -3.443075484403911E-010  -17.1782597674688     
  0.899346256948994       0.193878693852944       1.724074503307915E-010
 cg_sub: missed minimum, case 1, iteration           4
  -17.1782597674688      -1.933902492674918E-009  -17.1782597676444     
  0.215079588675242       9.669887672552707E-010  9.669887672552707E-010
Step   654     319    -17.178260    -17.178260    -17.175024     6
  -17.1781818047615      -2.046617729621818E-007  -17.1781818373729     
  0.319926885478533       1.023344348932823E-007  1.023344348932823E-007
  -17.1781818380204      -1.322181983843253E-008  -17.1781818386709     
  0.346577536835710       5.710226433507257E-002  5.843527951856477E-009
  -17.1781818403115      -8.289284620474296E-010  -17.1781818403692     
  0.385242636133544       7.116107423752359E-002  4.158317263911030E-010
  -17.1781818404712      -1.997643844299270E-010  -17.1781818404866     
  0.427944899554883       0.242038165962480       1.006471484047144E-010
  -17.1781818405140      -5.498047177961585E-011  -17.1781818405194     
  0.483626807101382       0.276593454083268       2.783834242089126E-011
Step   655     311    -17.178182    -17.178182    -17.175024     6
  -17.1780620039400      -2.558814000233374E-007  -17.1780620478790     
  0.350784750516515       1.279525110169867E-007  1.279525110169867E-007
  -17.1780620492963      -1.450585646425719E-008  -17.1780620473148     
  0.293615430288189       5.457602592708402E-002  6.983139558698571E-009
  -17.1780620516417      -1.393560102059996E-009  -17.1780620519370     
  0.459414976908135       9.083258095757239E-002  6.342965893035143E-010
  -17.1780620519618      -4.262060201773419E-010  -17.1780620532347     
  0.918829953816270       0.339260750646943       2.151919370199060E-010
 cg_sub: missed minimum, case 1, iteration           4
  -17.1780620532347      -8.535494380510906E-010  -17.1780620533447     
  0.262961954471322       4.269356313332669E-010  4.269356313332669E-010
Step   656     299    -17.178062    -17.178062    -17.175023     6
  -17.1779026147379      -3.148363884378848E-007  -17.1779026686553     
  0.349529228666045       1.574334127485353E-007  1.574334127485353E-007
  -17.1779026698422      -1.870821103112494E-008  -17.1779026647845     
  0.252053023179973       5.912947513101048E-002  9.308955063904629E-009
  -17.1779026714470      -2.265068138478511E-009  -17.1779026718641     
  0.397079397162647       0.101488772349459       9.447544212919580E-010
  -17.1779026718967      -7.896875534792934E-010  -17.1779026719766     
  0.455005645619154       0.421237196718856       3.979657040127691E-010
  -17.1779026720764      -3.219232231130713E-010  -17.1779026732824     
  0.910011291238308       0.407129826047743       1.620237078476862E-010
 cg_sub: missed minimum, case 1, iteration           5
Step   657     283    -17.177903    -17.177903    -17.175023     6
  -17.1777073389402      -4.055010443123891E-007  -17.1777073977756     
  0.290497019471186       2.027718059119863E-007  2.027718059119863E-007
 cg_sub: missed minimum, case 1, iteration           1
  -17.1777073977756      -2.900332177061693E-008  -17.1777074016915     
  0.272758302870445       1.451252473517433E-008  1.451252473517433E-008
 cg_sub: missed minimum, case 1, iteration           2
  -17.1777074016915      -4.294178621933869E-009  -17.1777074025305     
  0.430081984924437       2.154668506198473E-009  2.154668506198473E-009
  -17.1777074026150      -1.630671407691000E-009  -17.1777074050846     
  0.860163969848875       0.380326089284407       8.194766466667412E-010
 cg_sub: missed minimum, case 1, iteration           4
  -17.1777074050846      -4.484157571668114E-009  -17.1777074079530     
  0.300000000000000       2.242520963880443E-009  2.242520963880443E-009
 cg_sub: missed minimum, case 1, iteration           5
Step   658     264    -17.177707    -17.177707    -17.175022     6
  -17.1774812552990      -5.304955052192164E-007  -17.1774813420356     
  0.329672790913943       2.653010355084950E-007  2.653010355084950E-007
  -17.1774813430187      -3.305767358544476E-008  -17.1774813417818     
  0.311968803253990       6.128306319169183E-002  1.625846012388838E-008
  -17.1774813487506      -4.604198008939316E-009  -17.1774813511639     
   1.95066605341170       0.128163171886596       2.083735819469275E-009
  -17.1774813519822       8.008065114388757E-008  -17.1774771632462     
  0.135393950118842        11.0849202543412       2.309804538993132E-008
 cg_sub: missed minimum, case 3, iteration           4
  -17.1774813525770      -4.373050985059957E-008  -17.1774813592237     
  0.304038578781993       2.186752484298576E-008  2.186752484298576E-008
Step   659     241    -17.177481    -17.177481    -17.175022     6
  -17.1772307489232      -6.957252396548065E-007  -17.1772308458128     
  0.279962431370065       3.478894945475111E-007  3.478894945475111E-007
  -17.1772308473405      -5.049217709980002E-008  -17.1772308386371     
  0.214063294505481       6.589264453267035E-002  2.292335880086951E-008
 cg_sub: missed minimum, case 3, iteration           2
  -17.1772308492218      -2.825744552334715E-008  -17.1772308467071     
  0.115682990483197       1.414008657225917E-008  1.414008657225917E-008
  -17.1772308507096      -2.188577427350687E-008  -17.1772308470779     
  6.736678568580892E-002  0.464258611840418       6.564656963340370E-009
 cg_sub: missed minimum, case 3, iteration           4
  -17.1772308516231      -1.477813540654946E-008  -17.1772308480704     
  8.327072255836700E-002  7.399242983662107E-009  7.399242983662107E-009
 cg_sub: missed minimum, case 3, iteration           5
NOTE: eigenvalues are not computed without ortho
 
       nfi   tempp            E -T.S-mu.nbsp         +K_p #Iter
Step   660     216    -17.177231    -17.177231    -17.175021     6
  -17.1769630335972      -1.273374674875383E-006  -17.1769632618394     
  0.372646079624013       6.369399878064949E-007  6.369399878064949E-007
  -17.1769632680891      -1.019827814127571E-007  -17.1769632703760     
  0.384206304133657       8.169913575578679E-002  5.203744653209201E-008
  -17.1769632893917      -2.550550513223009E-008  -17.1769633137119     
  0.768412608267313       0.254397455295610       1.323819397784556E-008
 cg_sub: missed minimum, case 1, iteration           3
  -17.1769633137119      -3.195147138293320E-008  -17.1769633182659     
  0.285767061574767       1.599006239163254E-008  1.599006239163254E-008
  -17.1769633183926      -4.709447671736855E-009  -17.1769633165653     
  0.170211934398062       0.196499054651370       3.142032143772216E-009
 cg_sub: missed minimum, case 3, iteration           5

   writing restart file (with schema): ./h2o_51.save/
     restart      :      0.02s CPU      0.31s WALL (       3 calls)

 * Physical Quantities at step:   661
  -17.1769633184744      -5.609493012316586E-009  -17.1769633179943     
  0.116705379849615       2.814512759102951E-009  2.814512759102951E-009
 cg_sub: missed minimum, case 3, iteration           1
  -17.1769633185259      -5.143802690421142E-009  -17.1769633180127     
  0.112563979553901       2.581561104387227E-009  2.581561104387227E-009
 cg_sub: missed minimum, case 3, iteration           2
  -17.1769633185731      -4.721439276160172E-009  -17.1769633180296     
  0.108403702708732       2.370274103224837E-009  2.370274103224837E-009
 cg_sub: missed minimum, case 3, iteration           3
  -17.1769633185841      -4.623896707727064E-009  -17.1769633180335     
  0.107380223118810       2.321476736612104E-009  2.321476736612104E-009
 cg_sub: missed minimum, case 3, iteration           4
  -17.1769633185848      -4.617910680805074E-009  -17.1769633180338     
  0.107316268054637       2.318482096517415E-009  2.318482096517415E-009
 cg_sub: missed minimum, case 3, iteration           5
     Pressure of Nuclei (GPa)             0.02205    661
     Pressure Total (GPa)             0.37617    661
NOTE: eigenvalues are not computed without ortho


                total energy =      -17.17696331859 Hartree a.u.
              kinetic energy =       12.68431 Hartree a.u.
        electrostatic energy =      -18.16988 Hartree a.u.
                         esr =        0.16967 Hartree a.u.
                       eself =       18.94976 Hartree a.u.
      pseudopotential energy =       -9.41898 Hartree a.u.
  n-l pseudopotential energy =        1.95349 Hartree a.u.
 exchange-correlation energy =       -4.22589 Hartree a.u.
           average potential =        0.00000 Hartree a.u.



   Eigenvalues (eV), kp =   1 , spin =  1

    0.00    0.00    0.00    0.00
 
 
   CELL_PARAMETERS
   12.00000000    0.00000000    0.00000000
    0.00000000   12.00000000    0.00000000
    0.00000000    0.00000000   12.00000000

   System Density [g/cm^3] :              0.1167302083


   System Volume [A.U.^3] :           1728.0000000000


   Center of mass square displacement (a.u.):   0.000016

   Total stress (GPa)
        0.13795787        -0.27841005        -0.02731858
       -0.27841005         1.07716271         0.05413022
       -0.02731858         0.05413022        -0.08661706
   ATOMIC_POSITIONS
   O       0.99000000000000E-02     0.99000000000000E-02     0.00000000000000E+00
   H       0.18118099914503E+01    -0.19281271715745E+00    -0.11934198919052E+00
   H      -0.17747093685774E+00     0.17633771729978E+01     0.63092053984935E-01
 
   ATOMIC_VELOCITIES
   O      -0.78062556418956E-18    -0.78062556418956E-18     0.00000000000000E+00
   H      -0.33729894293861E-03    -0.19288619260997E-03     0.13033634815830E-04
   H      -0.87957145725338E-04    -0.14042858661928E-02    -0.33371838163397E-04
 
   Forces acting on atoms (au):
   O       0.12249802715232E-02    -0.32178402778855E-01    -0.10138672087263E-02
   H       0.79990100080159E-02    -0.53653255610314E-02    -0.69079873743976E-03
   H      -0.86595926538739E-02     0.38137157105870E-01     0.16856369594308E-02
 


   Partial temperatures (for each ionic specie) 
   Species  Temp (K)   Mean Square Displacement (a.u.)
        1   2.59E+01     1.6281E-05
        2   1.77E+02     1.3005E-02
Step   661     189    -17.176963    -17.176963    -17.175020     6
  -17.1766870394520      -1.068219169386399E-006  -17.1766872003797     
  0.301306537482270       5.342548984782577E-007  5.342548984782577E-007
 cg_sub: missed minimum, case 1, iteration           1
  -17.1766872003797      -7.974572633255206E-008  -17.1766872108141     
  0.266028362207017       3.994905631544885E-008  3.994905631544885E-008
 cg_sub: missed minimum, case 1, iteration           2
  -17.1766872108141      -1.642094954092747E-008  -17.1766872134439     
  0.321778737040723       8.264268484551888E-009  8.264268484551888E-009
 cg_sub: missed minimum, case 1, iteration           3
  -17.1766872134439      -5.896327428609207E-009  -17.1766872156224     
  0.300000000000000       2.984434423603788E-009  2.984434423603788E-009
 cg_sub: missed minimum, case 1, iteration           4
  -17.1766872156224      -2.797433620686839E-009  -17.1766872136037     
  4.404719867000197E-002  1.423878301834941E-009  1.423878301834941E-009

   writing restart file (with schema): ./h2o_51.save/
     restart      :      0.02s CPU      0.41s WALL (       4 calls)


   Averaged Physical Quantities
                      accumulated      this run
   ekinc         :        0.06421       0.00000 (AU)
   ekin          :       12.36339      12.53530 (AU)
   epot          :      -31.21517     -31.68087 (AU)
   total energy  :      -16.84924     -17.17696 (AU)
   temperature   :      131.35985     191.22427 (K )
   enthalpy      :      -16.04366       0.00000 (AU)
   econs         :      -16.84793     -17.17502 (AU)
   pressure      :        0.74164      -0.31574 (Gpa)
   volume        :     1728.00000    1728.00000 (AU)



     Called by MAIN_LOOP:
     initialize   :      0.08s CPU      0.11s WALL (       1 calls)
     main_loop    :     59.29s CPU     63.87s WALL (      30 calls)
     cpr_total    :     59.32s CPU     64.28s WALL (       1 calls)

     Called by INIT_RUN:
     init_readfil :      0.02s CPU      0.02s WALL (       1 calls)

     Called by CPR:
     cpr_md       :     59.32s CPU     64.28s WALL (      30 calls)
     move_electro :     59.25s CPU     63.74s WALL (      34 calls)

     Called by move_electrons:
     rhoofr       :     10.95s CPU     11.24s WALL (     610 calls)
     vofrho       :     46.53s CPU     50.56s WALL (     610 calls)
     dforce       :      1.06s CPU      1.11s WALL (     422 calls)
     calphi       :      0.03s CPU      0.03s WALL (     553 calls)
     nlfl         :      0.00s CPU      0.00s WALL (      34 calls)
     gram         :      0.08s CPU      0.09s WALL (     569 calls)

     Small boxes:

     Low-level routines:
     prefor       :      0.01s CPU      0.01s WALL (     272 calls)
     nlfq         :      0.01s CPU      0.01s WALL (      34 calls)
     nlsm1        :      0.06s CPU      0.06s WALL (    1952 calls)
     nlsm2        :      0.01s CPU      0.01s WALL (      34 calls)
     fft          :     14.54s CPU     15.98s WALL (    4884 calls)
     ffts         :      3.20s CPU      3.41s WALL (    1220 calls)
     fftw         :      2.30s CPU      2.38s WALL (    2064 calls)
     betagx       :      0.02s CPU      0.02s WALL (       1 calls)
     qradx        :      0.00s CPU      0.00s WALL (       1 calls)
     gram         :      0.08s CPU      0.09s WALL (     569 calls)
     nlinit       :      0.04s CPU      0.04s WALL (       1 calls)
     init_dim     :      0.01s CPU      0.01s WALL (       1 calls)
     newnlinit    :      0.00s CPU      0.00s WALL (       1 calls)
     from_restart :      0.00s CPU      0.00s WALL (       1 calls)
     strucf       :      0.02s CPU      0.02s WALL (      35 calls)
     calbec       :      0.07s CPU      0.07s WALL (    1952 calls)
     exch_corr    :     31.83s CPU     34.87s WALL (     610 calls)
     runcg_uspp   :     59.25s CPU     63.74s WALL (      34 calls)
     calcmt       :      0.00s CPU      0.00s WALL (      34 calls)
     pc2          :      0.06s CPU      0.06s WALL (     519 calls)
     pcdaga2      :      0.04s CPU      0.04s WALL (     173 calls)
     emass_p_tpa  :      0.00s CPU      0.00s WALL (      34 calls)
 
 
     CP           :     59.40s CPU   1m 4.41s WALL

 
   This run was terminated on:  15:42:13  12Oct2021            

=------------------------------------------------------------------------------=
   JOB DONE.
=------------------------------------------------------------------------------=
