
     Program CP v.7.1 starts on 21Sep2022 at 15:34:42 

     This program is part of the open-source Quantum ESPRESSO suite
     for quantum simulation of materials; please cite
         "P. Giannozzi et al., J. Phys.:Condens. Matter 21 395502 (2009);
         "P. Giannozzi et al., J. Phys.:Condens. Matter 29 465901 (2017);
         "P. Giannozzi et al., J. Chem. Phys. 152 154105 (2020);
          URL http://www.quantum-espresso.org", 
     in publications or presentations arising from this work. More details at
     http://www.quantum-espresso.org/quote

     Parallel version (MPI), running on    10 processors

     MPI processes distributed on     1 nodes
     R & G space division:  proc/nbgrp/npool/nimage =      10
     55008 MiB available memory on the printing compute node when the environment starts

     Waiting for input...
     Reading input from standard input

   Job Title: SiH4


   Atomic Pseudopotentials Parameters
   ----------------------------------

   Reading pseudopotential for specie #  1 from file :
   /home/pizza/codes/QEdev/q-e/pseudo/Si.pbe-hgh.UPF
   file type is xml

   Reading pseudopotential for specie #  2 from file :
   /home/pizza/codes/QEdev/q-e/pseudo/H.pbe-hgh.UPF
   file type is xml


   Main Simulation Parameters (from input)
   ---------------------------------------
   Restart Mode       =       1   restart        
   Number of MD Steps =    3000
   Print out every           10 MD Steps
   Reads from unit    =      50
   Writes to unit     =      50
   MD Simulation time step            =       3.00
   Electronic fictitious mass (emass) =      10.00
   emass cut-off                      =       2.50

   Simulation Cell Parameters (from input)
   external pressure       =            0.00 [KBar]
   wmass (calculated)      =         4444.65 [AU]
   initial cell from CELL_PARAMETERS card
       1.00000000    0.00000000    0.00000000
       0.00000000    1.00000000    0.00000000
       0.00000000    0.00000000    1.00000000
   ibrav =    0
   alat  =    15.00000000
   a1    =    15.00000000    0.00000000    0.00000000
   a2    =     0.00000000   15.00000000    0.00000000
   a3    =     0.00000000    0.00000000   15.00000000

   b1    =     0.06666667    0.00000000    0.00000000
   b2    =     0.00000000    0.06666667    0.00000000
   b3    =     0.00000000    0.00000000    0.06666667
   omega =    3375.00000000

   Energy Cut-offs
   ---------------
   Ecutwfc =   20.0 Ry,      Ecutrho =   80.0 Ry,      Ecuts =   80.0 Ry
   Gcutwfc =   10.7     ,    Gcutrho =   21.4          Gcuts =   21.4
   NOTA BENE: refg, mmx =   0.050000  1920
   Eigenvalues calculated without the kinetic term contribution
   Orthog. with lagrange multipliers : eps =   0.10E-08,  max = 300
   Electron dynamics with newton equations
   Electron dynamics : the temperature is not controlled

   Electronic states
   -----------------
   Number of Electrons=     8, of States =     4
   Occupation numbers :
   2.00 2.00 2.00 2.00


   Exchange and correlations functionals
   -------------------------------------
     Exchange-correlation= SLA-PW-PBX-PBC
                           (   1   4   3   4   0   0   0)


   Ions Simulation Parameters
   --------------------------
   Ions are allowed to move
   Ions dynamics with newton equations
   the temperature is computed for    15 degrees of freedom
   ion dynamics with fricp =  0.0000 and greasp =  1.0000
   Ionic position (from input)
   sorted by specie, and converted to real a.u. coordinates
   Species   1 atoms =    1 mass =     51197.65 (a.u.),        28.09 (amu) rcmax =   0.50 (a.u.)
        9.448631     9.448631     9.448631
   Species   2 atoms =    4 mass =      1822.89 (a.u.),         1.00 (amu) rcmax =   0.50 (a.u.)
       11.193737    11.193737    11.073795
        9.448631     9.448631     6.609445
        7.064887    10.088582    11.073795
       10.088582     7.064887    11.073795
   Ionic position will be re-read from restart file

   All atoms are allowed to move
   Ionic temperature control via nose thermostat


   ion dynamics with nose` temperature control:
   temperature required      =  300.00000 (kelvin) 
   NH chain length           =   1
   active degrees of freedom =     15
   time steps per nose osc.  =   2756


   nose` frequency(es)       =       5.000


   the requested type of NH chains is     0
   total number of thermostats used     1 0 0
   ionic degrees of freedom for each chain   15


   nose` mass(es) for chain    1 =   49355.412


   atom i (in sorted order) is assigned to this thermostat :
   1   1   1   1   1


   Cell Dynamics Parameters (from STDIN)
   -------------------------------------
   Starting cell generated from CELLDM
   Cell parameters will be re-read from restart file
   Constant VOLUME Molecular dynamics
   cell parameters are not allowed to move

   Verbosity: iverbosity =  0



   Simulation dimensions initialization
   ------------------------------------

   unit vectors of full simulation cell
   in real space:                         in reciprocal space (units 2pi/alat):
   1    15.0000    0.0000    0.0000              1.0000    0.0000    0.0000
   2     0.0000   15.0000    0.0000              0.0000    1.0000    0.0000
   3     0.0000    0.0000   15.0000              0.0000    0.0000    1.0000

     Parallelization info
     --------------------
     sticks:   dense  smooth     PW     G-vecs:    dense   smooth      PW
     Min         142     142     34                 4062     4062     500
     Max         144     144     36                 4068     4068     508
     Sum        1433    1433    357                40651    40651    5041

     Using Slab Decomposition


   Real Mesh
   ---------
   Global Dimensions   Local  Dimensions   Processor Grid
   .X.   .Y.   .Z.     .X.   .Y.   .Z.     .X.   .Y.   .Z.
    45    45    45      45    45     5       1     1    10
   Array leading dimensions ( nr1x, nr2x, nr3x )   =     45    45    45
   Local number of cell to store the grid ( nrxx ) =      10125
   Number of x-y planes for each processors: 
  |  45,   5  |  45,   5  |  45,   5  |  45,   5  |  45,   5
  |  45,   4  |  45,   4  |  45,   4  |  45,   4  |  45,   4
   Using Slab Decomposition

   Smooth Real Mesh
   ----------------
   Global Dimensions   Local  Dimensions   Processor Grid
   .X.   .Y.   .Z.     .X.   .Y.   .Z.     .X.   .Y.   .Z.
    45    45    45      45    45     5       1     1    10
   Array leading dimensions ( nr1x, nr2x, nr3x )   =     45    45    45
   Local number of cell to store the grid ( nrxx ) =      10125
   Number of x-y planes for each processors: 
  |  45,   5  |  45,   5  |  45,   5  |  45,   5  |  45,   5
  |  45,   4  |  45,   4  |  45,   4  |  45,   4  |  45,   4
   Using Slab Decomposition

   Reciprocal Space Mesh
   ---------------------
   Large Mesh
     Global(ngm_g)    MinLocal       MaxLocal      Average
          20326           2031           2034        2032.60
   Smooth Mesh
     Global(ngms_g)   MinLocal       MaxLocal      Average
          20326           2031           2034        2032.60
   Wave function Mesh
     Global(ngw_g)    MinLocal       MaxLocal      Average
           2521            250            254         252.10


   System geometry initialization
   ------------------------------
   cell parameters read from restart file
   ibrav =    0       cell parameters 


   cell at current step : h(t)
      15.00000       0.00000       0.00000
       0.00000      15.00000       0.00000
       0.00000       0.00000      15.00000

   cell at previous step : h(t-dt)
      15.00000       0.00000       0.00000
       0.00000      15.00000       0.00000
       0.00000       0.00000      15.00000

     Subspace diagonalization in iterative solution of the eigenvalue problem:
     a serial algorithm will be used


   Matrix Multiplication Performances
   ortho mmul, time for parallel driver      =   0.00000 with    1 procs

   Constraints matrixes will be distributed block like on
   ortho sub-group =    1*   1 procs



   Pseudopotentials initialization
   -------------------------------


   Common initialization

   Specie:     1
   1  indv=  1   ang. mom=  0
   2  indv=  2   ang. mom=  0
   3  indv=  3   ang. mom=  1
   4  indv=  3   ang. mom=  1
   5  indv=  3   ang. mom=  1

                        dion 
   2.2379  -0.6766   0.0000
  -0.6766   0.8734   0.0000
   0.0000   0.0000   0.6078

   Specie:     2

                        dion 

   Cell parameters from input file are used in electron mass preconditioning
   init_tpiba2=    0.17545963

   External force field information
   --------------------------------
     2 external force field(s):
           1 : Repulsive planar (Fix indent lammps style) potential
             axis = 3  dir = 0 pos =   6.5000 inc =   0.0005 Strength =   300.0000
           2 : Repulsive planar (Fix indent lammps style) potential
             axis = 3  dir = 1 pos =  11.2000 inc =  -0.0005 Strength =   300.0000

   Short Legend and Physical Units in the Output
   ---------------------------------------------
   NFI    [int]          - step index
   EKINC  [HARTREE A.U.] - kinetic energy of the fictitious electronic dynamics
   TEMPH  [K]            - Temperature of the fictitious cell dynamics
   TEMP   [K]            - Ionic temperature
   ETOT   [HARTREE A.U.] - Scf total energy (Kohn-Sham hamiltonian)
   ENTHAL [HARTREE A.U.] - Enthalpy ( ETOT + P * V )
   ECONS  [HARTREE A.U.] - Enthalpy + kinetic energy of ions and cell
   ECONT  [HARTREE A.U.] - Constant of motion for the CP lagrangian


   formf: eself=    15.95769
   formf:     vps(g=0)=  -0.0019464     rhops(g=0)=  -0.0011723
   formf:     vps(g=0)=  -0.0019121     rhops(g=0)=  -0.0011595
   formf:     vps(g=0)=  -0.0019121     rhops(g=0)=  -0.0011595
   formf:     vps(g=0)=  -0.0018129     rhops(g=0)=  -0.0011219
   formf:     vps(g=0)=  -0.0018129     rhops(g=0)=  -0.0011219
   formf: sum_g vps(g)=  -2.2511106 sum_g rhops(g)=  -2.8201093
   formf:     vps(g=0)=  -0.0002319     rhops(g=0)=  -0.0002931
   formf:     vps(g=0)=  -0.0002307     rhops(g=0)=  -0.0002899
   formf:     vps(g=0)=  -0.0002307     rhops(g=0)=  -0.0002899
   formf:     vps(g=0)=  -0.0002271     rhops(g=0)=  -0.0002805
   formf:     vps(g=0)=  -0.0002271     rhops(g=0)=  -0.0002805
   formf: sum_g vps(g)=  -1.7180553 sum_g rhops(g)=  -0.7050273
   Delta V(G=0):   0.001862Ry,    0.050659eV

  nfi     ekinc              temph  tempp     etot                 enthal               econs                econt              vnhh    xnhh0   vnhp    xnhp0
      4    0.000000000398664    0.0    0.04      -6.181262790010      -6.181262790010      -6.181261853573      -6.181261848547   0.0000   0.0000  -0.0000   0.0000
      5    0.000000012626905    0.0    0.35      -6.181270264759      -6.181270264759      -6.181261858480      -6.181261841259   0.0000   0.0000  -0.0000  -0.0000
      6    0.000000069470287    0.0    0.98      -6.181285206626      -6.181285206626      -6.181261915744      -6.181261841864   0.0000   0.0000  -0.0000  -0.0000
      7    0.000000131536967    0.0    1.92      -6.181307594770      -6.181307594770      -6.181261981992      -6.181261846610   0.0000   0.0000  -0.0000  -0.0000
      8    0.000000152083165    0.0    3.17      -6.181337403916      -6.181337403916      -6.181262001282      -6.181261846647   0.0000   0.0000  -0.0000  -0.0000
      9    0.000000205595294    0.0    4.74      -6.181374605808      -6.181374605808      -6.181262050452      -6.181261844784   0.0000   0.0000  -0.0000  -0.0000
     10    0.000000351260842    0.0    6.61      -6.181419148032      -6.181419148032      -6.181262189999      -6.181261842898   0.0000   0.0000  -0.0000  -0.0001
     11    0.000000491184689    0.0    8.79      -6.181470987963      -6.181470987963      -6.181262333035      -6.181261852670   0.0000   0.0000  -0.0000  -0.0001
     12    0.000000545751729    0.0   11.27      -6.181530050226      -6.181530050226      -6.181262377040      -6.181261851975   0.0000   0.0000  -0.0000  -0.0001
     13    0.000000637861978    0.0   14.06      -6.181596285212      -6.181596285212      -6.181262458151      -6.181261854928   0.0000   0.0000  -0.0000  -0.0001
     14    0.000000871194662    0.0   17.13      -6.181669594032      -6.181669594032      -6.181262665905      -6.181261848356   0.0000   0.0000  -0.0000  -0.0001
     15    0.000001109056130    0.0   20.51      -6.181749913020      -6.181749913020      -6.181262887331      -6.181261857036   0.0000   0.0000  -0.0000  -0.0002
     16    0.000001210609423    0.0   24.17      -6.181837132488      -6.181837132488      -6.181262958353      -6.181261858878   0.0000   0.0000  -0.0000  -0.0002
     17    0.000001317992795    0.0   28.13      -6.181931164495      -6.181931164495      -6.181263026936      -6.181261860933   0.0000   0.0000  -0.0000  -0.0002
     18    0.000001605590505    0.0   32.36      -6.182031890373      -6.182031890373      -6.181263261908      -6.181261858930   0.0000   0.0000  -0.0000  -0.0003
     19    0.000001936356874    0.0   36.87      -6.182139200094      -6.182139200094      -6.181263535528      -6.181261863518   0.0000   0.0000  -0.0000  -0.0003
     20    0.000002097475781    0.0   41.65      -6.182252965874      -6.182252965874      -6.181263625125      -6.181261866257   0.0000   0.0000  -0.0000  -0.0003
     21    0.000002216456049    0.0   46.71      -6.182373065257      -6.182373065257      -6.181263657441      -6.181261867846   0.0000   0.0000  -0.0000  -0.0004
     22    0.000002545664976    0.0   52.02      -6.182499356522      -6.182499356522      -6.181263882155      -6.181261867088   0.0000   0.0000  -0.0000  -0.0004
     23    0.000002982216138    0.0   57.58      -6.182631698721      -6.182631698721      -6.181264203010      -6.181261872125   0.0000   0.0000  -0.0000  -0.0005
     24    0.000003234336951    0.0   63.39      -6.182769940621      -6.182769940621      -6.181264322560      -6.181261878840   0.0000   0.0000  -0.0000  -0.0005
     25    0.000003364544765    0.0   69.45      -6.182913928170      -6.182913928170      -6.181264296374      -6.181261881864   0.0000   0.0000  -0.0000  -0.0006
     26    0.000003683760788    0.0   75.75      -6.183063501312      -6.183063501312      -6.181264435725      -6.181261883119   0.0000   0.0000  -0.0000  -0.0006
     27    0.000004170881346    0.0   82.26      -6.183218496274      -6.183218496274      -6.181264726369      -6.181261891013   0.0000   0.0000  -0.0000  -0.0007
     28    0.000004511987691    0.0   89.00      -6.183378728840      -6.183378728840      -6.181264839608      -6.181261892320   0.0000   0.0000  -0.0000  -0.0007
     29    0.000004697443554    0.0   95.96      -6.183544043635      -6.183544043635      -6.181264778581      -6.181261901368   0.0000   0.0000  -0.0000  -0.0008
     30    0.000005041224330    0.0  103.13      -6.183714251370      -6.183714251370      -6.181264845947      -6.181261908344   0.0000   0.0000  -0.0000  -0.0009
     31    0.000005575996967    0.0  110.48      -6.183889155458      -6.183889155458      -6.181265066614      -6.181261906934   0.0000   0.0000  -0.0000  -0.0009
     32    0.000005980029967    0.0  118.03      -6.184068579902      -6.184068579902      -6.181265128892      -6.181261908594   0.0000   0.0000  -0.0000  -0.0010
     33    0.000006185592033    0.0  125.78      -6.184252334398      -6.184252334398      -6.181264959647      -6.181261909303   0.0000   0.0000  -0.0000  -0.0010
     34    0.000006519612860    0.0  133.69      -6.184440239143      -6.184440239143      -6.181264896865      -6.181261921421   0.0000   0.0000  -0.0000  -0.0011
     35    0.000007089886037    0.0  141.76      -6.184632071249      -6.184632071249      -6.181265025260      -6.181261923068   0.0000   0.0000  -0.0000  -0.0012
     36    0.000007579377519    0.0  150.00      -6.184827643131      -6.184827643131      -6.181265038704      -6.181261926285   0.0000   0.0000  -0.0000  -0.0013
     37    0.000007841007443    0.0  158.39      -6.185026755555      -6.185026755555      -6.181264785701      -6.181261927735   0.0000   0.0000  -0.0000  -0.0013
     38    0.000008170358027    0.0  166.92      -6.185229215034      -6.185229215034      -6.181264566040      -6.181261932601   0.0000   0.0000  -0.0000  -0.0014
     39    0.000008742601013    0.0  175.58      -6.185434803585      -6.185434803585      -6.181264542171      -6.181261928997   0.0000   0.0000  -0.0000  -0.0015
     40    0.000009284774396    0.0  184.37      -6.185643330432      -6.185643330432      -6.181264453483      -6.181261930017   0.0000   0.0000  -0.0000  -0.0015
     41    0.000009590516085    0.0  193.28      -6.185854579767      -6.185854579767      -6.181264076617      -6.181261919324   0.0000   0.0000  -0.0000  -0.0016
     42    0.000009907056627    0.0  202.29      -6.186068371415      -6.186068371415      -6.181263677755      -6.181261916408   0.0000   0.0000  -0.0000  -0.0017
     43    0.000010471126902    0.0  211.40      -6.186284496937      -6.186284496937      -6.181263488432      -6.181261916452   0.0000   0.0000  -0.0000  -0.0018
     44    0.000011069446028    0.0  220.60      -6.186502751947      -6.186502751947      -6.181263292529      -6.181261916869   0.0000   0.0000  -0.0000  -0.0018
     45    0.000011440746675    0.0  229.89      -6.186722939874      -6.186722939874      -6.181262828288      -6.181261917320   0.0000   0.0000  -0.0000  -0.0019
     46    0.000011760584117    0.0  239.26      -6.186944869775      -6.186944869775      -6.181262273824      -6.181261920391   0.0000   0.0000  -0.0000  -0.0020
     47    0.000012301946271    0.0  248.68      -6.187168341225      -6.187168341225      -6.181261897169      -6.181261920976   0.0000   0.0000  -0.0000  -0.0021
     48    0.000012916678089    0.0  258.16      -6.187393154878      -6.187393154878      -6.181261543785      -6.181261912396   0.0000   0.0000  -0.0000  -0.0022
     49    0.000013310685662    0.0  267.70      -6.187619139395      -6.187619139395      -6.181260934599      -6.181261909261   0.0000   0.0000  -0.0000  -0.0022
     50    0.000013604524490    0.0  277.29      -6.187846112676      -6.187846112676      -6.181260189906      -6.181261910776   0.0000   0.0000  -0.0000  -0.0023
     51    0.000014130149217    0.0  286.90      -6.188073887886      -6.188073887886      -6.181259636238      -6.181261910798   0.0000   0.0000  -0.0000  -0.0024
     52    0.000014818933149    0.0  296.54      -6.188302280142      -6.188302280142      -6.181259198477      -6.181261901953   0.0000   0.0000  -0.0000  -0.0025
     53    0.000015302809091    0.0  306.20      -6.188531129262      -6.188531129262      -6.181258519455      -6.181261894144   0.0000   0.0000  -0.0000  -0.0026
     54    0.000015566106304    0.0  315.89      -6.188760280679      -6.188760280679      -6.181257592935      -6.181261895697   0.0000   0.0000  -0.0000  -0.0026
     55    0.000015972741018    0.0  325.58      -6.188989569649      -6.188989569649      -6.181256779107      -6.181261901603   0.0000   0.0000  -0.0000  -0.0027
     56    0.000016620508395    0.0  335.25      -6.189218819387      -6.189218819387      -6.181256157658      -6.181261892296   0.0000   0.0000  -0.0000  -0.0028
     57    0.000017190376882    0.0  344.93      -6.189447902337      -6.189447902337      -6.181255432701      -6.181261889335   0.0000   0.0000  -0.0000  -0.0029
     58    0.000017533104879    0.0  354.60      -6.189676671421      -6.189676671421      -6.181254450044      -6.181261886091   0.0000   0.0000  -0.0000  -0.0030
     59    0.000017910514091    0.0  364.26      -6.189904993635      -6.189904993635      -6.181253475664      -6.181261884888   0.0000   0.0000  -0.0000  -0.0030
     60    0.000018490282663    0.0  373.88      -6.190132734284      -6.190132734284      -6.181252676120      -6.181261882612   0.0000   0.0000  -0.0000  -0.0031
     61    0.000019057092023    0.0  383.47      -6.190359769161      -6.190359769161      -6.181251837141      -6.181261878190   0.0000   0.0000  -0.0000  -0.0032
     62    0.000019437461407    0.0  393.04      -6.190585983378      -6.190585983378      -6.181250787738      -6.181261871900   0.0000   0.0000  -0.0000  -0.0033
     63    0.000019811023732    0.0  402.57      -6.190811270928      -6.190811270928      -6.181249712760      -6.181261866618   0.0000   0.0000  -0.0000  -0.0034
     64    0.000020345807894    0.0  412.05      -6.191035523700      -6.191035523700      -6.181248777844      -6.181261857465   0.0000   0.0000  -0.0000  -0.0034
     65    0.000020884862051    0.0  421.49      -6.191258653925      -6.191258653925      -6.181247836944      -6.181261852750   0.0000   0.0000  -0.0000  -0.0035
     66    0.000021269802079    0.0  430.88      -6.191480558266      -6.191480558266      -6.181246718667      -6.181261836778   0.0000   0.0000  -0.0000  -0.0036
     67    0.000021651084800    0.0  440.21      -6.191701179905      -6.191701179905      -6.181245599936      -6.181261833221   0.0000   0.0000  -0.0000  -0.0036
     68    0.000022189733496    0.0  449.49      -6.191920421476      -6.191920421476      -6.181244623263      -6.181261820653   0.0000   0.0000  -0.0000  -0.0037
     69    0.000022738646498    0.0  458.70      -6.192138229739      -6.192138229739      -6.181243659651      -6.181261814165   0.0000   0.0000  -0.0000  -0.0038
     70    0.000023110796561    0.0  467.85      -6.192354533716      -6.192354533716      -6.181242514772      -6.181261803374   0.0000   0.0000  -0.0000  -0.0039
     71    0.000023429443136    0.0  476.94      -6.192569288972      -6.192569288972      -6.181241324677      -6.181261797903   0.0000   0.0000  -0.0000  -0.0039
     72    0.000023907326392    0.0  485.96      -6.192782444892      -6.192782444892      -6.181240304120      -6.181261796491   0.0000   0.0000  -0.0000  -0.0040
     73    0.000024467710828    0.0  494.91      -6.192993949100      -6.192993949100      -6.181239370401      -6.181261789809   0.0000   0.0000  -0.0000  -0.0041
     74    0.000024893776113    0.0  503.79      -6.193203767932      -6.193203767932      -6.181238313036      -6.181261780779   0.0000   0.0000  -0.0000  -0.0041
     75    0.000025216182358    0.0  512.60      -6.193411870410      -6.193411870410      -6.181237165932      -6.181261769166   0.0000   0.0000  -0.0000  -0.0042
     76    0.000025636052023    0.0  521.33      -6.193618238082      -6.193618238082      -6.181236142470      -6.181261763671   0.0000   0.0000  -0.0000  -0.0042
     77    0.000026157078829    0.0  529.98      -6.193822840363      -6.193822840363      -6.181235241270      -6.181261755581   0.0000   0.0000  -0.0000  -0.0043
     78    0.000026595873907    0.0  538.56      -6.194025659758      -6.194025659758      -6.181234282504      -6.181261744778   0.0000   0.0000  -0.0000  -0.0043
     79    0.000026920558198    0.0  547.07      -6.194226686876      -6.194226686876      -6.181233241481      -6.181261734720   0.0000   0.0000  -0.0000  -0.0044
     80    0.000027293976634    0.0  555.50      -6.194425907484      -6.194425907484      -6.181232280784      -6.181261721357   0.0000   0.0000  -0.0000  -0.0044
     81    0.000027774080915    0.0  563.84      -6.194623320834      -6.194623320834      -6.181231469393      -6.181261711869   0.0000   0.0000  -0.0000  -0.0045
     82    0.000028224651176    0.0  572.11      -6.194818919229      -6.194818919229      -6.181230671665      -6.181261702945   0.0000   0.0000  -0.0000  -0.0045
     83    0.000028572450155    0.0  580.30      -6.195012695354      -6.195012695354      -6.181229813265      -6.181261689567   0.0000   0.0000  -0.0000  -0.0046
     84    0.000028929967028    0.0  588.42      -6.195204652413      -6.195204652413      -6.181229015548      -6.181261676637   0.0000   0.0000  -0.0000  -0.0046
     85    0.000029376032953    0.0  596.45      -6.195394800988      -6.195394800988      -6.181228372738      -6.181261675540   0.0000   0.0000  -0.0000  -0.0047
     86    0.000029811277950    0.0  604.41      -6.195583130282      -6.195583130282      -6.181227777511      -6.181261674283   0.0000   0.0000  -0.0000  -0.0047
     87    0.000030145407253    0.0  612.29      -6.195769629635      -6.195769629635      -6.181227133213      -6.181261662441   0.0000   0.0000  -0.0000  -0.0047
     88    0.000030468250700    0.0  620.09      -6.195954308392      -6.195954308392      -6.181226544699      -6.181261650948   0.0000   0.0000  -0.0000  -0.0048
     89    0.000030889714975    0.0  627.80      -6.196137167017      -6.196137167017      -6.181226128487      -6.181261642289   0.0000   0.0000  -0.0000  -0.0048
     90    0.000031340348447    0.0  635.44      -6.196318202330      -6.196318202330      -6.181225819077      -6.181261636269   0.0000   0.0000  -0.0000  -0.0048
     91    0.000031695597935    0.0  643.00      -6.196497402815      -6.196497402815      -6.181225491070      -6.181261627877   0.0000   0.0000  -0.0000  -0.0048
     92    0.000032000056234    0.0  650.48      -6.196674764448      -6.196674764448      -6.181225198257      -6.181261622134   0.0000   0.0000  -0.0000  -0.0049
     93    0.000032378060983    0.0  657.87      -6.196850270531      -6.196850270531      -6.181225065043      -6.181261614908   0.0000   0.0000  -0.0000  -0.0049
     94    0.000032801688004    0.0  665.18      -6.197023918912      -6.197023918912      -6.181225080366      -6.181261618849   0.0000   0.0000  -0.0000  -0.0049
     95    0.000033147808313    0.0  672.41      -6.197195664376      -6.197195664376      -6.181225100666      -6.181261609313   0.0000   0.0000  -0.0000  -0.0049
     96    0.000033440021727    0.0  679.56      -6.197365501191      -6.197365501191      -6.181225173527      -6.181261606058   0.0000   0.0000  -0.0000  -0.0049
     97    0.000033809881491    0.0  686.62      -6.197533394620      -6.197533394620      -6.181225429479      -6.181261603838   0.0000   0.0000  -0.0000  -0.0049
     98    0.000034240687442    0.0  693.59      -6.197699309476      -6.197699309476      -6.181225855875      -6.181261602480   0.0000   0.0000   0.0000  -0.0049
     99    0.000034584783500    0.0  700.47      -6.197863204491      -6.197863204491      -6.181226308665      -6.181261601377   0.0000   0.0000   0.0000  -0.0049

 * Physical Quantities at step:   100

   from rhoofr: total integrated electronic density
   in g-space =      8.000000   in r-space =     8.000000


                total energy =       -6.19802503712 Hartree a.u.
              kinetic energy =        3.61279 Hartree a.u.
        electrostatic energy =       -7.35294 Hartree a.u.
                         esr =        0.00000 Hartree a.u.
                       eself =       15.95769 Hartree a.u.
      pseudopotential energy =       -0.71952 Hartree a.u.
  n-l pseudopotential energy =        0.79972 Hartree a.u.
 exchange-correlation energy =       -2.53808 Hartree a.u.
           average potential =        0.00000 Hartree a.u.



   Eigenvalues (eV), kp =   1 , spin =  1

  -12.85   -8.16   -7.65   -7.65


   CELL_PARAMETERS
   15.00000000    0.00000000    0.00000000
    0.00000000   15.00000000    0.00000000
    0.00000000    0.00000000   15.00000000

   System Density [g/cm^3] :              0.1065359777


   System Volume [A.U.^3] :           3375.0000000000


   Center of mass square displacement (a.u.):   0.000000

   ATOMIC_POSITIONS
   Si      0.94486539090534E+01     0.94486539069915E+01     0.94901198728649E+01
   H       0.11250966934425E+02     0.11250967668701E+02     0.10677754968267E+02
   H       0.94486494960625E+01     0.94486492920212E+01     0.66325682536844E+01
   H       0.69884829256142E+01     0.10106917815269E+02     0.10679232414288E+02
   H       0.10106918820229E+02     0.69884827884733E+01     0.10679231774705E+02

   ATOMIC_VELOCITIES
   Si      0.29566387726998E-06     0.29568055143203E-06     0.22587858163198E-03
   H       0.67774668545600E-03     0.67774472688631E-03    -0.21864610571740E-02
   H       0.80390577222866E-06     0.80265984192529E-06     0.20917274362722E-03
   H      -0.92075988598825E-03     0.23275166959963E-03    -0.21737492781401E-02
   H       0.23274813832047E-03    -0.92076374285016E-03    -0.21737511086301E-02



   Partial temperatures (for each ionic specie) 
   Species  Temp (K)   Mean Square Displacement (a.u.)
        1   2.73E+02     1.7130E-03
        2   8.16E+02     1.2197E-01

  nfi     ekinc              temph  tempp     etot                 enthal               econs                econt              vnhh    xnhh0   vnhp    xnhp0
    100    0.000034838215773    0.0  707.26      -6.198025037120      -6.198025037120      -6.181226792588      -6.181261605012   0.0000   0.0000   0.0000  -0.0049

   writing restart file (with schema): /home/pizza/codes/QEdev/q-e/tempdir/SiH4_50.save/
     restart      :      0.01s CPU      0.01s WALL (       1 calls)
    101    0.000035159164375    0.0  713.96      -6.198184745055      -6.198184745055      -6.181227461797      -6.181261605165   0.0000   0.0000   0.0000  -0.0049
    102    0.000035582939356    0.0  720.55      -6.198342267457      -6.198342267457      -6.181228354148      -6.181261600212   0.0000   0.0000   0.0000  -0.0049
    103    0.000035953094722    0.0  727.05      -6.198497545312      -6.198497545312      -6.181229323764      -6.181261596575   0.0000   0.0000   0.0000  -0.0049
    104    0.000036200481921    0.0  733.45      -6.198650502194      -6.198650502194      -6.181230302302      -6.181261590941   0.0000   0.0000   0.0000  -0.0048
    105    0.000036466445548    0.0  739.74      -6.198801071175      -6.198801071175      -6.181231448337      -6.181261596457   0.0000   0.0000   0.0000  -0.0048
    106    0.000036847050039    0.0  745.92      -6.198949155307      -6.198949155307      -6.181232851572      -6.181261602730   0.0000   0.0000   0.0000  -0.0048
    107    0.000037222253508    0.0  751.98      -6.199094656962      -6.199094656962      -6.181234391111      -6.181261604924   0.0000   0.0000   0.0000  -0.0048
    108    0.000037479203104    0.0  757.92      -6.199237486707      -6.199237486707      -6.181235968477      -6.181261613487   0.0000   0.0000   0.0000  -0.0047
    109    0.000037718600850    0.0  763.75      -6.199377530360      -6.199377530360      -6.181237680592      -6.181261620768   0.0000   0.0000   0.0000  -0.0047
    110    0.000038059904087    0.0  769.44      -6.199514681114      -6.199514681114      -6.181239656785      -6.181261632860   0.0000   0.0000   0.0000  -0.0046
    111    0.000038411547049    0.0  775.00      -6.199648800571      -6.199648800571      -6.181241789436      -6.181261630008   0.0000   0.0000   0.0000  -0.0046
    112    0.000038643972616    0.0  780.42      -6.199779792585      -6.199779792585      -6.181243980628      -6.181261640239   0.0000   0.0000   0.0000  -0.0045
    113    0.000038841395842    0.0  785.70      -6.199907516336      -6.199907516336      -6.181246307381      -6.181261652841   0.0000   0.0000   0.0000  -0.0045
    114    0.000039152390054    0.0  790.82      -6.200031829240      -6.200031829240      -6.181248914853      -6.181261661001   0.0000   0.0000   0.0000  -0.0044
    115    0.000039512590507    0.0  795.79      -6.200152596839      -6.200152596839      -6.181251747538      -6.181261670316   0.0000   0.0000   0.0000  -0.0043
    116    0.000039751067038    0.0  800.60      -6.200269673727      -6.200269673727      -6.181254636355      -6.181261679492   0.0000   0.0000   0.0000  -0.0043
    117    0.000039889996547    0.0  805.24      -6.200382910603      -6.200382910603      -6.181257604738      -6.181261686767   0.0000   0.0000   0.0000  -0.0042
    118    0.000040100762617    0.0  809.70      -6.200492155183      -6.200492155183      -6.181260826201      -6.181261691428   0.0000   0.0000   0.0000  -0.0041
    119    0.000040408950601    0.0  813.98      -6.200597268126      -6.200597268126      -6.181264344019      -6.181261708493   0.0000   0.0000   0.0000  -0.0040
    120    0.000040673578970    0.0  818.07      -6.200698066752      -6.200698066752      -6.181267992899      -6.181261711160   0.0000   0.0000   0.0000  -0.0040
    121    0.000040841417122    0.0  821.97      -6.200794420203      -6.200794420203      -6.181271747900      -6.181261725392   0.0000   0.0000   0.0000  -0.0039
    122    0.000041001156823    0.0  825.67      -6.200886155384      -6.200886155384      -6.181275685976      -6.181261737327   0.0000   0.0000   0.0000  -0.0038
    123    0.000041194688890    0.0  829.15      -6.200973112312      -6.200973112312      -6.181279850495      -6.181261746542   0.0000   0.0000   0.0000  -0.0037
    124    0.000041370032232    0.0  832.42      -6.201055131269      -6.201055131269      -6.181284189793      -6.181261751674   0.0000   0.0000   0.0000  -0.0036
    125    0.000041519203079    0.0  835.47      -6.201132064771      -6.201132064771      -6.181288706202      -6.181261761588   0.0000   0.0000   0.0000  -0.0034
    126    0.000041691447271    0.0  838.29      -6.201203753051      -6.201203753051      -6.181293446055      -6.181261772167   0.0000   0.0000   0.0000  -0.0033
    127    0.000041872509347    0.0  840.87      -6.201270048402      -6.201270048402      -6.181298402026      -6.181261789396   0.0000   0.0000   0.0000  -0.0032
    128    0.000041992606348    0.0  843.22      -6.201330782433      -6.201330782433      -6.181303487420      -6.181261795673   0.0000   0.0000   0.0000  -0.0031
    129    0.000042055891693    0.0  845.31      -6.201385826287      -6.201385826287      -6.181308723607      -6.181261807788   0.0000   0.0000   0.0000  -0.0030
    130    0.000042133148486    0.0  847.15      -6.201435032604      -6.201435032604      -6.181314176254      -6.181261820490   0.0000   0.0000   0.0000  -0.0028
    131    0.000042239494644    0.0  848.74      -6.201478252518      -6.201478252518      -6.181319849341      -6.181261822807   0.0000   0.0000   0.0000  -0.0027
    132    0.000042329532738    0.0  850.05      -6.201515385307      -6.201515385307      -6.181325727752      -6.181261845486   0.0000   0.0000   0.0000  -0.0025
    133    0.000042388258303    0.0  851.10      -6.201546285922      -6.201546285922      -6.181331774565      -6.181261867368   0.0000   0.0000   0.0001  -0.0024
    134    0.000042433071143    0.0  851.87      -6.201570839178      -6.201570839178      -6.181338009517      -6.181261891860   0.0000   0.0000   0.0001  -0.0022
    135    0.000042463442435    0.0  852.36      -6.201588913324      -6.201588913324      -6.181344410959      -6.181261899235   0.0000   0.0000   0.0001  -0.0021
    136    0.000042470359143    0.0  852.57      -6.201600417322      -6.201600417322      -6.181350979902      -6.181261901223   0.0000   0.0000   0.0001  -0.0019
    137    0.000042458856377    0.0  852.49      -6.201605281302      -6.201605281302      -6.181357743181      -6.181261921658   0.0000   0.0000   0.0001  -0.0018
    138    0.000042430871269    0.0  852.12      -6.201603390308      -6.201603390308      -6.181364671374      -6.181261931538   0.0000   0.0000   0.0001  -0.0016
    139    0.000042381111504    0.0  851.45      -6.201594695530      -6.201594695530      -6.181371784894      -6.181261959256   0.0000   0.0000   0.0001  -0.0014
    140    0.000042323789571    0.0  850.49      -6.201579091292      -6.201579091292      -6.181379055766      -6.181261965639   0.0000   0.0000   0.0001  -0.0012
    141    0.000042283662052    0.0  849.22      -6.201556544185      -6.201556544185      -6.181386527412      -6.181261972700   0.0000   0.0000   0.0001  -0.0010
    142    0.000042237687123    0.0  847.66      -6.201527016258      -6.201527016258      -6.181394181182      -6.181261988504   0.0000   0.0000   0.0001  -0.0009
    143    0.000042126016759    0.0  845.79      -6.201490446632      -6.201490446632      -6.181401929144      -6.181261988947   0.0000   0.0000   0.0001  -0.0007
    144    0.000041959249364    0.0  843.63      -6.201446831954      -6.201446831954      -6.181409799080      -6.181261995496   0.0000   0.0000   0.0001  -0.0005
    145    0.000041819387834    0.0  841.15      -6.201396158556      -6.201396158556      -6.181417866978      -6.181262006748   0.0000   0.0000   0.0001  -0.0003
    146    0.000041712571574    0.0  838.37      -6.201338423673      -6.201338423673      -6.181426131643      -6.181262020303   0.0000   0.0000   0.0001  -0.0000
    147    0.000041548047371    0.0  835.29      -6.201273626241      -6.201273626241      -6.181434488673      -6.181262027725   0.0000   0.0000   0.0001   0.0002
    148    0.000041314376231    0.0  831.91      -6.201201784305      -6.201201784305      -6.181442919444      -6.181262027308   0.0000   0.0000   0.0001   0.0004
    149    0.000041111258340    0.0  828.23      -6.201122949181      -6.201122949181      -6.181451535389      -6.181262036556   0.0000   0.0000   0.0001   0.0006
    150    0.000040960380582    0.0  824.25      -6.201037159660      -6.201037159660      -6.181460345276      -6.181262048612   0.0000   0.0000   0.0001   0.0008
    151    0.000040756596447    0.0  819.97      -6.200944455472      -6.200944455472      -6.181469223304      -6.181262049124   0.0000   0.0000   0.0001   0.0011
    152    0.000040463525270    0.0  815.41      -6.200844911027      -6.200844911027      -6.181478135057      -6.181262046560   0.0000   0.0000   0.0001   0.0013
    153    0.000040173362989    0.0  810.55      -6.200738607151      -6.200738607151      -6.181487167894      -6.181262042824   0.0000   0.0000   0.0001   0.0015
    154    0.000039919488313    0.0  805.41      -6.200625639777      -6.200625639777      -6.181496353270      -6.181262042976   0.0000   0.0000   0.0001   0.0018
    155    0.000039621260641    0.0  799.98      -6.200506105689      -6.200506105689      -6.181505600848      -6.181262044483   0.0000   0.0000   0.0001   0.0020
    156    0.000039275237519    0.0  794.29      -6.200380126589      -6.200380126589      -6.181514911641      -6.181262059120   0.0000   0.0000   0.0001   0.0023
    157    0.000038984537927    0.0  788.32      -6.200247788185      -6.200247788185      -6.181524344364      -6.181262049990   0.0000   0.0000   0.0001   0.0026
    158    0.000038738039180    0.0  782.08      -6.200109251899      -6.200109251899      -6.181533907858      -6.181262044729   0.0000   0.0000   0.0001   0.0028
    159    0.000038386497941    0.0  775.59      -6.199964667043      -6.199964667043      -6.181543454290      -6.181262052499   0.0000   0.0000   0.0001   0.0031
    160    0.000037915911721    0.0  768.86      -6.199814158425      -6.199814158425      -6.181552936605      -6.181262048064   0.0000   0.0000   0.0001   0.0034
    161    0.000037503531024    0.0  761.87      -6.199657904903      -6.199657904903      -6.181562541291      -6.181262048602   0.0000   0.0000   0.0001   0.0036
    162    0.000037209192944    0.0  754.65      -6.199496081931      -6.199496081931      -6.181572324713      -6.181262058711   0.0000   0.0000   0.0001   0.0039
    163    0.000036862963639    0.0  747.20      -6.199328850198      -6.199328850198      -6.181582092188      -6.181262061734   0.0000   0.0000   0.0001   0.0042
    164    0.000036381333280    0.0  739.53      -6.199156391428      -6.199156391428      -6.181591749775      -6.181262055284   0.0000   0.0000   0.0001   0.0045
    165    0.000035921018423    0.0  731.65      -6.198978908798      -6.198978908798      -6.181601455638      -6.181262048877   0.0000   0.0000   0.0001   0.0048
    166    0.000035567046221    0.0  723.56      -6.198796610062      -6.198796610062      -6.181611291828      -6.181262047663   0.0000   0.0000   0.0001   0.0051
    167    0.000035162813079    0.0  715.28      -6.198609687001      -6.198609687001      -6.181621078717      -6.181262036692   0.0000   0.0000   0.0001   0.0054
    168    0.000034624990798    0.0  706.81      -6.198418369425      -6.198418369425      -6.181630743565      -6.181262034501   0.0000   0.0000   0.0001   0.0057
    169    0.000034121868469    0.0  698.18      -6.198222855291      -6.198222855291      -6.181640424992      -6.181262019320   0.0000   0.0000   0.0001   0.0060
    170    0.000033750479511    0.0  689.36      -6.198023390269      -6.198023390269      -6.181650231714      -6.181262010725   0.0000   0.0000   0.0001   0.0063
    171    0.000033337526277    0.0  680.40      -6.197820208113      -6.197820208113      -6.181659987664      -6.181262013707   0.0000   0.0000   0.0001   0.0066
    172    0.000032761839977    0.0  671.29      -6.197613515562      -6.197613515562      -6.181669540424      -6.181262004558   0.0000   0.0000   0.0001   0.0069
    173    0.000032195388430    0.0  662.05      -6.197403568509      -6.197403568509      -6.181679073510      -6.181262002241   0.0000   0.0000   0.0001   0.0072
    174    0.000031790853403    0.0  652.68      -6.197190595305      -6.197190595305      -6.181688718436      -6.181261992943   0.0000   0.0000   0.0001   0.0076
    175    0.000031393107964    0.0  643.19      -6.196974852843      -6.196974852843      -6.181698326813      -6.181261990581   0.0000   0.0000   0.0001   0.0079
    176    0.000030821352225    0.0  633.61      -6.196756567797      -6.196756567797      -6.181707695570      -6.181261979767   0.0000   0.0000   0.0001   0.0082
    177    0.000030203427858    0.0  623.93      -6.196535989041      -6.196535989041      -6.181716949475      -6.181261964082   0.0000   0.0000   0.0001   0.0085
    178    0.000029739214361    0.0  614.16      -6.196313379664      -6.196313379664      -6.181726295808      -6.181261957473   0.0000   0.0000   0.0001   0.0089
    179    0.000029337275108    0.0  604.32      -6.196088984278      -6.196088984278      -6.181735631634      -6.181261954793   0.0000   0.0000   0.0001   0.0092
    180    0.000028793368106    0.0  594.43      -6.195863029343      -6.195863029343      -6.181744727404      -6.181261936747   0.0000   0.0000   0.0001   0.0096
    181    0.000028168383837    0.0  584.48      -6.195635792863      -6.195635792863      -6.181753670689      -6.181261935721   0.0000   0.0000   0.0001   0.0099
    182    0.000027664510032    0.0  574.49      -6.195407495152      -6.195407495152      -6.181762630203      -6.181261923779   0.0000   0.0000   0.0001   0.0102
    183    0.000027251240840    0.0  564.47      -6.195178405401      -6.195178405401      -6.181771591775      -6.181261922575   0.0000   0.0000   0.0001   0.0106
    184    0.000026737526277    0.0  554.43      -6.194948750524      -6.194948750524      -6.181780344088      -6.181261916811   0.0000   0.0000   0.0001   0.0109
    185    0.000026130510972    0.0  544.39      -6.194718768829      -6.194718768829      -6.181788888419      -6.181261905240   0.0000   0.0000   0.0001   0.0113
    186    0.000025601484278    0.0  534.35      -6.194488706532      -6.194488706532      -6.181797398649      -6.181261894841   0.0000   0.0000   0.0001   0.0116
    187    0.000025155834638    0.0  524.31      -6.194258801429      -6.194258801429      -6.181805876473      -6.181261886077   0.0000   0.0000   0.0001   0.0120
    188    0.000024646128432    0.0  514.30      -6.194029285813      -6.194029285813      -6.181814171374      -6.181261879675   0.0000   0.0000   0.0001   0.0123
    189    0.000024075031474    0.0  504.32      -6.193800384009      -6.193800384009      -6.181822280544      -6.181261873615   0.0000   0.0000   0.0001   0.0127
    190    0.000023584177103    0.0  494.38      -6.193572321093      -6.193572321093      -6.181830343557      -6.181261869044   0.0000   0.0000   0.0001   0.0131
    191    0.000023160481099    0.0  484.48      -6.193345316612      -6.193345316612      -6.181838343272      -6.181261864854   0.0000   0.0000   0.0001   0.0134
    192    0.000022646816280    0.0  474.65      -6.193119574356      -6.193119574356      -6.181846109652      -6.181261850720   0.0000   0.0000   0.0001   0.0138
    193    0.000022050609956    0.0  464.89      -6.192895324922      -6.192895324922      -6.181853671338      -6.181261850088   0.0000   0.0000   0.0001   0.0142
    194    0.000021554586388    0.0  455.20      -6.192672755546      -6.192672755546      -6.181861193542      -6.181261847444   0.0000   0.0000   0.0001   0.0145
    195    0.000021186910966    0.0  445.59      -6.192452067157      -6.192452067157      -6.181868704794      -6.181261844938   0.0000   0.0000   0.0001   0.0149
    196    0.000020760614114    0.0  436.08      -6.192233449015      -6.192233449015      -6.181876014662      -6.181261840544   0.0000   0.0000   0.0001   0.0153
    197    0.000020200396439    0.0  426.68      -6.192017079759      -6.192017079759      -6.181883043929      -6.181261831397   0.0000   0.0000   0.0001   0.0156
    198    0.000019664651868    0.0  417.38      -6.191803143894      -6.191803143894      -6.181889957926      -6.181261825237   0.0000   0.0000   0.0001   0.0160
    199    0.000019257387209    0.0  408.19      -6.191591813465      -6.191591813465      -6.181896860147      -6.181261822181   0.0000   0.0000   0.0001   0.0164

 * Physical Quantities at step:   200

   from rhoofr: total integrated electronic density
   in g-space =      8.000000   in r-space =     8.000000


                total energy =       -6.19138324894 Hartree a.u.
              kinetic energy =        3.49219 Hartree a.u.
        electrostatic energy =       -7.27924 Hartree a.u.
                         esr =        0.00000 Hartree a.u.
                       eself =       15.95769 Hartree a.u.
      pseudopotential energy =       -0.68537 Hartree a.u.
  n-l pseudopotential energy =        0.77152 Hartree a.u.
 exchange-correlation energy =       -2.49048 Hartree a.u.
           average potential =        0.00000 Hartree a.u.



   Eigenvalues (eV), kp =   1 , spin =  1

  -12.64   -7.92   -7.91   -7.18


   CELL_PARAMETERS
   15.00000000    0.00000000    0.00000000
    0.00000000   15.00000000    0.00000000
    0.00000000    0.00000000   15.00000000

   System Density [g/cm^3] :              0.1065359777


   System Volume [A.U.^3] :           3375.0000000000


   Center of mass square displacement (a.u.):   0.000000

   ATOMIC_POSITIONS
   Si      0.94487816526255E+01     0.94487816102038E+01     0.95544877545897E+01
   H       0.11509732902688E+02     0.11509734033988E+02     0.10055540280661E+02
   H       0.94491285419972E+01     0.94491287006905E+01     0.66880903901332E+01
   H       0.66349579015050E+01     0.10197032238154E+02     0.10061631542661E+02
   H       0.10197034289066E+02     0.66349582250972E+01     0.10061630567736E+02

   ATOMIC_VELOCITIES
   Si      0.31734983363396E-06     0.31703747793710E-06     0.18019503900513E-03
   H       0.38344396445567E-03     0.38344026374676E-03    -0.17008669499019E-02
   H       0.59584270628577E-06     0.59990721640313E-06     0.35737920094092E-04
   H      -0.52894743412163E-03     0.13321047702519E-03    -0.16889846258294E-02
   H       0.13321082684342E-03    -0.52894818013655E-03    -0.16889846368762E-02



   Partial temperatures (for each ionic specie) 
   Species  Temp (K)   Mean Square Displacement (a.u.)
        1   1.74E+02     1.1145E-02
        2   4.55E+02     9.2165E-01

  nfi     ekinc              temph  tempp     etot                 enthal               econs                econt              vnhh    xnhh0   vnhp    xnhp0
    200    0.000018870730138    0.0  399.12      -6.191383248939      -6.191383248939      -6.181903639064      -6.181261818931   0.0000   0.0000   0.0001   0.0168

   writing restart file (with schema): /home/pizza/codes/QEdev/q-e/tempdir/SiH4_50.save/
     restart      :      0.01s CPU      0.01s WALL (       2 calls)
    201    0.000018409496530    0.0  390.19      -6.191177599134      -6.191177599134      -6.181910194587      -6.181261810609   0.0000   0.0000   0.0001   0.0171
    202    0.000017948330430    0.0  381.39      -6.190975028335      -6.190975028335      -6.181916619450      -6.181261815071   0.0000   0.0000   0.0001   0.0175
    203    0.000017555952167    0.0  372.73      -6.190775652675      -6.190775652675      -6.181922958402      -6.181261807930   0.0000   0.0000   0.0001   0.0179
    204    0.000017162396224    0.0  364.21      -6.190579622067      -6.190579622067      -6.181929159563      -6.181261806619   0.0000   0.0000   0.0001   0.0183
    205    0.000016715038314    0.0  355.85      -6.190387056324      -6.190387056324      -6.181935169286      -6.181261809194   0.0000   0.0000   0.0001   0.0186
    206    0.000016293446888    0.0  347.65      -6.190198062560      -6.190198062560      -6.181941061764      -6.181261809163   0.0000   0.0000   0.0001   0.0190
    207    0.000015951833971    0.0  339.60      -6.190012749585      -6.190012749585      -6.181946894175      -6.181261808220   0.0000   0.0000   0.0001   0.0194
    208    0.000015607376713    0.0  331.72      -6.189831214481      -6.189831214481      -6.181952583322      -6.181261804520   0.0000   0.0000   0.0001   0.0198
    209    0.000015198684991    0.0  324.00      -6.189653546841      -6.189653546841      -6.181958071380      -6.181261799924   0.0000   0.0000   0.0001   0.0202
    210    0.000014807483918    0.0  316.46      -6.189479826097      -6.189479826097      -6.181963442863      -6.181261795356   0.0000   0.0000   0.0001   0.0205
    211    0.000014504675002    0.0  309.10      -6.189310127570      -6.189310127570      -6.181968774254      -6.181261794437   0.0000   0.0000   0.0001   0.0209
    212    0.000014215115012    0.0  301.90      -6.189144520348      -6.189144520348      -6.181973997870      -6.181261802520   0.0000   0.0000   0.0001   0.0213
    213    0.000013857597195    0.0  294.89      -6.188983040827      -6.188983040827      -6.181979018673      -6.181261803477   0.0000   0.0000   0.0001   0.0217
    214    0.000013494016788    0.0  288.06      -6.188825739044      -6.188825739044      -6.181983908260      -6.181261804584   0.0000   0.0000   0.0001   0.0220
    215    0.000013210244667    0.0  281.41      -6.188672654016      -6.188672654016      -6.181988758363      -6.181261809224   0.0000   0.0000   0.0001   0.0224
    216    0.000012960878276    0.0  274.95      -6.188523795920      -6.188523795920      -6.181993508561      -6.181261799819   0.0000   0.0000   0.0001   0.0228
    217    0.000012662402250    0.0  268.67      -6.188379202793      -6.188379202793      -6.181998098506      -6.181261796845   0.0000   0.0000   0.0001   0.0232
    218    0.000012346145839    0.0  262.57      -6.188238875800      -6.188238875800      -6.182002556476      -6.181261794466   0.0000   0.0000   0.0001   0.0236
    219    0.000012092555240    0.0  256.66      -6.188102812312      -6.188102812312      -6.182006963194      -6.181261790153   0.0000   0.0000   0.0001   0.0239
    220    0.000011883031624    0.0  250.92      -6.187971009423      -6.187971009423      -6.182011307421      -6.181261788436   0.0000   0.0000   0.0001   0.0243
    221    0.000011642774472    0.0  245.38      -6.187843451395      -6.187843451395      -6.182015518394      -6.181261790445   0.0000   0.0000   0.0001   0.0247
    222    0.000011377875202    0.0  240.01      -6.187720111141      -6.187720111141      -6.182019605924      -6.181261796938   0.0000   0.0000   0.0001   0.0251
    223    0.000011153265146    0.0  234.82      -6.187600945001      -6.187600945001      -6.182023628466      -6.181261798488   0.0000   0.0000   0.0001   0.0254
    224    0.000010966306752    0.0  229.81      -6.187485915250      -6.187485915250      -6.182027589552      -6.181261798329   0.0000   0.0000   0.0001   0.0258
    225    0.000010761820162    0.0  224.98      -6.187374971800      -6.187374971800      -6.182031437113      -6.181261796616   0.0000   0.0000   0.0001   0.0262
    226    0.000010544833711    0.0  220.32      -6.187268059490      -6.187268059490      -6.182035183214      -6.181261797419   0.0000   0.0000   0.0001   0.0266
    227    0.000010364898464    0.0  215.83      -6.187165111636      -6.187165111636      -6.182038880033      -6.181261800448   0.0000   0.0000   0.0001   0.0269
    228    0.000010214354965    0.0  211.51      -6.187066044402      -6.187066044402      -6.182042511195      -6.181261794108   0.0000   0.0000   0.0001   0.0273
    229    0.000010044265040    0.0  207.35      -6.186970799757      -6.186970799757      -6.182046052574      -6.181261800354   0.0000   0.0000   0.0001   0.0277
    230    0.000009861519618    0.0  203.35      -6.186879267885      -6.186879267885      -6.182049492531      -6.181261797826   0.0000   0.0000   0.0001   0.0281
    231    0.000009715784029    0.0  199.51      -6.186791369036      -6.186791369036      -6.182052898449      -6.181261801487   0.0000   0.0000   0.0001   0.0284
    232    0.000009604132651    0.0  195.81      -6.186706999205      -6.186706999205      -6.182056265326      -6.181261806587   0.0000   0.0000   0.0001   0.0288
    233    0.000009476453476    0.0  192.26      -6.186626048857      -6.186626048857      -6.182059542321      -6.181261809766   0.0000   0.0000   0.0001   0.0292
    234    0.000009328895454    0.0  188.86      -6.186548403693      -6.186548403693      -6.182062727140      -6.181261810008   0.0000   0.0000   0.0001   0.0295
    235    0.000009202674317    0.0  185.59      -6.186473954944      -6.186473954944      -6.182065873308      -6.181261817140   0.0000   0.0000   0.0001   0.0299
    236    0.000009100255594    0.0  182.46      -6.186402576925      -6.186402576925      -6.182068981905      -6.181261827396   0.0000   0.0000   0.0001   0.0303
    237    0.000008989074302    0.0  179.45      -6.186334135028      -6.186334135028      -6.182072015054      -6.181261833163   0.0000   0.0000   0.0001   0.0306
    238    0.000008876856642    0.0  176.56      -6.186268496554      -6.186268496554      -6.182074982609      -6.181261834348   0.0000   0.0000   0.0001   0.0310
    239    0.000008796543200    0.0  173.79      -6.186205531009      -6.186205531009      -6.182077925710      -6.181261837049   0.0000   0.0000   0.0001   0.0314
    240    0.000008731862234    0.0  171.12      -6.186145095390      -6.186145095390      -6.182080826070      -6.181261837250   0.0000   0.0000   0.0001   0.0317
    241    0.000008639828998    0.0  168.56      -6.186087048680      -6.186087048680      -6.182083643603      -6.181261835934   0.0000   0.0000   0.0001   0.0321
    242    0.000008535035399    0.0  166.09      -6.186031248729      -6.186031248729      -6.182086397973      -6.181261836353   0.0000   0.0000   0.0001   0.0325
    243    0.000008467601031    0.0  163.71      -6.185977548283      -6.185977548283      -6.182089142185      -6.181261839702   0.0000   0.0000   0.0001   0.0328
    244    0.000008425453314    0.0  161.42      -6.185925790668      -6.185925790668      -6.182091858004      -6.181261838253   0.0000   0.0000   0.0001   0.0332
    245    0.000008348765862    0.0  159.21      -6.185875831682      -6.185875831682      -6.182094492123      -6.181261837043   0.0000   0.0000   0.0001   0.0335
    246    0.000008241974543    0.0  157.06      -6.185827518544      -6.185827518544      -6.182097049311      -6.181261835014   0.0000   0.0000   0.0001   0.0339
    247    0.000008172657435    0.0  154.99      -6.185780700931      -6.185780700931      -6.182099600120      -6.181261833883   0.0000   0.0000   0.0001   0.0342
    248    0.000008151314206    0.0  152.96      -6.185735227150      -6.185735227150      -6.182102155531      -6.181261833015   0.0000   0.0000   0.0001   0.0346
    249    0.000008116640610    0.0  150.99      -6.185690949907      -6.185690949907      -6.182104657611      -6.181261834752   0.0000   0.0000   0.0001   0.0349
    250    0.000008042851880    0.0  149.07      -6.185647717511      -6.185647717511      -6.182107079082      -6.181261836651   0.0000   0.0000   0.0001   0.0353
    251    0.000007968478679    0.0  147.19      -6.185605386171      -6.185605386171      -6.182109463031      -6.181261842428   0.0000   0.0000   0.0001   0.0356
    252    0.000007913659823    0.0  145.34      -6.185563804185      -6.185563804185      -6.182111823208      -6.181261844976   0.0000   0.0000   0.0001   0.0360
    253    0.000007855390575    0.0  143.52      -6.185522830478      -6.185522830478      -6.182114136879      -6.181261843946   0.0000   0.0000   0.0001   0.0363
    254    0.000007791084331    0.0  141.72      -6.185482330299      -6.185482330299      -6.182116405956      -6.181261843307   0.0000   0.0000   0.0001   0.0367
    255    0.000007749203881    0.0  139.93      -6.185442169240      -6.185442169240      -6.182118658817      -6.181261842545   0.0000   0.0000   0.0001   0.0370
    256    0.000007716577782    0.0  138.15      -6.185402222539      -6.185402222539      -6.182120886935      -6.181261845971   0.0000   0.0000   0.0001   0.0374
    257    0.000007645676135    0.0  136.39      -6.185362352271      -6.185362352271      -6.182123028591      -6.181261839122   0.0000   0.0000   0.0001   0.0377
    258    0.000007547782493    0.0  134.62      -6.185322454677      -6.185322454677      -6.182125109844      -6.181261836572   0.0000   0.0000   0.0001   0.0380
    259    0.000007486146663    0.0  132.85      -6.185282412665      -6.185282412665      -6.182127188394      -6.181261832666   0.0000   0.0000   0.0001   0.0384
    260    0.000007461891869    0.0  131.06      -6.185242120204      -6.185242120204      -6.182129263834      -6.181261825859   0.0000   0.0000   0.0001   0.0387
    261    0.000007407460479    0.0  129.27      -6.185201486399      -6.185201486399      -6.182131274930      -6.181261822503   0.0000   0.0000   0.0001   0.0390
    262    0.000007306034776    0.0  127.46      -6.185160414864      -6.185160414864      -6.182133197565      -6.181261815351   0.0000   0.0000   0.0001   0.0394
    263    0.000007219036761    0.0  125.62      -6.185118836138      -6.185118836138      -6.182135104014      -6.181261815377   0.0000   0.0000   0.0001   0.0397
    264    0.000007172432417    0.0  123.77      -6.185076663478      -6.185076663478      -6.182137004406      -6.181261806935   0.0000   0.0000   0.0001   0.0400
    265    0.000007109491248    0.0  121.89      -6.185033847166      -6.185033847166      -6.182138854026      -6.181261802258   0.0000   0.0000   0.0001   0.0404
    266    0.000006998705234    0.0  119.98      -6.184990328297      -6.184990328297      -6.182140613868      -6.181261794065   0.0000   0.0000   0.0001   0.0407
    267    0.000006892365649    0.0  118.05      -6.184946062549      -6.184946062549      -6.182142333865      -6.181261780242   0.0000   0.0000   0.0001   0.0410
    268    0.000006827553368    0.0  116.08      -6.184901033181      -6.184901033181      -6.182144064001      -6.181261773982   0.0000   0.0000   0.0001   0.0413
    269    0.000006757859268    0.0  114.08      -6.184855207233      -6.184855207233      -6.182145743547      -6.181261761255   0.0000   0.0000   0.0001   0.0417
    270    0.000006646201284    0.0  112.05      -6.184808587411      -6.184808587411      -6.182147345607      -6.181261752509   0.0000   0.0000   0.0001   0.0420
    271    0.000006532219188    0.0  109.99      -6.184761175589      -6.184761175589      -6.182148907730      -6.181261745905   0.0000   0.0000   0.0001   0.0423
    272    0.000006449788464    0.0  107.89      -6.184712982659      -6.184712982659      -6.182150457496      -6.181261735408   0.0000   0.0000   0.0001   0.0426
    273    0.000006357474975    0.0  105.77      -6.184664039250      -6.184664039250      -6.182151954821      -6.181261722598   0.0000   0.0000   0.0001   0.0429
    274    0.000006218572415    0.0  103.62      -6.184614388972      -6.184614388972      -6.182153364666      -6.181261709314   0.0000   0.0000   0.0001   0.0433
    275    0.000006077281328    0.0  101.44      -6.184564080266      -6.184564080266      -6.182154725701      -6.181261690158   0.0000   0.0000   0.0001   0.0436
    276    0.000005983156580    0.0   99.24      -6.184513194156      -6.184513194156      -6.182156101251      -6.181261679015   0.0000   0.0000   0.0001   0.0439
    277    0.000005900001761    0.0   97.02      -6.184461794339      -6.184461794339      -6.182157437402      -6.181261658227   0.0000   0.0000   0.0001   0.0442
    278    0.000005769291205    0.0   94.79      -6.184409987024      -6.184409987024      -6.182158688732      -6.181261640866   0.0000   0.0000   0.0001   0.0445
    279    0.000005611211499    0.0   92.54      -6.184357868296      -6.184357868296      -6.182159866569      -6.181261617957   0.0000   0.0000   0.0001   0.0448
    280    0.000005481849902    0.0   90.29      -6.184305574241      -6.184305574241      -6.182161043844      -6.181261606179   0.0000   0.0000   0.0001   0.0451
    281    0.000005376703764    0.0   88.04      -6.184253215495      -6.184253215495      -6.182162194958      -6.181261584196   0.0000   0.0000   0.0001   0.0454
    282    0.000005253276239    0.0   85.79      -6.184200944766      -6.184200944766      -6.182163286021      -6.181261560274   0.0000   0.0000   0.0001   0.0457
    283    0.000005107645329    0.0   83.56      -6.184148919337      -6.184148919337      -6.182164315307      -6.181261536160   0.0000   0.0000   0.0001   0.0460
    284    0.000004968892741    0.0   81.34      -6.184097314990      -6.184097314990      -6.182165320634      -6.181261520049   0.0000   0.0000   0.0001   0.0463
    285    0.000004841418764    0.0   79.15      -6.184046304866      -6.184046304866      -6.182166300166      -6.181261505069   0.0000   0.0000   0.0001   0.0466
    286    0.000004707983804    0.0   77.00      -6.183996071385      -6.183996071385      -6.182167228946      -6.181261482751   0.0000   0.0000   0.0001   0.0469
    287    0.000004572128102    0.0   74.89      -6.183946820361      -6.183946820361      -6.182168117055      -6.181261458774   0.0000   0.0000   0.0001   0.0472
    288    0.000004447376598    0.0   72.83      -6.183898767495      -6.183898767495      -6.182168984920      -6.181261439064   0.0000   0.0000   0.0001   0.0475
    289    0.000004324770845    0.0   70.83      -6.183852124890      -6.183852124890      -6.182169816177      -6.181261415128   0.0000   0.0000   0.0001   0.0478
    290    0.000004191954192    0.0   68.90      -6.183807117106      -6.183807117106      -6.182170595463      -6.181261382745   0.0000   0.0000   0.0001   0.0480
    291    0.000004061857413    0.0   67.06      -6.183763995799      -6.183763995799      -6.182171353497      -6.181261358373   0.0000   0.0000   0.0001   0.0483
    292    0.000003949313635    0.0   65.30      -6.183722993686      -6.183722993686      -6.182172097421      -6.181261332877   0.0000   0.0000   0.0001   0.0486
    293    0.000003843996930    0.0   63.64      -6.183684359310      -6.183684359310      -6.182172817241      -6.181261305031   0.0000   0.0000   0.0001   0.0489
    294    0.000003728821150    0.0   62.10      -6.183648356976      -6.183648356976      -6.182173507770      -6.181261285051   0.0000   0.0000   0.0001   0.0492
    295    0.000003612062363    0.0   60.67      -6.183615231395      -6.183615231395      -6.182174166090      -6.181261259941   0.0000   0.0000   0.0001   0.0494
    296    0.000003512091010    0.0   59.38      -6.183585249648      -6.183585249648      -6.182174819397      -6.181261236622   0.0000   0.0000   0.0001   0.0497
    297    0.000003426359509    0.0   58.24      -6.183558676790      -6.183558676790      -6.182175468921      -6.181261216863   0.0000   0.0000   0.0001   0.0500
    298    0.000003343985607    0.0   57.25      -6.183535767548      -6.183535767548      -6.182176095861      -6.181261190627   0.0000   0.0000   0.0001   0.0502
    299    0.000003271481312    0.0   56.42      -6.183516793131      -6.183516793131      -6.182176716612      -6.181261165579   0.0000   0.0000   0.0001   0.0505

 * Physical Quantities at step:   300

   from rhoofr: total integrated electronic density
   in g-space =      8.000000   in r-space =     8.000000


                total energy =       -6.18350201686 Hartree a.u.
              kinetic energy =        3.61338 Hartree a.u.
        electrostatic energy =       -7.34936 Hartree a.u.
                         esr =        0.00000 Hartree a.u.
                       eself =       15.95769 Hartree a.u.
      pseudopotential energy =       -0.71780 Hartree a.u.
  n-l pseudopotential energy =        0.80506 Hartree a.u.
 exchange-correlation energy =       -2.53477 Hartree a.u.
           average potential =        0.00000 Hartree a.u.



   Eigenvalues (eV), kp =   1 , spin =  1

  -12.92   -8.23   -8.22   -6.84


   CELL_PARAMETERS
   15.00000000    0.00000000    0.00000000
    0.00000000   15.00000000    0.00000000
    0.00000000    0.00000000   15.00000000

   System Density [g/cm^3] :              0.1065359777


   System Volume [A.U.^3] :           3375.0000000000


   Center of mass square displacement (a.u.):   0.000000

   ATOMIC_POSITIONS
   Si      0.94487295796637E+01     0.94487294877441E+01     0.95805296698051E+01
   H       0.11408593868413E+02     0.11408595114338E+02     0.98203439721654E+01
   H       0.94483276135151E+01     0.94483285863961E+01     0.66649913103476E+01
   H       0.67717507984410E+01     0.10162487114917E+02     0.98268839593586E+01
   H       0.10162489874082E+02     0.67717513744646E+01     0.98268831230484E+01

   ATOMIC_VELOCITIES
   Si     -0.80928967083338E-06    -0.80936084223548E-06    -0.33204702874767E-04
   H      -0.41799603059722E-03    -0.41799446334034E-03     0.34818156005118E-03
   H      -0.55479374297396E-05    -0.55481927832557E-05    -0.92451514586561E-04
   H       0.57995945731276E-03    -0.13869229018054E-03     0.34053055946920E-03
   H      -0.13869142458239E-03     0.57995810392744E-03     0.34053354291935E-03



   Partial temperatures (for each ionic specie) 
   Species  Temp (K)   Mean Square Displacement (a.u.)
        1   5.99E+00     1.7292E-02
        2   6.82E+01     1.2405E+00

  nfi     ekinc              temph  tempp     etot                 enthal               econs                econt              vnhh    xnhh0   vnhp    xnhp0
    300    0.000003214100389    0.0   55.77      -6.183502016859      -6.183502016859      -6.182177340416      -6.181261143399   0.0000   0.0000   0.0001   0.0508

   writing restart file (with schema): /home/pizza/codes/QEdev/q-e/tempdir/SiH4_50.save/
     restart      :      0.01s CPU      0.02s WALL (       3 calls)
    301    0.000003158116008    0.0   55.31      -6.183491694002      -6.183491694002      -6.182177950736      -6.181261118875   0.0000   0.0000   0.0001   0.0510
    302    0.000003097963037    0.0   55.05      -6.183486088524      -6.183486088524      -6.182178551961      -6.181261099474   0.0000   0.0000   0.0001   0.0513
    303    0.000003053597537    0.0   55.00      -6.183485448401      -6.183485448401      -6.182179163463      -6.181261082050   0.0000   0.0000   0.0001   0.0515
    304    0.000003038255268    0.0   55.16      -6.183490016923      -6.183490016923      -6.182179799366      -6.181261064871   0.0000   0.0000   0.0001   0.0518
    305    0.000003037543461    0.0   55.56      -6.183500033390      -6.183500033390      -6.182180449217      -6.181261049196   0.0000   0.0000   0.0001   0.0521
    306    0.000003038642181    0.0   56.19      -6.183515721763      -6.183515721763      -6.182181096491      -6.181261028574   0.0000   0.0000   0.0001   0.0523
    307    0.000003051485389    0.0   57.07      -6.183537308881      -6.183537308881      -6.182181761082      -6.181261010179   0.0000   0.0000   0.0001   0.0526
    308    0.000003084424366    0.0   58.21      -6.183564999328      -6.183564999328      -6.182182450376      -6.181260990219   0.0000   0.0000   0.0001   0.0528
    309    0.000003127724703    0.0   59.61      -6.183598995201      -6.183598995201      -6.182183161137      -6.181260972340   0.0000   0.0000   0.0001   0.0530
    310    0.000003179071355    0.0   61.29      -6.183639478235      -6.183639478235      -6.182183890881      -6.181260953496   0.0000   0.0000   0.0001   0.0533
    311    0.000003254497028    0.0   63.24      -6.183686627087      -6.183686627087      -6.182184667054      -6.181260942210   0.0000   0.0000   0.0001   0.0535
    312    0.000003353452237    0.0   65.48      -6.183740588263      -6.183740588263      -6.182185483560      -6.181260930042   0.0000   0.0000   0.0001   0.0538
    313    0.000003458370795    0.0   68.00      -6.183801500867      -6.183801500867      -6.182186324377      -6.181260915642   0.0000   0.0000   0.0001   0.0540
    314    0.000003574674147    0.0   70.83      -6.183869491992      -6.183869491992      -6.182187201164      -6.181260902357   0.0000   0.0000   0.0001   0.0542
    315    0.000003723900445    0.0   73.96      -6.183944673397      -6.183944673397      -6.182188144974      -6.181260896832   0.0000   0.0000   0.0001   0.0545
    316    0.000003896797327    0.0   77.39      -6.184027121586      -6.184027121586      -6.182189139481      -6.181260889150   0.0000   0.0000   0.0001   0.0547
    317    0.000004064793050    0.0   81.12      -6.184116910426      -6.184116910426      -6.182190163712      -6.181260884083   0.0000   0.0000   0.0001   0.0549
    318    0.000004235701532    0.0   85.17      -6.184214085635      -6.184214085635      -6.182191224084      -6.181260877438   0.0000   0.0000   0.0001   0.0552
    319    0.000004445395020    0.0   89.52      -6.184318684377      -6.184318684377      -6.182192367692      -6.181260877684   0.0000   0.0000   0.0001   0.0554
    320    0.000004691941754    0.0   94.19      -6.184430709330      -6.184430709330      -6.182193590318      -6.181260879837   0.0000   0.0000   0.0001   0.0556
    321    0.000004939424377    0.0   99.17      -6.184550148659      -6.184550148659      -6.182194858293      -6.181260883483   0.0000   0.0000   0.0001   0.0558
    322    0.000005188315739    0.0  104.45      -6.184676965769      -6.184676965769      -6.182196169893      -6.181260883801   0.0000   0.0000   0.0001   0.0561
    323    0.000005473453378    0.0  110.04      -6.184811111389      -6.184811111389      -6.182197567388      -6.181260885659   0.0000   0.0000   0.0001   0.0563
    324    0.000005790712060    0.0  115.93      -6.184952521204      -6.184952521204      -6.182199060210      -6.181260900116   0.0000   0.0000   0.0001   0.0565
    325    0.000006099631119    0.0  122.12      -6.185101077282      -6.185101077282      -6.182200593240      -6.181260910053   0.0000   0.0000   0.0001   0.0567
    326    0.000006403713134    0.0  128.60      -6.185256674768      -6.185256674768      -6.182202197841      -6.181260940926   0.0000   0.0000   0.0001   0.0569
    327    0.000006747869976    0.0  135.37      -6.185419191713      -6.185419191713      -6.182203950521      -6.181261021997   0.0000   0.0000   0.0001   0.0571
    328    0.000007133909712    0.0  142.42      -6.185588459376      -6.185588459376      -6.182205844524      -6.181261142436   0.0000   0.0000   0.0001   0.0573
    329    0.000007516103808    0.0  149.74      -6.185764310429      -6.185764310429      -6.182207827996      -6.181261293891   0.0000   0.0000   0.0001   0.0575
    330    0.000007890565783    0.0  157.33      -6.185946553801      -6.185946553801      -6.182209861721      -6.181261438839   0.0000   0.0000   0.0001   0.0578
    331    0.000008300015792    0.0  165.17      -6.186134997717      -6.186134997717      -6.182211943614      -6.181261530313   0.0000   0.0000   0.0001   0.0580
    332    0.000008746041420    0.0  173.27      -6.186329415704      -6.186329415704      -6.182213982830      -6.181261473744   0.0000   0.0000   0.0001   0.0582
    333    0.000009185087795    0.0  181.62      -6.186529569709      -6.186529569709      -6.182215817512      -6.181261148687   0.0000   0.0000   0.0001   0.0584
    334    0.000009617362301    0.0  190.22      -6.186735205761      -6.186735205761      -6.182217304696      -6.181260409802   0.0000   0.0000   0.0001   0.0586
    335    0.000010088984779    0.0  199.05      -6.186946042757      -6.186946042757      -6.182218322813      -6.181259087217   0.0000   0.0000   0.0001   0.0588
    336    0.000010597651314    0.0  208.11      -6.187161806123      -6.187161806123      -6.182218725305      -6.181257034479   0.0000   0.0000   0.0001   0.0590
    337    0.000011090159704    0.0  217.40      -6.187382174244      -6.187382174244      -6.182218302806      -6.181254093182   0.0000   0.0000   0.0001   0.0592
    338    0.000011569837162    0.0  226.91      -6.187606853192      -6.187606853192      -6.182216984763      -6.181250187174   0.0000   0.0000   0.0001   0.0594
    339    0.000012096344406    0.0  236.63      -6.187835492660      -6.187835492660      -6.182214774898      -6.181245258258   0.0000   0.0000   0.0001   0.0596
    340    0.000012663756543    0.0  246.53      -6.188067744816      -6.188067744816      -6.182211700273      -6.181239337192   0.0000   0.0000   0.0001   0.0598
    341    0.000013203736834    0.0  256.60      -6.188303246602      -6.188303246602      -6.182207799869      -6.181232529095   0.0000   0.0000   0.0001   0.0600
    342    0.000013721483355    0.0  266.82      -6.188541633343      -6.188541633343      -6.182203268813      -6.181225021759   0.0000   0.0000   0.0001   0.0602
    343    0.000014288110520    0.0  277.15      -6.188782507424      -6.188782507424      -6.182198406520      -6.181217041458   0.0000   0.0000   0.0001   0.0604
    344    0.000014894092141    0.0  287.58      -6.189025485313      -6.189025485313      -6.182193494037      -6.181208876867   0.0000   0.0000   0.0001   0.0606
    345    0.000015454210883    0.0  298.07      -6.189270162486      -6.189270162486      -6.182188734131      -6.181200814181   0.0000   0.0000   0.0001   0.0608
    346    0.000015964451051    0.0  308.60      -6.189516144503      -6.189516144503      -6.182184410011      -6.181193138940   0.0000   0.0000   0.0001   0.0610
    347    0.000016511808582    0.0  319.14      -6.189763033020      -6.189763033020      -6.182180857420      -6.181186098346   0.0000   0.0000   0.0001   0.0612
    348    0.000017111645516    0.0  329.66      -6.190010434967      -6.190010434967      -6.182178289881      -6.181179889137   0.0000   0.0000   0.0001   0.0614
    349    0.000017675355043    0.0  340.14      -6.190257945367      -6.190257945367      -6.182176734357      -6.181174625528   0.0000   0.0000   0.0001   0.0615
    350    0.000018178268479    0.0  350.56      -6.190505182584      -6.190505182584      -6.182176227636      -6.181170367661   0.0000   0.0000   0.0001   0.0617
    351    0.000018706380886    0.0  360.92      -6.190751768408      -6.190751768408      -6.182176847374      -6.181167105928   0.0000   0.0000   0.0001   0.0619
    352    0.000019284947995    0.0  371.18      -6.190997320869      -6.190997320869      -6.182178540635      -6.181164760910   0.0000   0.0000   0.0001   0.0621
    353    0.000019821936030    0.0  381.35      -6.191241479836      -6.191241479836      -6.182181102412      -6.181163218387   0.0000   0.0000   0.0001   0.0623
    354    0.000020284936340    0.0  391.42      -6.191483893832      -6.191483893832      -6.182184351858      -6.181162328640   0.0000   0.0000   0.0001   0.0625
    355    0.000020766821666    0.0  401.37      -6.191724205658      -6.191724205658      -6.182188196014      -6.181161904539   0.0000   0.0000   0.0001   0.0627
    356    0.000021304589494    0.0  411.21      -6.191962108138      -6.191962108138      -6.182192515779      -6.181161788695   0.0000   0.0000   0.0001   0.0629
    357    0.000021802176317    0.0  420.92      -6.192197268639      -6.192197268639      -6.182197027188      -6.181161791872   0.0000   0.0000   0.0001   0.0632
    358    0.000022218507894    0.0  430.50      -6.192429390285      -6.192429390285      -6.182201598591      -6.181161822130   0.0000   0.0000   0.0001   0.0634
    359    0.000022661837679    0.0  439.93      -6.192658153350      -6.192658153350      -6.182206298135      -6.181161838037   0.0000   0.0000   0.0001   0.0636
    360    0.000023191187847    0.0  449.21      -6.192883288476      -6.192883288476      -6.182211201260      -6.181161854775   0.0000   0.0000   0.0001   0.0638
    361    0.000023690899287    0.0  458.31      -6.193104530091      -6.193104530091      -6.182216198480      -6.181161877331   0.0000   0.0000   0.0001   0.0640
    362    0.000024071073729    0.0  467.24      -6.193321627593      -6.193321627593      -6.182221205964      -6.181161910611   0.0000   0.0000   0.0001   0.0642
    363    0.000024429596135    0.0  475.98      -6.193534322746      -6.193534322746      -6.182226305351      -6.181161937283   0.0000   0.0000   0.0001   0.0644
    364    0.000024870726660    0.0  484.52      -6.193742396022      -6.193742396022      -6.182231609003      -6.181161964481   0.0000   0.0000   0.0001   0.0646
    365    0.000025319512270    0.0  492.85      -6.193945630770      -6.193945630770      -6.182237036454      -6.181161985814   0.0000   0.0000   0.0001   0.0648
    366    0.000025668684888    0.0  500.96      -6.194143835367      -6.194143835367      -6.182242483703      -6.181162003721   0.0000   0.0000   0.0001   0.0650
    367    0.000025977251685    0.0  508.86      -6.194336837771      -6.194336837771      -6.182248016295      -6.181162023990   0.0000   0.0000   0.0001   0.0653
    368    0.000026357044281    0.0  516.52      -6.194524467342      -6.194524467342      -6.182253737571      -6.181162037518   0.0000   0.0000   0.0001   0.0655
    369    0.000026766693422    0.0  523.94      -6.194706589131      -6.194706589131      -6.182259616069      -6.181162053711   0.0000   0.0000   0.0001   0.0657
    370    0.000027090448914    0.0  531.12      -6.194883074720      -6.194883074720      -6.182265536384      -6.181162072485   0.0000   0.0000   0.0001   0.0659
    371    0.000027347967172    0.0  538.06      -6.195053814229      -6.195053814229      -6.182271518494      -6.181162093815   0.0000   0.0000   0.0001   0.0661
    372    0.000027639772568    0.0  544.74      -6.195218696033      -6.195218696033      -6.182277645594      -6.181162100163   0.0000   0.0000   0.0001   0.0664
    373    0.000027954338941    0.0  551.17      -6.195377664723      -6.195377664723      -6.182283928811      -6.181162114100   0.0000   0.0000   0.0001   0.0666
    374    0.000028207660063    0.0  557.34      -6.195530655805      -6.195530655805      -6.182290281086      -6.181162132586   0.0000   0.0000   0.0001   0.0668
    375    0.000028420378706    0.0  563.26      -6.195677618814      -6.195677618814      -6.182296716449      -6.181162149118   0.0000   0.0000   0.0001   0.0671
    376    0.000028676762984    0.0  568.91      -6.195818523509      -6.195818523509      -6.182303316341      -6.181162161112   0.0000   0.0000   0.0001   0.0673
    377    0.000028952191924    0.0  574.31      -6.195953367493      -6.195953367493      -6.182310065244      -6.181162178045   0.0000   0.0000   0.0001   0.0675
    378    0.000029149916950    0.0  579.44      -6.196082149197      -6.196082149197      -6.182316862237      -6.181162196201   0.0000   0.0000   0.0001   0.0678
    379    0.000029284206330    0.0  584.32      -6.196204871121      -6.196204871121      -6.182323705849      -6.181162200384   0.0000   0.0000   0.0001   0.0680
    380    0.000029458301802    0.0  588.94      -6.196321578582      -6.196321578582      -6.182330710261      -6.181162202217   0.0000   0.0000   0.0001   0.0683
    381    0.000029674490482    0.0  593.30      -6.196432319666      -6.196432319666      -6.182337877278      -6.181162202025   0.0000   0.0000   0.0001   0.0685
[...]
   2931    0.000013319156646    0.0  187.22      -6.099755765403      -6.099755765403      -6.093852060105      -6.060322593726   0.0000   0.0000   0.0003   2.1922
   2932    0.000013461453007    0.0  189.09      -6.099765839987      -6.099765839987      -6.093840069328      -6.060302321619   0.0000   0.0000   0.0003   2.1931
   2933    0.000013521866974    0.0  191.18      -6.099785106269      -6.099785106269      -6.093830542719      -6.060284518575   0.0000   0.0000   0.0003   2.1940
   2934    0.000013452857122    0.0  193.54      -6.099813726120      -6.099813726120      -6.093823257037      -6.060268998258   0.0000   0.0000   0.0003   2.1949
   2935    0.000013330519300    0.0  196.18      -6.099851771601      -6.099851771601      -6.093818076736      -6.060255537414   0.0000   0.0000   0.0003   2.1958
   2936    0.000013278253007    0.0  199.11      -6.099899266952      -6.099899266952      -6.093814931085      -6.060243929583   0.0000   0.0000   0.0003   2.1967
   2937    0.000013339904944    0.0  202.34      -6.099956182707      -6.099956182707      -6.093813689518      -6.060233987427   0.0000   0.0000   0.0003   2.1976
   2938    0.000013479631877    0.0  205.90      -6.100022410165      -6.100022410165      -6.093814151500      -6.060225532752   0.0000   0.0000   0.0003   2.1985
   2939    0.000013684660934    0.0  209.79      -6.100097783160      -6.100097783160      -6.093816168563      -6.060218415908   0.0000   0.0000   0.0003   2.1994
   2940    0.000013979461226    0.0  214.00      -6.100182068024      -6.100182068024      -6.093819643141      -6.060212500647   0.0000   0.0000   0.0003   2.2003
   2941    0.000014337708419    0.0  218.55      -6.100274938831      -6.100274938831      -6.093824422024      -6.060207645762   0.0000   0.0000   0.0003   2.2012
   2942    0.000014682025948    0.0  223.43      -6.100375989514      -6.100375989514      -6.093830281670      -6.060203690719   0.0000   0.0000   0.0003   2.2021
   2943    0.000014981354564    0.0  228.65      -6.100484775451      -6.100484775451      -6.093837010980      -6.060200441152   0.0000   0.0000   0.0003   2.2030
   2944    0.000015278772227    0.0  234.18      -6.100600837011      -6.100600837011      -6.093844414517      -6.060197644399   0.0000   0.0000   0.0003   2.2039
   2945    0.000015608557885    0.0  240.04      -6.100723680828      -6.100723680828      -6.093852197986      -6.060194957940   0.0000   0.0000   0.0003   2.2048
   2946    0.000015950294115    0.0  246.21      -6.100852801327      -6.100852801327      -6.093859946447      -6.060191973430   0.0000   0.0000   0.0003   2.2057
   2947    0.000016283831007    0.0  252.69      -6.100987612154      -6.100987612154      -6.093867097041      -6.060188134364   0.0000   0.0000   0.0003   2.2066
   2948    0.000016633944125    0.0  259.49      -6.101127570844      -6.101127570844      -6.093873086865      -6.060182839282   0.0000   0.0000   0.0003   2.2075
   2949    0.000017027451244    0.0  266.59      -6.101272150196      -6.101272150196      -6.093877288536      -6.060175420214   0.0000   0.0000   0.0003   2.2084
   2950    0.000017456501339    0.0  274.01      -6.101420895730      -6.101420895730      -6.093879049665      -6.060165218821   0.0000   0.0000   0.0003   2.2093
   2951    0.000017899365701    0.0  281.74      -6.101573455212      -6.101573455212      -6.093877791272      -6.060151663988   0.0000   0.0000   0.0003   2.2102
   2952    0.000018357941960    0.0  289.66      -6.101729555050      -6.101729555050      -6.093875110484      -6.060136339359   0.0000   0.0000   0.0003   2.2111
   2953    0.000018838114523    0.0  297.31      -6.101888746176      -6.101888746176      -6.093879560679      -6.060127793108   0.0000   0.0000   0.0003   2.2120
   2954    0.000019273729563    0.0  303.89      -6.102049854756      -6.102049854756      -6.093905965635      -6.060140943001   0.0000   0.0000   0.0003   2.2129
   2955    0.000019546290090    0.0  308.51      -6.102210980117      -6.102210980117      -6.093970213579      -6.060191859717   0.0000   0.0000   0.0003   2.2138
   2956    0.000019627752820    0.0  310.42      -6.102369503039      -6.102369503039      -6.094084222394      -6.060292588054   0.0000   0.0000   0.0003   2.2147
   2957    0.000019621539725    0.0  309.34      -6.102522193873      -6.102522193873      -6.094248976998      -6.060444130783   0.0000   0.0000   0.0003   2.2156
   2958    0.000019594921549    0.0  305.73      -6.102665384241      -6.102665384241      -6.094447910752      -6.060629972101   0.0000   0.0000   0.0003   2.2165
   2959    0.000019510522953    0.0  300.90      -6.102795237423      -6.102795237423      -6.094644808199      -6.060814014199   0.0000   0.0000   0.0003   2.2174
   2960    0.000019415662052    0.0  296.85      -6.102908273793      -6.102908273793      -6.094790015709      -6.060946565943   0.0000   0.0000   0.0003   2.2183
   2961    0.000019537629909    0.0  295.65      -6.103002016039      -6.103002016039      -6.094834834456      -6.060978624600   0.0000   0.0000   0.0003   2.2192
   2962    0.000020075229169    0.0  298.72      -6.103075305755      -6.103075305755      -6.094748825380      -6.060879400585   0.0000   0.0000   0.0003   2.2201
   2963    0.000021012094217    0.0  306.34      -6.103128506319      -6.103128506319      -6.094532461849      -6.060649195023   0.0000   0.0000   0.0003   2.2210
   2964    0.000022179598425    0.0  317.50      -6.103163506952      -6.103163506952      -6.094218439522      -6.060320698624   0.0000   0.0000   0.0003   2.2219
   2965    0.000023362724830    0.0  330.35      -6.103183544281      -6.103183544281      -6.093860529732      -6.059947784545   0.0000   0.0000   0.0003   2.2228
   2966    0.000024311935748    0.0  342.87      -6.103192742649      -6.103192742649      -6.093515452305      -6.059587391254   0.0000   0.0000   0.0003   2.2237
   2967    0.000024831576658    0.0  353.51      -6.103195721323      -6.103195721323      -6.093226731572      -6.059283283781   0.0000   0.0000   0.0003   2.2246
   2968    0.000024940965537    0.0  361.54      -6.103197073391      -6.103197073391      -6.093016369917      -6.059057539287   0.0000   0.0000   0.0003   2.2255
   2969    0.000024866709217    0.0  366.98      -6.103200994368      -6.103200994368      -6.092885377846      -6.058911051215   0.0000   0.0000   0.0003   2.2264
   2970    0.000024823736311    0.0  370.42      -6.103210944739      -6.103210944739      -6.092819953693      -6.058829899708   0.0000   0.0000   0.0003   2.2273
   2971    0.000024866023764    0.0  372.68      -6.103229404491      -6.103229404491      -6.092799320597      -6.058793321197   0.0000   0.0000   0.0003   2.2282
   2972    0.000024980900606    0.0  374.56      -6.103257894420      -6.103257894420      -6.092802355890      -6.058780238702   0.0000   0.0000   0.0003   2.2291
   2973    0.000025208475648    0.0  376.63      -6.103297036340      -6.103297036340      -6.092813318489      -6.058774874845   0.0000   0.0000   0.0003   2.2300
   2974    0.000025548797470    0.0  379.09      -6.103346817205      -6.103346817205      -6.092826195003      -6.058771203140   0.0000   0.0000   0.0003   2.2309
   2975    0.000025856759572    0.0  381.98      -6.103407070498      -6.103407070498      -6.092840592371      -6.058768957487   0.0000   0.0000   0.0003   2.2318
   2976    0.000025988616838    0.0  385.29      -6.103477550313      -6.103477550313      -6.092856309835      -6.058768062004   0.0000   0.0000   0.0003   2.2327
   2977    0.000025976920152    0.0  389.04      -6.103557914713      -6.103557914713      -6.092873257867      -6.058768375464   0.0000   0.0000   0.0003   2.2336
   2978    0.000025945498032    0.0  393.20      -6.103647718743      -6.103647718743      -6.092891352201      -6.058769670676   0.0000   0.0000   0.0003   2.2345
   2979    0.000025950835482    0.0  397.77      -6.103746392133      -6.103746392133      -6.092910311734      -6.058771591131   0.0000   0.0000   0.0003   2.2354
   2980    0.000026024026609    0.0  402.76      -6.103853235431      -6.103853235431      -6.092929637399      -6.058773587857   0.0000   0.0000   0.0003   2.2363
   2981    0.000026251874409    0.0  408.15      -6.103967469262      -6.103967469262      -6.092948690825      -6.058774916974   0.0000   0.0000   0.0003   2.2373
   2982    0.000026678057839    0.0  413.93      -6.104088295299      -6.104088295299      -6.092966641683      -6.058774685799   0.0000   0.0000   0.0003   2.2382
   2983    0.000027205196385    0.0  420.12      -6.104214885639      -6.104214885639      -6.092982357568      -6.058771840422   0.0000   0.0000   0.0003   2.2391
   2984    0.000027720579832    0.0  426.73      -6.104346509919      -6.104346509919      -6.092994675335      -6.058765311117   0.0000   0.0000   0.0003   2.2400
   2985    0.000028240901499    0.0  433.74      -6.104482491406      -6.104482491406      -6.093002608700      -6.058754075341   0.0000   0.0000   0.0003   2.2409
   2986    0.000028820128451    0.0  441.14      -6.104622205726      -6.104622205726      -6.093005433648      -6.058737335707   0.0000   0.0000   0.0003   2.2418
   2987    0.000029394911787    0.0  448.92      -6.104765025606      -6.104765025606      -6.093002602737      -6.058714589315   0.0000   0.0000   0.0003   2.2427
   2988    0.000029863792901    0.0  457.04      -6.104910472968      -6.104910472968      -6.092993958441      -6.058685762294   0.0000   0.0000   0.0003   2.2436
   2989    0.000030254969535    0.0  465.45      -6.105058314369      -6.105058314369      -6.092979921809      -6.058651231213   0.0000   0.0000   0.0003   2.2446
   2990    0.000030655397266    0.0  474.09      -6.105208618858      -6.105208618858      -6.092961477859      -6.058611879902   0.0000   0.0000   0.0003   2.2455
   2991    0.000031026853636    0.0  482.92      -6.105361522944      -6.105361522944      -6.092939787866      -6.058568895942   0.0000   0.0000   0.0003   2.2464
   2992    0.000031274526831    0.0  491.86      -6.105517206384      -6.105517206384      -6.092916153314      -6.058523666091   0.0000   0.0000   0.0003   2.2473
   2993    0.000031467881308    0.0  500.86      -6.105675977962      -6.105675977962      -6.092892129743      -6.058477669317   0.0000   0.0000   0.0003   2.2482
   2994    0.000031819628143    0.0  509.87      -6.105838257757      -6.105838257757      -6.092869313062      -6.058432284041   0.0000   0.0000   0.0003   2.2492
   2995    0.000032442091586    0.0  518.86      -6.106004557781      -6.106004557781      -6.092848990564      -6.058388682224   0.0000   0.0000   0.0003   2.2501
   2996    0.000033264359204    0.0  527.81      -6.106175436565      -6.106175436565      -6.092831989062      -6.058347759414   0.0000   0.0000   0.0003   2.2510
   2997    0.000034172343026    0.0  536.74      -6.106351426794      -6.106351426794      -6.092818780274      -6.058310099184   0.0000   0.0000   0.0003   2.2520
   2998    0.000035071192875    0.0  545.65      -6.106533012409      -6.106533012409      -6.092809621368      -6.058276050712   0.0000   0.0000   0.0003   2.2529
   2999    0.000035782422896    0.0  554.58      -6.106720469019      -6.106720469019      -6.092804395067      -6.058245671387   0.0000   0.0000   0.0003   2.2538

 * Physical Quantities at step:  3000

   from rhoofr: total integrated electronic density
   in g-space =      8.000000   in r-space =     8.000000


                total energy =       -6.10691400570 Hartree a.u.
              kinetic energy =        3.56783 Hartree a.u.
        electrostatic energy =       -7.28820 Hartree a.u.
                         esr =        0.00018 Hartree a.u.
                       eself =       15.95769 Hartree a.u.
      pseudopotential energy =       -0.70032 Hartree a.u.
  n-l pseudopotential energy =        0.80803 Hartree a.u.
 exchange-correlation energy =       -2.49425 Hartree a.u.
           average potential =        0.00000 Hartree a.u.



   Eigenvalues (eV), kp =   1 , spin =  1

  -14.36  -10.17   -8.31   -4.56


   CELL_PARAMETERS
   15.00000000    0.00000000    0.00000000
    0.00000000   15.00000000    0.00000000
    0.00000000    0.00000000   15.00000000

   System Density [g/cm^3] :              0.1065359777


   System Volume [A.U.^3] :           3375.0000000000


   Center of mass square displacement (a.u.):   0.007170

   ATOMIC_POSITIONS
   Si      0.93704615168263E+01     0.93709453732417E+01     0.97044548406310E+01
   H       0.11520896086708E+02     0.11528974207001E+02     0.96875633574032E+01
   H       0.11115354690242E+02     0.11099133313428E+02     0.79871243276565E+01
   H       0.69089356521907E+01     0.10301047352905E+02     0.88339488957743E+01
   H       0.10304652742934E+02     0.69071164119788E+01     0.88466884721215E+01

   ATOMIC_VELOCITIES
   Si      0.35898046936156E-04     0.37606006232926E-04    -0.37188825385004E-04
   H      -0.86329888502434E-03    -0.84174616593824E-03     0.39420135553581E-03
   H      -0.10231847203673E-02    -0.10621292130686E-02     0.24548241412486E-03
   H       0.42850687784424E-03     0.40832065054341E-03    -0.23422356981948E-02
   H       0.42578918039882E-03     0.41550986220107E-03    -0.23092461032936E-02



   Partial temperatures (for each ionic specie) 
   Species  Temp (K)   Mean Square Displacement (a.u.)
        1   9.33E+01     4.0180E-02
        2   6.81E+02     5.1200E+00

  nfi     ekinc              temph  tempp     etot                 enthal               econs                econt              vnhh    xnhh0   vnhp    xnhp0
   3000    0.000036102213336    0.0  563.55      -6.106914005697      -6.106914005697      -6.092802812604      -6.058218871150   0.0000   0.0000   0.0003   2.2548

   writing restart file (with schema): /home/pizza/codes/QEdev/q-e/tempdir/SiH4_50.save/
     restart      :      0.12s CPU      0.17s WALL (      30 calls)
   3001    0.000036072200528    0.0  572.59      -6.107113827941      -6.107113827941      -6.092804732501      -6.058195460482   0.0000   0.0000   0.0003   2.2557
   3002    0.000036017684869    0.0  581.70      -6.107320085554      -6.107320085554      -6.092810251717      -6.058175203735   0.0000   0.0000   0.0003   2.2566

 * Physical Quantities at step:  3003


                total energy =       -6.10753271679 Hartree a.u.
              kinetic energy =        3.56943 Hartree a.u.
        electrostatic energy =       -7.28979 Hartree a.u.
                         esr =        0.00017 Hartree a.u.
                       eself =       15.95769 Hartree a.u.
      pseudopotential energy =       -0.70052 Hartree a.u.
  n-l pseudopotential energy =        0.80837 Hartree a.u.
 exchange-correlation energy =       -2.49504 Hartree a.u.
           average potential =        0.00000 Hartree a.u.



   Eigenvalues (eV), kp =   1 , spin =  1

  -14.38  -10.14   -8.29   -4.58


   CELL_PARAMETERS
   15.00000000    0.00000000    0.00000000
    0.00000000   15.00000000    0.00000000
    0.00000000    0.00000000   15.00000000

   System Density [g/cm^3] :              0.1065359777


   System Volume [A.U.^3] :           3375.0000000000


   Center of mass square displacement (a.u.):   0.006937

   ATOMIC_POSITIONS
   Si      0.93707896558427E+01     0.93712892112334E+01     0.97041510290948E+01
   H       0.11513022708923E+02     0.11521296745219E+02     0.96918155173660E+01
   H       0.11106148643589E+02     0.11089571539540E+02     0.79890115273677E+01
   H       0.69126020288599E+01     0.10304868916014E+02     0.88126299299993E+01
   H       0.10308634564051E+02     0.69106629468197E+01     0.88256704708220E+01

   ATOMIC_VELOCITIES
   Si      0.36942098134429E-04     0.38723138130747E-04    -0.30408652772207E-04
   H      -0.88557123335081E-03    -0.86358749594229E-03     0.55039213442992E-03
   H      -0.10216826675485E-02    -0.10617936203502E-02     0.17086409074857E-03
   H       0.38709799539294E-03     0.44057360327088E-03    -0.23948270648569E-02
   H       0.45871905394262E-03     0.37346349561665E-03    -0.23609403774216E-02



   Partial temperatures (for each ionic specie) 
   Species  Temp (K)   Mean Square Displacement (a.u.)
        1   9.62E+01     4.0455E-02
        2   7.15E+02     5.1462E+00
   3003    0.000036213910484    0.0  590.90      -6.107532716793      -6.107532716793      -6.092819376389      -6.058157823994   0.0000   0.0000   0.0003   2.2576

   writing restart file (with schema): /home/pizza/codes/QEdev/q-e/tempdir/SiH4_50.save/
     restart      :      0.13s CPU      0.17s WALL (      31 calls)


   Averaged Physical Quantities
                      accumulated      this run
   ekinc         :        0.00002       0.00002 (AU)
   ekin          :        3.59693       3.59703 (AU)
   epot          :      -10.56657     -10.56669 (AU)
   total energy  :       -6.16760      -6.16758 (AU)
   temperature   :      336.11143     336.44754 (K )
   enthalpy      :       -6.16142      -6.16758 (AU)
   econs         :       -6.15882      -6.15880 (AU)
   pressure      :        0.00000       0.00000 (Gpa)
   volume        :     3375.00000    3375.00000 (AU)



     Called by MAIN_LOOP:
     initialize   :      0.25s CPU      0.25s WALL (       1 calls)
     main_loop    :     21.83s CPU     23.68s WALL (    3000 calls)
     cpr_total    :     22.02s CPU     23.92s WALL (       1 calls)

     Called by INIT_RUN:
     init_readfil :      0.03s CPU      0.03s WALL (       1 calls)

     Called by CPR:
     cpr_md       :     22.01s CPU     23.92s WALL (    3000 calls)
     move_electro :     20.61s CPU     22.38s WALL (    3000 calls)

     Called by move_electrons:
     rhoofr       :      2.90s CPU      3.13s WALL (    3000 calls)
     vofrho       :     15.43s CPU     16.83s WALL (    3000 calls)
     dforce       :      1.99s CPU      2.12s WALL (    6000 calls)
     calphi       :      0.01s CPU      0.01s WALL (    3000 calls)
     nlfl         :      0.03s CPU      0.03s WALL (    3000 calls)

     Called by ortho:
     ortho_iter   :      0.12s CPU      0.13s WALL (    3000 calls)
     rsg          :      0.03s CPU      0.03s WALL (    3000 calls)
     rhoset       :      0.05s CPU      0.05s WALL (    3000 calls)
     sigset       :      0.03s CPU      0.04s WALL (    3000 calls)
     tauset       :      0.03s CPU      0.03s WALL (    3000 calls)
     ortho        :      0.29s CPU      0.31s WALL (    3000 calls)
     updatc       :      0.02s CPU      0.03s WALL (    3000 calls)

     Small boxes:

     Low-level routines:
     prefor       :      0.04s CPU      0.04s WALL (   12001 calls)
     nlfq         :      0.15s CPU      0.16s WALL (    3000 calls)
     nlsm1        :      0.05s CPU      0.05s WALL (    3001 calls)
     nlsm2        :      0.12s CPU      0.13s WALL (    3000 calls)
     fft          :      6.58s CPU      7.13s WALL (   24031 calls)
     ffts         :      1.58s CPU      1.69s WALL (    6000 calls)
     fftw         :      2.74s CPU      2.92s WALL (   18000 calls)
     betagx       :      0.15s CPU      0.15s WALL (       1 calls)
     qradx        :      0.00s CPU      0.00s WALL (       1 calls)
     nlinit       :      0.21s CPU      0.21s WALL (       1 calls)
     init_dim     :      0.01s CPU      0.01s WALL (       1 calls)
     newnlinit    :      0.00s CPU      0.00s WALL (       1 calls)
     from_restart :      0.00s CPU      0.00s WALL (       1 calls)
     strucf       :      0.19s CPU      0.21s WALL (    3001 calls)
     calbec       :      0.05s CPU      0.06s WALL (    3001 calls)
     exch_corr    :     11.87s CPU     13.02s WALL (    3000 calls)


     CP           :     22.30s CPU     24.22s WALL


   This run was terminated on:  15:35: 6  21Sep2022            

=------------------------------------------------------------------------------=
   JOB DONE.
=------------------------------------------------------------------------------=
