
     Program PHONON v.5.0.2 (svn rev. 9400) starts on  7Dec2012 at 16:16:34 

     This program is part of the open-source Quantum ESPRESSO suite
     for quantum simulation of materials; please cite
         "P. Giannozzi et al., J. Phys.:Condens. Matter 21 395502 (2009);
          URL http://www.quantum-espresso.org", 
     in publications or presentations arising from this work. More details at
     http://www.quantum-espresso.org/quote.php

     Serial version

     Ultrasoft (Vanderbilt) Pseudopotentials

   Info: using nr1, nr2, nr3 values from input

   Info: using nr1s, nr2s, nr3s values from input

     IMPORTANT: XC functional enforced from input :
     Exchange-correlation      =  SLA  PW   PBE  PBE ( 1 4 3 4 0)
     EXX-fraction              =        0.00
     Any further DFT definition will be discarded
     Please, verify this is what you really want

               file O.pbe-rrkjus.UPF: wavefunction(s)  2S renormalized
 
     G-vector sticks info
     --------------------
     sticks:   dense  smooth     PW     G-vecs:    dense   smooth      PW
     Sum        3985    1433    357               189047    40651    5041
 

     negative rho (up, down):  0.211E-09 0.536E-05

     Calculation of q =    0.0000000   0.0000000   0.0000000

     Fixed quantization axis for GGA:     0.000000    0.000000    1.000000

                                                                                

     bravais-lattice index     =            1
     lattice parameter (alat)  =      10.0000  a.u.
     unit-cell volume          =    1000.0000 (a.u.)^3
     number of atoms/cell      =            2
     number of atomic types    =            1
     kinetic-energy cut-off    =      45.0000  Ry
     charge density cut-off    =     500.0000  Ry
     convergence threshold     =      1.0E-15
     beta                      =       0.7000
     number of iterations used =            4
     Exchange-correlation      =  SLA  PW   PBE  PBE ( 1 4 3 4 0)
     EXX-fraction              =        0.00
     Noncollinear calculation without spin-orbit

     celldm(1)=   10.00000  celldm(2)=    0.00000  celldm(3)=    0.00000
     celldm(4)=    0.00000  celldm(5)=    0.00000  celldm(6)=    0.00000

     crystal axes: (cart. coord. in units of alat)
               a(1) = (  1.0000  0.0000  0.0000 )  
               a(2) = (  0.0000  1.0000  0.0000 )  
               a(3) = (  0.0000  0.0000  1.0000 )  

     reciprocal axes: (cart. coord. in units 2 pi/alat)
               b(1) = (  1.0000  0.0000  0.0000 )  
               b(2) = (  0.0000  1.0000  0.0000 )  
               b(3) = (  0.0000  0.0000  1.0000 )  


     Atoms inside the unit cell: 

   Cartesian axes

     site n.  atom      mass           positions (alat units)
           1        O   15.9994   tau(    1) = (    0.00000    0.00000   -0.11697  )
           2        O   15.9994   tau(    2) = (    0.00000    0.00000    0.11697  )

     Computing dynamical matrix for 
                    q = (   0.0000000   0.0000000   0.0000000 )
 
     16 Sym.Ops. (no q -> -q+G )


     G cutoff = 1266.5148  ( 189047 G-vectors)     FFT grid: ( 72, 72, 72)
     G cutoff =  455.9453  (  40651 G-vectors)  smooth grid: ( 45, 45, 45)
     number of k points=     1
                       cart. coord. in units 2pi/alat
        k(    1) = (   0.0000000   0.0000000   0.0000000), wk =   1.0000000

     PseudoPot. # 1 for O  read from file:
     /home/giannozz/trunk/espresso/pseudo/O.pbe-rrkjus.UPF
     MD5 check sum: 390ba29e75625707450f3bd3f0eb6be9
     Pseudo is Ultrasoft, Zval =  6.0
     Generated by new atomic code, or converted to UPF format
     Using radial grid of 1269 points,  4 beta functions with: 
                l(1) =   0
                l(2) =   0
                l(3) =   1
                l(4) =   1
     Q(r) pseudized with 0 coefficients 


     k=gamma and q=gamma tricks are used


     Electric field:
     Dielectric constant and polarizability
     Born effective charges in two ways 


     Atomic displacements:
     There are   6 irreducible representations

     Representation     1      1 modes -A  To be done

     Representation     2      1 modes -A  To be done

     Representation     3      1 modes -A  To be done

     Representation     4      1 modes - Calculated using symmetry

     Representation     5      1 modes - Calculated using symmetry

     Representation     6      1 modes - Calculated using symmetry



     Alpha used in Ewald sum =   2.8000
     PHONON       :    30.73s CPU        33.22s WALL


     Electric Fields Calculation

      iter #   1 total cpu time :    51.7 secs   av.it.:   4.3
      thresh= 0.100E-01 alpha_mix =  0.700 |ddv_scf|^2 =  0.138E-06

      iter #   2 total cpu time :    65.6 secs   av.it.:   8.7
      thresh= 0.372E-04 alpha_mix =  0.700 |ddv_scf|^2 =  0.299E-07

      iter #   3 total cpu time :    79.7 secs   av.it.:   8.3
      thresh= 0.173E-04 alpha_mix =  0.700 |ddv_scf|^2 =  0.898E-07

      iter #   4 total cpu time :    93.4 secs   av.it.:   6.7
      thresh= 0.300E-04 alpha_mix =  0.700 |ddv_scf|^2 =  0.472E-09

      iter #   5 total cpu time :   108.8 secs   av.it.:   8.7
      thresh= 0.217E-05 alpha_mix =  0.700 |ddv_scf|^2 =  0.226E-10

      iter #   6 total cpu time :   124.5 secs   av.it.:   9.0
      thresh= 0.475E-06 alpha_mix =  0.700 |ddv_scf|^2 =  0.165E-11

      iter #   7 total cpu time :   139.3 secs   av.it.:   8.7
      thresh= 0.128E-06 alpha_mix =  0.700 |ddv_scf|^2 =  0.209E-12

      iter #   8 total cpu time :   154.0 secs   av.it.:   8.7
      thresh= 0.457E-07 alpha_mix =  0.700 |ddv_scf|^2 =  0.102E-13

      iter #   9 total cpu time :   169.5 secs   av.it.:   8.7
      thresh= 0.101E-07 alpha_mix =  0.700 |ddv_scf|^2 =  0.517E-14

      iter #  10 total cpu time :   184.2 secs   av.it.:   8.0
      thresh= 0.719E-08 alpha_mix =  0.700 |ddv_scf|^2 =  0.502E-15

      iter #  11 total cpu time :   197.9 secs   av.it.:   9.0
      thresh= 0.224E-08 alpha_mix =  0.700 |ddv_scf|^2 =  0.927E-17

     End of electric fields calculation

          Dielectric constant in cartesian axis 

          (       1.113984702       0.000000000       0.000000000 )
          (       0.000000000       1.113984702       0.000000000 )
          (       0.000000000       0.000000000       1.206815399 )

     Polarizability (a.u.)^3                    Polarizability (A^3)
      8.74      0.00      0.00             1.2949        0.0000        0.0000
      0.00      8.74      0.00             0.0000        1.2949        0.0000
      0.00      0.00     15.40             0.0000        0.0000        2.2815

          Effective charges (d Force / dE) in cartesian axis

           atom      1   O  
      Ex  (       -0.01190        0.00000        0.00000 )
      Ey  (        0.00000       -0.01190        0.00000 )
      Ez  (        0.00000        0.00000        0.07920 )
           atom      2   O  
      Ex  (       -0.01190        0.00000        0.00000 )
      Ey  (        0.00000       -0.01190        0.00000 )
      Ez  (        0.00000        0.00000        0.07920 )


     Representation #  1 mode #   1

     Self-consistent Calculation

      iter #   1 total cpu time :   211.5 secs   av.it.:   5.0
      thresh= 0.100E-01 alpha_mix =  0.700 |ddv_scf|^2 =  0.620E-07

      iter #   2 total cpu time :   217.9 secs   av.it.:  10.0
      thresh= 0.249E-04 alpha_mix =  0.700 |ddv_scf|^2 =  0.581E-07

      iter #   3 total cpu time :   222.9 secs   av.it.:   8.0
      thresh= 0.241E-04 alpha_mix =  0.700 |ddv_scf|^2 =  0.284E-07

      iter #   4 total cpu time :   230.5 secs   av.it.:   8.0
      thresh= 0.169E-04 alpha_mix =  0.700 |ddv_scf|^2 =  0.307E-09

      iter #   5 total cpu time :   235.7 secs   av.it.:   9.0
      thresh= 0.175E-05 alpha_mix =  0.700 |ddv_scf|^2 =  0.541E-10

      iter #   6 total cpu time :   243.2 secs   av.it.:   7.0
      thresh= 0.735E-06 alpha_mix =  0.700 |ddv_scf|^2 =  0.129E-11

      iter #   7 total cpu time :   251.0 secs   av.it.:   8.0
      thresh= 0.114E-06 alpha_mix =  0.700 |ddv_scf|^2 =  0.377E-13

      iter #   8 total cpu time :   256.1 secs   av.it.:   7.0
      thresh= 0.194E-07 alpha_mix =  0.700 |ddv_scf|^2 =  0.215E-14

      iter #   9 total cpu time :   260.8 secs   av.it.:   7.0
      thresh= 0.464E-08 alpha_mix =  0.700 |ddv_scf|^2 =  0.113E-15

     End of self-consistent calculation

     Convergence has been achieved 


     Representation #  2 mode #   2

     Self-consistent Calculation

      iter #   1 total cpu time :   265.8 secs   av.it.:   5.0
      thresh= 0.100E-01 alpha_mix =  0.700 |ddv_scf|^2 =  0.620E-07

      iter #   2 total cpu time :   270.9 secs   av.it.:  10.0
      thresh= 0.249E-04 alpha_mix =  0.700 |ddv_scf|^2 =  0.581E-07

      iter #   3 total cpu time :   276.9 secs   av.it.:   8.0
      thresh= 0.241E-04 alpha_mix =  0.700 |ddv_scf|^2 =  0.284E-07

      iter #   4 total cpu time :   283.1 secs   av.it.:   8.0
      thresh= 0.169E-04 alpha_mix =  0.700 |ddv_scf|^2 =  0.307E-09

      iter #   5 total cpu time :   289.1 secs   av.it.:   9.0
      thresh= 0.175E-05 alpha_mix =  0.700 |ddv_scf|^2 =  0.541E-10

      iter #   6 total cpu time :   296.5 secs   av.it.:   7.0
      thresh= 0.735E-06 alpha_mix =  0.700 |ddv_scf|^2 =  0.129E-11

      iter #   7 total cpu time :   302.1 secs   av.it.:   8.0
      thresh= 0.114E-06 alpha_mix =  0.700 |ddv_scf|^2 =  0.377E-13

      iter #   8 total cpu time :   308.5 secs   av.it.:   7.0
      thresh= 0.194E-07 alpha_mix =  0.700 |ddv_scf|^2 =  0.215E-14

      iter #   9 total cpu time :   313.2 secs   av.it.:   7.0
      thresh= 0.464E-08 alpha_mix =  0.700 |ddv_scf|^2 =  0.113E-15

     End of self-consistent calculation

     Convergence has been achieved 


     Representation #  3 mode #   3

     Self-consistent Calculation

      iter #   1 total cpu time :   318.4 secs   av.it.:   6.0
      thresh= 0.100E-01 alpha_mix =  0.700 |ddv_scf|^2 =  0.786E-07

      iter #   2 total cpu time :   323.6 secs   av.it.:  11.0
      thresh= 0.280E-04 alpha_mix =  0.700 |ddv_scf|^2 =  0.165E-06

      iter #   3 total cpu time :   331.1 secs   av.it.:  10.0
      thresh= 0.407E-04 alpha_mix =  0.700 |ddv_scf|^2 =  0.169E-07

      iter #   4 total cpu time :   336.4 secs   av.it.:  10.0
      thresh= 0.130E-04 alpha_mix =  0.700 |ddv_scf|^2 =  0.374E-09

      iter #   5 total cpu time :   344.0 secs   av.it.:  10.0
      thresh= 0.194E-05 alpha_mix =  0.700 |ddv_scf|^2 =  0.272E-10

      iter #   6 total cpu time :   349.7 secs   av.it.:  11.0
      thresh= 0.522E-06 alpha_mix =  0.700 |ddv_scf|^2 =  0.684E-12

      iter #   7 total cpu time :   357.0 secs   av.it.:  10.0
      thresh= 0.827E-07 alpha_mix =  0.700 |ddv_scf|^2 =  0.186E-12

      iter #   8 total cpu time :   362.9 secs   av.it.:  10.0
      thresh= 0.431E-07 alpha_mix =  0.700 |ddv_scf|^2 =  0.265E-14

      iter #   9 total cpu time :   367.9 secs   av.it.:  10.0
      thresh= 0.515E-08 alpha_mix =  0.700 |ddv_scf|^2 =  0.158E-15

     End of self-consistent calculation

     Convergence has been achieved 
 
     Number of q in the star =    1
     List of q in the star:
          1   0.000000000   0.000000000   0.000000000

          Dielectric constant in cartesian axis 

          (       1.113984702       0.000000000       0.000000000 )
          (       0.000000000       1.113984702       0.000000000 )
          (       0.000000000       0.000000000       1.206815399 )

     Polarizability (a.u.)^3                    Polarizability (A^3)
      8.74      0.00      0.00             1.2949        0.0000        0.0000
      0.00      8.74      0.00             0.0000        1.2949        0.0000
      0.00      0.00     15.40             0.0000        0.0000        2.2815

          Effective charges (d Force / dE) in cartesian axis

           atom      1   O  
      Ex  (       -0.01190        0.00000        0.00000 )
      Ey  (        0.00000       -0.01190        0.00000 )
      Ez  (        0.00000        0.00000        0.07920 )
           atom      2   O  
      Ex  (       -0.01190        0.00000        0.00000 )
      Ey  (        0.00000       -0.01190        0.00000 )
      Ez  (        0.00000        0.00000        0.07920 )

          Effective charges (d P / du) in cartesian axis 

           atom      1   O  
      Px  (       -0.01214        0.00000        0.00000 )
      Py  (        0.00000       -0.01214        0.00000 )
      Pz  (        0.00000        0.00000        0.07947 )
           atom      2   O  
      Px  (       -0.01214        0.00000        0.00000 )
      Py  (        0.00000       -0.01214        0.00000 )
      Pz  (        0.00000        0.00000        0.07947 )

     Diagonalizing the dynamical matrix

     q = (    0.000000000   0.000000000   0.000000000 ) 

 **************************************************************************
     omega(    1) =      -4.442994 [THz] =    -148.202341 [cm-1]
     omega(    2) =      -4.442994 [THz] =    -148.202341 [cm-1]
     omega(    3) =      -3.420969 [THz] =    -114.111231 [cm-1]
     omega(    4) =      -3.420969 [THz] =    -114.111231 [cm-1]
     omega(    5) =       1.472100 [THz] =      49.103986 [cm-1]
     omega(    6) =      46.754071 [THz] =    1559.547928 [cm-1]
 **************************************************************************

     Mode symmetry, D_4h(4/mmm) [C_4h (4/m) ] magnetic point group:

     omega(  1 -  1) =       -148.2  [cm-1]   -->   ?
     omega(  2 -  2) =       -148.2  [cm-1]   -->   ?
     omega(  3 -  3) =       -114.1  [cm-1]   -->   ?
     omega(  4 -  4) =       -114.1  [cm-1]   -->   ?
     omega(  5 -  5) =         49.1  [cm-1]   -->   ?
     omega(  6 -  6) =       1559.5  [cm-1]   --> A_1g X_1  M_1   R  
 
     PHONON       :  4m56.14s CPU     6m 8.56s WALL

     INITIALIZATION: 
     phq_setup    :      4.60s CPU      4.88s WALL (       1 calls)
     phq_init     :     23.42s CPU     25.44s WALL (       1 calls)
 
     phq_init     :     23.42s CPU     25.44s WALL (       1 calls)
     init_vloc    :      0.01s CPU      0.01s WALL (       1 calls)
     init_us_1    :      0.52s CPU      0.54s WALL (       1 calls)
     newd         :      0.65s CPU      0.68s WALL (       1 calls)
     dvanqq       :     14.02s CPU     15.07s WALL (       1 calls)
     drho         :      6.65s CPU      7.52s WALL (       1 calls)
     cmpt_qdipol  :      0.00s CPU      0.00s WALL (       1 calls)
 
     DIELECTRIC CONSTANT AND EFFECTIVE CHARGES:
     solve_e      :    140.55s CPU    164.87s WALL (       1 calls)
     dielec       :      0.02s CPU      0.02s WALL (       1 calls)
     zstar_eu     :      7.91s CPU      9.12s WALL (       1 calls)
 
     DYNAMICAL MATRIX:
     dynmat0      :      0.25s CPU      0.27s WALL (       1 calls)
     phqscf       :    116.92s CPU    161.23s WALL (       1 calls)
     dynmatrix    :      0.01s CPU      0.02s WALL (       1 calls)
 
     phqscf       :    116.92s CPU    161.23s WALL (       1 calls)
     solve_linter :    116.30s CPU    160.36s WALL (       3 calls)
     drhodv       :      0.10s CPU      0.10s WALL (       3 calls)
     add_zstar_ue :      0.02s CPU      0.04s WALL (       3 calls)
     add_zstar_us :      0.48s CPU      0.54s WALL (       3 calls)
 
     dynmat0      :      0.25s CPU      0.27s WALL (       1 calls)
     dynmat_us    :      0.18s CPU      0.20s WALL (       1 calls)
     d2ionq       :      0.06s CPU      0.07s WALL (       1 calls)
 
     dynmat_us    :      0.18s CPU      0.20s WALL (       1 calls)
     addusdynmat  :      0.00s CPU      0.00s WALL (       1 calls)
 
     phqscf       :    116.92s CPU    161.23s WALL (       1 calls)
     solve_linter :    116.30s CPU    160.36s WALL (       3 calls)
 
     solve_linter :    116.30s CPU    160.36s WALL (       3 calls)
     dvqpsi_us    :      0.51s CPU      0.58s WALL (       9 calls)
     ortho        :      0.66s CPU      0.71s WALL (      63 calls)
     cgsolve      :     71.74s CPU     76.37s WALL (      63 calls)
     incdrhoscf   :      7.93s CPU      8.62s WALL (      63 calls)
     addusddens   :     28.08s CPU     31.61s WALL (      33 calls)
     vpsifft      :      1.83s CPU      1.91s WALL (      24 calls)
     dv_of_drho   :     71.49s CPU     82.74s WALL (      63 calls)
     mix_pot      :     12.84s CPU     47.35s WALL (      38 calls)
     newdq        :     38.02s CPU     41.11s WALL (      38 calls)
     adddvscf     :      0.20s CPU      0.23s WALL (      54 calls)
     drhodvus     :      0.14s CPU      0.44s WALL (       3 calls)
 
     dvqpsi_us    :      0.51s CPU      0.58s WALL (       9 calls)
     dvqpsi_us_on :      0.06s CPU      0.06s WALL (       9 calls)
 
     cgsolve      :     71.74s CPU     76.37s WALL (      63 calls)
     ch_psi       :     68.32s CPU     72.64s WALL (     759 calls)
 
     ch_psi       :     68.32s CPU     72.64s WALL (     759 calls)
     h_psiq       :     59.51s CPU     63.26s WALL (     759 calls)
     last         :      7.99s CPU      8.45s WALL (     759 calls)
 
     h_psiq       :     59.51s CPU     63.26s WALL (     759 calls)
     firstfft     :     30.99s CPU     33.72s WALL (    6866 calls)
     secondfft    :     14.33s CPU     14.97s WALL (    6866 calls)
     add_vuspsi   :      1.60s CPU      1.69s WALL (     759 calls)
 
     incdrhoscf   :      7.93s CPU      8.62s WALL (      63 calls)
 
     drhodvus     :      0.14s CPU      0.44s WALL (       3 calls)
 
      General routines
     calbec       :      4.08s CPU      4.27s WALL (    1894 calls)
     fft          :     33.61s CPU     36.41s WALL (    2784 calls)
     ffts         :      0.91s CPU      0.97s WALL (     553 calls)
     fftw         :     33.15s CPU     36.18s WALL (   33680 calls)
     cinterpolate :      8.79s CPU      9.46s WALL (     516 calls)
     davcio       :      0.34s CPU     38.47s WALL (     665 calls)
     write_rec    :      0.23s CPU      3.50s WALL (      41 calls)
 
 
     PHONON       :  4m56.14s CPU     6m 8.56s WALL

 
   This run was terminated on:  16:22:43   7Dec2012            

=------------------------------------------------------------------------------=
   JOB DONE.
=------------------------------------------------------------------------------=
