
     Program PHONON v.6.beta (svn rev. 13009) starts on 23Sep2016 at 13:37:16 

     This program is part of the open-source Quantum ESPRESSO suite
     for quantum simulation of materials; please cite
         "P. Giannozzi et al., J. Phys.:Condens. Matter 21 395502 (2009);
          URL http://www.quantum-espresso.org", 
     in publications or presentations arising from this work. More details at
     http://www.quantum-espresso.org/quote

           HOST :    @host@
           ARCH :    x86_64
             CC :    cc
            CPP :    cpp
            F90 :    mpif90
            F77 :    gfortran
         DFLAGS :    -D__GFORTRAN -D__STD_F95 -D__FFTW -D__MPI
      BLAS LIBS :    
    LAPACK LIBS :    $(TOPDIR)/LAPACK/liblapack.a $(TOPDIR)/LAPACK/libblas.a
       FFT LIBS :    
      MASS LIBS :    

     Parallel version (MPI), running on     2 processors
     R & G space division:  proc/nbgrp/npool/nimage =       2

     Reading data from directory:
     /home/pietro/trunk/espresso/tempdir/o2_nc_mol.save

   Info: using nr1, nr2, nr3 values from input

   Info: using nr1, nr2, nr3 values from input

     IMPORTANT: XC functional enforced from input :
     Exchange-correlation      =  SLA  PW   PBE  PBE ( 1  4  3  4 0 0)
     Any further DFT definition will be discarded
     Please, verify this is what you really want

               file O.pbe-rrkjus.UPF: wavefunction(s)  2S renormalized

     Parallelization info
     --------------------
     sticks:   dense  smooth     PW     G-vecs:    dense   smooth      PW
     Min        1992     716    177                94522    20324    2520
     Max        1993     717    180                94525    20327    2521
     Sum        3985    1433    357               189047    40651    5041


     negative rho (up, down):  2.112E-10 5.358E-06

     Calculation of q =    0.0000000   0.0000000   0.0000000

     Fixed quantization axis for GGA:     0.000000    0.000000    1.000000

                                                                                

     bravais-lattice index     =            1
     lattice parameter (alat)  =      10.0000  a.u.
     unit-cell volume          =    1000.0000 (a.u.)^3
     number of atoms/cell      =            2
     number of atomic types    =            1
     kinetic-energy cut-off    =      45.0000  Ry
     charge density cut-off    =     500.0000  Ry
     convergence threshold     =      1.0E-15
     beta                      =       0.7000
     number of iterations used =            4
     Exchange-correlation      =  SLA  PW   PBE  PBE ( 1  4  3  4 0 0)
     Noncollinear calculation without spin-orbit

     celldm(1)=   10.00000  celldm(2)=    0.00000  celldm(3)=    0.00000
     celldm(4)=    0.00000  celldm(5)=    0.00000  celldm(6)=    0.00000

     crystal axes: (cart. coord. in units of alat)
               a(1) = (  1.0000  0.0000  0.0000 )  
               a(2) = (  0.0000  1.0000  0.0000 )  
               a(3) = (  0.0000  0.0000  1.0000 )  

     reciprocal axes: (cart. coord. in units 2 pi/alat)
               b(1) = (  1.0000  0.0000  0.0000 )  
               b(2) = (  0.0000  1.0000  0.0000 )  
               b(3) = (  0.0000  0.0000  1.0000 )  


     Atoms inside the unit cell: 

     Cartesian axes

     site n.  atom      mass           positions (alat units)
        1     O   15.9994   tau(    1) = (    0.00000    0.00000   -0.11697  )
        2     O   15.9994   tau(    2) = (    0.00000    0.00000    0.11697  )

     Computing dynamical matrix for 
                    q = (   0.0000000   0.0000000   0.0000000 )

     16 Sym.Ops. (no q -> -q+G )


     G cutoff = 1266.5148  (  94522 G-vectors)     FFT grid: ( 72, 72, 72)
     G cutoff =  455.9453  (  20327 G-vectors)  smooth grid: ( 45, 45, 45)
     number of k points=     1
                       cart. coord. in units 2pi/alat
        k(    1) = (   0.0000000   0.0000000   0.0000000), wk =   1.0000000

     PseudoPot. # 1 for O  read from file:
     /home/pietro/trunk/espresso/pseudo/O.pbe-rrkjus.UPF
     MD5 check sum: 390ba29e75625707450f3bd3f0eb6be9
     Pseudo is Ultrasoft, Zval =  6.0
     Generated by new atomic code, or converted to UPF format
     Using radial grid of 1269 points,  4 beta functions with: 
                l(1) =   0
                l(2) =   0
                l(3) =   1
                l(4) =   1
     Q(r) pseudized with 0 coefficients 


     Mode symmetry, D_4h(4/mmm) point group:

     k=gamma and q=gamma tricks are used


     Electric field:
     Dielectric constant and polarizability
     Born effective charges in two ways 


     Atomic displacements:
     There are   6 irreducible representations

     Representation     1      1 modes -A  To be done

     Representation     2      1 modes -A  To be done

     Representation     3      1 modes -A  To be done

     Representation     4      1 modes - Calculated using symmetry

     Representation     5      1 modes - Calculated using symmetry

     Representation     6      1 modes - Calculated using symmetry



     Alpha used in Ewald sum =   2.8000
     PHONON       :    12.53s CPU        12.69s WALL


     Electric Fields Calculation

      iter #   1 total cpu time :    20.1 secs   av.it.:   5.0
      thresh= 1.000E-02 alpha_mix =  0.700 |ddv_scf|^2 =  1.381E-07

      iter #   2 total cpu time :    25.1 secs   av.it.:   8.7
      thresh= 3.716E-05 alpha_mix =  0.700 |ddv_scf|^2 =  2.995E-08

      iter #   3 total cpu time :    31.7 secs   av.it.:   8.3
      thresh= 1.730E-05 alpha_mix =  0.700 |ddv_scf|^2 =  8.971E-08

      iter #   4 total cpu time :    37.8 secs   av.it.:   6.7
      thresh= 2.995E-05 alpha_mix =  0.700 |ddv_scf|^2 =  4.740E-10

      iter #   5 total cpu time :    43.8 secs   av.it.:   9.3
      thresh= 2.177E-06 alpha_mix =  0.700 |ddv_scf|^2 =  2.279E-11

      iter #   6 total cpu time :    50.0 secs   av.it.:   9.0
      thresh= 4.773E-07 alpha_mix =  0.700 |ddv_scf|^2 =  1.638E-12

      iter #   7 total cpu time :    55.7 secs   av.it.:   8.7
      thresh= 1.280E-07 alpha_mix =  0.700 |ddv_scf|^2 =  2.087E-13

      iter #   8 total cpu time :    62.8 secs   av.it.:   8.7
      thresh= 4.568E-08 alpha_mix =  0.700 |ddv_scf|^2 =  1.020E-14

      iter #   9 total cpu time :    68.9 secs   av.it.:   8.7
      thresh= 1.010E-08 alpha_mix =  0.700 |ddv_scf|^2 =  5.197E-15

      iter #  10 total cpu time :    74.5 secs   av.it.:   8.7
      thresh= 7.209E-09 alpha_mix =  0.700 |ddv_scf|^2 =  5.250E-16

      iter #  11 total cpu time :    80.5 secs   av.it.:   9.3
      thresh= 2.291E-09 alpha_mix =  0.700 |ddv_scf|^2 =  7.088E-18

     End of electric fields calculation

          Dielectric constant in cartesian axis 

          (       1.113984691       0.000000000       0.000000000 )
          (       0.000000000       1.113984691       0.000000000 )
          (       0.000000000       0.000000000       1.206813651 )

     Polarizability (a.u.)^3                    Polarizability (A^3)
      8.74      0.00      0.00             1.2949        0.0000        0.0000
      0.00      8.74      0.00             0.0000        1.2949        0.0000
      0.00      0.00     15.40             0.0000        0.0000        2.2815

          Effective charges (d Force / dE) in cartesian axis

           atom      1   O  
      Ex  (       -0.01190        0.00000        0.00000 )
      Ey  (        0.00000       -0.01190        0.00000 )
      Ez  (        0.00000        0.00000        0.07926 )
           atom      2   O  
      Ex  (       -0.01190        0.00000        0.00000 )
      Ey  (        0.00000       -0.01190        0.00000 )
      Ez  (        0.00000        0.00000        0.07926 )


     Representation #  1 mode #   1

     Self-consistent Calculation

      iter #   1 total cpu time :    85.5 secs   av.it.:   5.0
      thresh= 1.000E-02 alpha_mix =  0.700 |ddv_scf|^2 =  6.200E-08

      iter #   2 total cpu time :    87.4 secs   av.it.:  11.0
      thresh= 2.490E-05 alpha_mix =  0.700 |ddv_scf|^2 =  5.811E-08

      iter #   3 total cpu time :    89.2 secs   av.it.:   8.0
      thresh= 2.411E-05 alpha_mix =  0.700 |ddv_scf|^2 =  2.841E-08

      iter #   4 total cpu time :    91.4 secs   av.it.:   8.0
      thresh= 1.686E-05 alpha_mix =  0.700 |ddv_scf|^2 =  3.082E-10

      iter #   5 total cpu time :    93.7 secs   av.it.:   9.0
      thresh= 1.756E-06 alpha_mix =  0.700 |ddv_scf|^2 =  5.415E-11

      iter #   6 total cpu time :    95.4 secs   av.it.:   8.0
      thresh= 7.359E-07 alpha_mix =  0.700 |ddv_scf|^2 =  1.295E-12

      iter #   7 total cpu time :    97.4 secs   av.it.:   8.0
      thresh= 1.138E-07 alpha_mix =  0.700 |ddv_scf|^2 =  3.758E-14

      iter #   8 total cpu time :    99.0 secs   av.it.:   8.0
      thresh= 1.939E-08 alpha_mix =  0.700 |ddv_scf|^2 =  2.156E-15

      iter #   9 total cpu time :   100.8 secs   av.it.:   8.0
      thresh= 4.643E-09 alpha_mix =  0.700 |ddv_scf|^2 =  8.746E-17

     End of self-consistent calculation

     Convergence has been achieved 


     Representation #  2 mode #   2

     Self-consistent Calculation

      iter #   1 total cpu time :   102.9 secs   av.it.:   5.0
      thresh= 1.000E-02 alpha_mix =  0.700 |ddv_scf|^2 =  6.200E-08

      iter #   2 total cpu time :   104.7 secs   av.it.:  11.0
      thresh= 2.490E-05 alpha_mix =  0.700 |ddv_scf|^2 =  5.811E-08

      iter #   3 total cpu time :   106.9 secs   av.it.:   8.0
      thresh= 2.411E-05 alpha_mix =  0.700 |ddv_scf|^2 =  2.841E-08

      iter #   4 total cpu time :   108.8 secs   av.it.:   8.0
      thresh= 1.686E-05 alpha_mix =  0.700 |ddv_scf|^2 =  3.082E-10

      iter #   5 total cpu time :   110.6 secs   av.it.:   9.0
      thresh= 1.756E-06 alpha_mix =  0.700 |ddv_scf|^2 =  5.415E-11

      iter #   6 total cpu time :   112.2 secs   av.it.:   8.0
      thresh= 7.359E-07 alpha_mix =  0.700 |ddv_scf|^2 =  1.295E-12

      iter #   7 total cpu time :   113.9 secs   av.it.:   8.0
      thresh= 1.138E-07 alpha_mix =  0.700 |ddv_scf|^2 =  3.758E-14

      iter #   8 total cpu time :   115.5 secs   av.it.:   8.0
      thresh= 1.939E-08 alpha_mix =  0.700 |ddv_scf|^2 =  2.156E-15

      iter #   9 total cpu time :   117.1 secs   av.it.:   8.0
      thresh= 4.643E-09 alpha_mix =  0.700 |ddv_scf|^2 =  8.745E-17

     End of self-consistent calculation

     Convergence has been achieved 


     Representation #  3 mode #   3

     Self-consistent Calculation

      iter #   1 total cpu time :   118.7 secs   av.it.:   6.0
      thresh= 1.000E-02 alpha_mix =  0.700 |ddv_scf|^2 =  7.855E-08

      iter #   2 total cpu time :   120.5 secs   av.it.:  11.0
      thresh= 2.803E-05 alpha_mix =  0.700 |ddv_scf|^2 =  1.653E-07

      iter #   3 total cpu time :   122.3 secs   av.it.:  10.0
      thresh= 4.066E-05 alpha_mix =  0.700 |ddv_scf|^2 =  1.686E-08

      iter #   4 total cpu time :   124.2 secs   av.it.:  10.0
      thresh= 1.299E-05 alpha_mix =  0.700 |ddv_scf|^2 =  3.744E-10

      iter #   5 total cpu time :   126.3 secs   av.it.:  10.0
      thresh= 1.935E-06 alpha_mix =  0.700 |ddv_scf|^2 =  2.720E-11

      iter #   6 total cpu time :   128.1 secs   av.it.:  11.0
      thresh= 5.216E-07 alpha_mix =  0.700 |ddv_scf|^2 =  6.837E-13

      iter #   7 total cpu time :   129.8 secs   av.it.:  10.0
      thresh= 8.268E-08 alpha_mix =  0.700 |ddv_scf|^2 =  1.858E-13

      iter #   8 total cpu time :   131.6 secs   av.it.:  10.0
      thresh= 4.311E-08 alpha_mix =  0.700 |ddv_scf|^2 =  2.650E-15

      iter #   9 total cpu time :   133.2 secs   av.it.:  10.0
      thresh= 5.148E-09 alpha_mix =  0.700 |ddv_scf|^2 =  1.508E-16

     End of self-consistent calculation

     Convergence has been achieved 

     Number of q in the star =    1
     List of q in the star:
          1   0.000000000   0.000000000   0.000000000

          Dielectric constant in cartesian axis 

          (       1.113984691       0.000000000       0.000000000 )
          (       0.000000000       1.113984691       0.000000000 )
          (       0.000000000       0.000000000       1.206813651 )

     Polarizability (a.u.)^3                    Polarizability (A^3)
      8.74      0.00      0.00             1.2949        0.0000        0.0000
      0.00      8.74      0.00             0.0000        1.2949        0.0000
      0.00      0.00     15.40             0.0000        0.0000        2.2815

          Effective charges (d Force / dE) in cartesian axis

           atom      1   O  
      Ex  (       -0.01190        0.00000        0.00000 )
      Ey  (        0.00000       -0.01190        0.00000 )
      Ez  (        0.00000        0.00000        0.07926 )
           atom      2   O  
      Ex  (       -0.01190        0.00000        0.00000 )
      Ey  (        0.00000       -0.01190        0.00000 )
      Ez  (        0.00000        0.00000        0.07926 )

          Effective charges (d P / du) in cartesian axis 

           atom      1   O  
      Px  (       -0.01214       -0.00000        0.00000 )
      Py  (        0.00000       -0.01214        0.00000 )
      Pz  (       -0.00000        0.00000        0.07947 )
           atom      2   O  
      Px  (       -0.01214        0.00000        0.00000 )
      Py  (       -0.00000       -0.01214       -0.00000 )
      Pz  (       -0.00000       -0.00000        0.07947 )

     Diagonalizing the dynamical matrix

     q = (    0.000000000   0.000000000   0.000000000 ) 

 **************************************************************************
     freq (    1) =      -4.443024 [THz] =    -148.203321 [cm-1]
     freq (    2) =      -4.443024 [THz] =    -148.203320 [cm-1]
     freq (    3) =      -3.420803 [THz] =    -114.105709 [cm-1]
     freq (    4) =      -3.420803 [THz] =    -114.105708 [cm-1]
     freq (    5) =       1.471354 [THz] =      49.079081 [cm-1]
     freq (    6) =      46.754090 [THz] =    1559.548576 [cm-1]
 **************************************************************************

     Mode symmetry, D_4h(4/mmm) [C_4h (4/m) ] magnetic point group:

     freq (  1 -  1) =       -148.2  [cm-1]   -->   ?
     freq (  2 -  2) =       -148.2  [cm-1]   -->   ?
     freq (  3 -  3) =       -114.1  [cm-1]   -->   ?
     freq (  4 -  4) =       -114.1  [cm-1]   -->   ?
     freq (  5 -  5) =         49.1  [cm-1]   -->   ?
     freq (  6 -  6) =       1559.5  [cm-1]   --> A_1g X_1  M_1   R  

     PHONON       :  2m 7.76s CPU     2m13.43s WALL

     INITIALIZATION: 
     phq_setup    :      2.50s CPU      2.52s WALL (       1 calls)
     phq_init     :      8.50s CPU      8.60s WALL (       1 calls)

     phq_init     :      8.50s CPU      8.60s WALL (       1 calls)
     init_vloc    :      0.04s CPU      0.05s WALL (       1 calls)
     init_us_1    :      0.41s CPU      0.41s WALL (       1 calls)
     newd         :      0.16s CPU      0.18s WALL (       1 calls)
     dvanqq       :      3.73s CPU      3.75s WALL (       1 calls)
     drho         :      2.37s CPU      2.45s WALL (       1 calls)
     cmpt_qdipol  :      0.00s CPU      0.00s WALL (       1 calls)

     DIELECTRIC CONSTANT AND EFFECTIVE CHARGES:
     solve_e      :     64.49s CPU     67.79s WALL (       1 calls)
     dielec       :      0.00s CPU      0.00s WALL (       1 calls)
     zstar_eu     :      3.39s CPU      3.49s WALL (       1 calls)

     DYNAMICAL MATRIX:
     dynmat0      :      0.18s CPU      0.18s WALL (       1 calls)
     phqscf       :     47.34s CPU     49.42s WALL (       1 calls)
     dynmatrix    :      0.01s CPU      0.01s WALL (       1 calls)

     phqscf       :     47.34s CPU     49.42s WALL (       1 calls)
     solve_linter :     46.96s CPU     49.00s WALL (       3 calls)
     drhodv       :      0.06s CPU      0.07s WALL (       3 calls)
     add_zstar_ue :      0.00s CPU      0.01s WALL (       3 calls)
     add_zstar_us :      0.31s CPU      0.31s WALL (       3 calls)

     dynmat0      :      0.18s CPU      0.18s WALL (       1 calls)
     dynmat_us    :      0.14s CPU      0.14s WALL (       1 calls)
     d2ionq       :      0.04s CPU      0.04s WALL (       1 calls)

     dynmat_us    :      0.14s CPU      0.14s WALL (       1 calls)
     addusdynmat  :      0.00s CPU      0.00s WALL (       1 calls)

     phqscf       :     47.34s CPU     49.42s WALL (       1 calls)
     solve_linter :     46.96s CPU     49.00s WALL (       3 calls)

     solve_linter :     46.96s CPU     49.00s WALL (       3 calls)
     dvqpsi_us    :      0.50s CPU      0.50s WALL (       9 calls)
     ortho        :      0.49s CPU      0.50s WALL (      63 calls)
     cgsolve      :     42.26s CPU     42.42s WALL (      63 calls)
     incdrhoscf   :      3.77s CPU      3.80s WALL (      63 calls)
     addusddens   :      8.07s CPU      8.17s WALL (      33 calls)
     vpsifft      :      1.14s CPU      1.14s WALL (      24 calls)
     dv_of_drho   :     29.76s CPU     30.71s WALL (      63 calls)
     mix_pot      :      2.98s CPU      5.46s WALL (      38 calls)
     newdq        :     12.99s CPU     13.20s WALL (      38 calls)
     adddvscf     :      0.11s CPU      0.11s WALL (      54 calls)
     drhodvus     :      0.04s CPU      0.09s WALL (       3 calls)

     dvqpsi_us    :      0.50s CPU      0.50s WALL (       9 calls)
     dvqpsi_us_on :      0.03s CPU      0.03s WALL (       9 calls)

     cgsolve      :     42.26s CPU     42.42s WALL (      63 calls)
     ch_psi       :     41.32s CPU     41.45s WALL (     759 calls)

     ch_psi       :     41.32s CPU     41.45s WALL (     759 calls)
     last         :      4.97s CPU      4.97s WALL (     759 calls)

     add_vuspsi   :      1.10s CPU      1.05s WALL (     759 calls)

     incdrhoscf   :      3.77s CPU      3.80s WALL (      63 calls)

     drhodvus     :      0.04s CPU      0.09s WALL (       3 calls)

      General routines
     calbec       :      3.61s CPU      3.72s WALL (    1894 calls)
     fft          :     24.84s CPU     25.04s WALL (    2784 calls)
     ffts         :      0.96s CPU      0.98s WALL (     553 calls)
     fftw         :     31.66s CPU     31.97s WALL (   34272 calls)
     davcio       :      0.14s CPU      2.59s WALL (     665 calls)
     write_rec    :      0.04s CPU      1.32s WALL (      41 calls)


     PHONON       :  2m 7.76s CPU     2m13.43s WALL


   This run was terminated on:  13:39:29  23Sep2016            

=------------------------------------------------------------------------------=
   JOB DONE.
=------------------------------------------------------------------------------=
