
     Program PWSCF v.6.beta (svn rev. 13009) starts on 23Sep2016 at 13:34: 9 

     This program is part of the open-source Quantum ESPRESSO suite
     for quantum simulation of materials; please cite
         "P. Giannozzi et al., J. Phys.:Condens. Matter 21 395502 (2009);
          URL http://www.quantum-espresso.org", 
     in publications or presentations arising from this work. More details at
     http://www.quantum-espresso.org/quote

           HOST :    @host@
           ARCH :    x86_64
             CC :    cc
            CPP :    cpp
            F90 :    mpif90
            F77 :    gfortran
         DFLAGS :    -D__GFORTRAN -D__STD_F95 -D__FFTW -D__MPI
      BLAS LIBS :    
    LAPACK LIBS :    $(TOPDIR)/LAPACK/liblapack.a $(TOPDIR)/LAPACK/libblas.a
       FFT LIBS :    
      MASS LIBS :    

     Parallel version (MPI), running on     2 processors
     R & G space division:  proc/nbgrp/npool/nimage =       2
     Waiting for input...
     Reading input from standard input

     Current dimensions of program PWSCF are:
     Max number of different atomic species (ntypx) = 10
     Max number of k-points (npk) =  40000
     Max angular momentum in pseudopotentials (lmaxx) =  3

     Subspace diagonalization in iterative solution of the eigenvalue problem:
     a serial algorithm will be used


     Parallelization info
     --------------------
     sticks:   dense  smooth     PW     G-vecs:    dense   smooth      PW
     Min         150     150     45                 1691     1691     280
     Max         151     151     46                 1692     1692     281
     Sum         301     301     91                 3383     3383     561



     bravais-lattice index     =            2
     lattice parameter (alat)  =      10.3500  a.u.
     unit-cell volume          =     277.1795 (a.u.)^3
     number of atoms/cell      =            2
     number of atomic types    =            1
     number of electrons       =         8.00
     number of Kohn-Sham states=            8
     kinetic-energy cutoff     =      20.0000  Ry
     charge density cutoff     =      80.0000  Ry
     convergence threshold     =      1.0E-10
     mixing beta               =       0.7000
     number of iterations used =            8  plain     mixing
     Exchange-correlation      =  SLA  PW   PBX  PBC ( 1  4  3  4 0 0)
     Non magnetic calculation with spin-orbit


     celldm(1)=  10.350000  celldm(2)=   0.000000  celldm(3)=   0.000000
     celldm(4)=   0.000000  celldm(5)=   0.000000  celldm(6)=   0.000000

     crystal axes: (cart. coord. in units of alat)
               a(1) = (  -0.500000   0.000000   0.500000 )  
               a(2) = (   0.000000   0.500000   0.500000 )  
               a(3) = (  -0.500000   0.500000   0.000000 )  

     reciprocal axes: (cart. coord. in units 2 pi/alat)
               b(1) = ( -1.000000 -1.000000  1.000000 )  
               b(2) = (  1.000000  1.000000  1.000000 )  
               b(3) = ( -1.000000  1.000000 -1.000000 )  


     PseudoPot. # 1 for Si read from file:
     /home/pietro/trunk/espresso/pseudo/Si.rel-pbe-rrkj.UPF
     MD5 check sum: ca11b4d55ae68281b492616f935c6016
     Pseudo is Norm-conserving, Zval =  4.0
     Generated by new atomic code, or converted to UPF format
     Using radial grid of 1141 points,  3 beta functions with: 
                l(1) =   0
                l(2) =   1
                l(3) =   1

     atomic species   valence    mass     pseudopotential
        Si             4.00    28.08550     Si( 1.00)

     48 Sym. Ops., with inversion, found (24 have fractional translation)



   Cartesian axes

     site n.     atom                  positions (alat units)
         1           Si  tau(   1) = (   0.0000000   0.0000000   0.0000000  )
         2           Si  tau(   2) = (   0.2500000   0.2500000   0.2500000  )

     number of k points=     2
                       cart. coord. in units 2pi/alat
        k(    1) = (  -0.2500000   0.2500000   0.2500000), wk =   0.2500000
        k(    2) = (   0.2500000  -0.2500000   0.7500000), wk =   0.7500000

     Dense  grid:     3383 G-vectors     FFT dimensions: (  24,  24,  24)

     Estimated max dynamical RAM per process >       3.93Mb

     Estimated total allocated dynamical RAM >       7.86Mb

     Initial potential from superposition of free atoms

     starting charge    7.99890, renormalised to    8.00000
     Starting wfc are   16 randomized atomic wfcs

     total cpu time spent up to now is        0.1 secs

     per-process dynamical memory:     6.2 Mb

     Self-consistent Calculation

     iteration #  1     ecut=    20.00 Ry     beta=0.70
     Davidson diagonalization with overlap
     ethr =  1.00E-02,  avg # of iterations =  2.0

     Threshold (ethr) on eigenvalues was too large:
     Diagonalizing with lowered threshold

     Davidson diagonalization with overlap
     ethr =  7.43E-04,  avg # of iterations =  1.0

     total cpu time spent up to now is        0.2 secs

     total energy              =     -15.73845188 Ry
     Harris-Foulkes estimate   =     -15.75189667 Ry
     estimated scf accuracy    <       0.05919946 Ry

     iteration #  2     ecut=    20.00 Ry     beta=0.70
     Davidson diagonalization with overlap
     ethr =  7.40E-04,  avg # of iterations =  1.0

     total cpu time spent up to now is        0.2 secs

     total energy              =     -15.74050330 Ry
     Harris-Foulkes estimate   =     -15.74052189 Ry
     estimated scf accuracy    <       0.00285616 Ry

     iteration #  3     ecut=    20.00 Ry     beta=0.70
     Davidson diagonalization with overlap
     ethr =  3.57E-05,  avg # of iterations =  2.0

     total cpu time spent up to now is        0.2 secs

     total energy              =     -15.74072225 Ry
     Harris-Foulkes estimate   =     -15.74072717 Ry
     estimated scf accuracy    <       0.00005144 Ry

     iteration #  4     ecut=    20.00 Ry     beta=0.70
     Davidson diagonalization with overlap
     ethr =  6.43E-07,  avg # of iterations =  3.5

     total cpu time spent up to now is        0.2 secs

     total energy              =     -15.74074838 Ry
     Harris-Foulkes estimate   =     -15.74074837 Ry
     estimated scf accuracy    <       0.00000068 Ry

     iteration #  5     ecut=    20.00 Ry     beta=0.70
     Davidson diagonalization with overlap
     ethr =  8.49E-09,  avg # of iterations =  2.0

     total cpu time spent up to now is        0.3 secs

     total energy              =     -15.74074860 Ry
     Harris-Foulkes estimate   =     -15.74074860 Ry
     estimated scf accuracy    <       0.00000004 Ry

     iteration #  6     ecut=    20.00 Ry     beta=0.70
     Davidson diagonalization with overlap
     ethr =  5.27E-10,  avg # of iterations =  2.5

     total cpu time spent up to now is        0.3 secs

     total energy              =     -15.74074862 Ry
     Harris-Foulkes estimate   =     -15.74074862 Ry
     estimated scf accuracy    <          4.0E-09 Ry

     iteration #  7     ecut=    20.00 Ry     beta=0.70
     Davidson diagonalization with overlap
     ethr =  5.04E-11,  avg # of iterations =  2.5

     total cpu time spent up to now is        0.4 secs

     End of self-consistent calculation

          k =-0.2500 0.2500 0.2500 (   417 PWs)   bands (ev):

    -5.0080  -5.0080   2.1223   2.1223   5.2486   5.2486   5.2795   5.2795

          k = 0.2500-0.2500 0.7500 (   420 PWs)   bands (ev):

    -3.1341  -3.1341  -0.3117  -0.3117   2.5528   2.5528   3.8517   3.8517

     highest occupied level (ev):     5.2795

!    total energy              =     -15.74074862 Ry
     Harris-Foulkes estimate   =     -15.74074862 Ry
     estimated scf accuracy    <          6.7E-11 Ry

     The total energy is the sum of the following terms:

     one-electron contribution =       4.58222695 Ry
     hartree contribution      =       1.13610043 Ry
     xc contribution           =      -4.80424145 Ry
     ewald contribution        =     -16.65483455 Ry

     convergence has been achieved in   7 iterations

     Writing output data file Si_pbe.save

     init_run     :      0.07s CPU      0.08s WALL (       1 calls)
     electrons    :      0.24s CPU      0.25s WALL (       1 calls)

     Called by init_run:
     wfcinit      :      0.01s CPU      0.01s WALL (       1 calls)
     potinit      :      0.00s CPU      0.01s WALL (       1 calls)

     Called by electrons:
     c_bands      :      0.16s CPU      0.16s WALL (       8 calls)
     sum_band     :      0.03s CPU      0.04s WALL (       8 calls)
     v_of_rho     :      0.03s CPU      0.04s WALL (       8 calls)
     mix_rho      :      0.02s CPU      0.01s WALL (       8 calls)

     Called by c_bands:
     init_us_2    :      0.01s CPU      0.00s WALL (      34 calls)
     cegterg      :      0.16s CPU      0.16s WALL (      16 calls)

     Called by sum_band:

     Called by *egterg:
     h_psi        :      0.15s CPU      0.15s WALL (      51 calls)
     g_psi        :      0.00s CPU      0.00s WALL (      33 calls)
     cdiaghg      :      0.00s CPU      0.00s WALL (      47 calls)

     Called by h_psi:
     h_psi:pot    :      0.14s CPU      0.15s WALL (      51 calls)
     h_psi:calbec :      0.01s CPU      0.00s WALL (      51 calls)
     vloc_psi     :      0.13s CPU      0.14s WALL (      51 calls)
     add_vuspsi   :      0.00s CPU      0.00s WALL (      51 calls)

     General routines
     calbec       :      0.01s CPU      0.00s WALL (      51 calls)
     fft          :      0.01s CPU      0.02s WALL (     137 calls)
     fftw         :      0.13s CPU      0.15s WALL (    1776 calls)
     davcio       :      0.00s CPU      0.00s WALL (       2 calls)

     Parallel routines
     fft_scatter  :      0.02s CPU      0.02s WALL (    1913 calls)

     PWSCF        :     0.37s CPU         0.39s WALL


   This run was terminated on:  13:34: 9  23Sep2016            

=------------------------------------------------------------------------------=
   JOB DONE.
=------------------------------------------------------------------------------=
