
     Program CP v.4.2           starts on 30Aug2010 at 11:56:54 

     This program is part of the open-source Quantum ESPRESSO suite
     for quantum simulation of materials; please cite
         "P. Giannozzi et al., J. Phys.:Condens. Matter 21 395502 (2009);
          URL http://www.quantum-espresso.org", 
     in publications or presentations arising from this work. More details at
     http://www.quantum-espresso.org/wiki/index.php/Citing_Quantum-ESPRESSO

   Job Title: MD Simulation


   Atomic Pseudopotentials Parameters
   ----------------------------------

   Reading pseudopotential for specie #  1 from file :
   /scratch/daily_test/espresso/pseudo/O.pz-rrkjus.UPF
   file type is 20: UPF

   Reading pseudopotential for specie #  2 from file :
   /scratch/daily_test/espresso/pseudo/Si.pz-rrkj.UPF
   file type is 20: UPF


   Main Simulation Parameters (from input)
   ---------------------------------------
   Restart Mode       =       0   reset_counters 
   Number of MD Steps =     100
   Print out every           10 MD Steps
   Reads from unit    =      93
   Writes to unit     =      94
   MD Simulation time step            =      12.00
   Electronic fictitious mass (emass) =     700.00
   emass cut-off                      =       3.00

   Simulation Cell Parameters (from input)
   external pressure       =            1.00 [KBar]
   wmass (calculated)      =        49868.25 [AU]
   ibrav =    8
   alat  =     9.28990000
   a1    =     9.28990000    0.00000000    0.00000000
   a2    =     0.00000000   16.09066419    0.00000000
   a3    =     0.00000000    0.00000000   10.21470954
 
   b1    =     0.10764379    0.00000000    0.00000000
   b2    =     0.00000000    0.06214784    0.00000000
   b3    =     0.00000000    0.00000000    0.09789804
   omega =    1526.90153773

   Energy Cut-offs
   ---------------
   Ecutwfc =   20.0 Ry,      Ecutrho =  150.0 Ry,      Ecuts =   80.0 Ry
   Gcutwfc =    6.6     ,    Gcutrho =   18.1          Gcuts =   13.2
   modified kinetic energy functional, with parameters:
   ecutz = 150.0000  ecsig =  2.0000  ecfix =  16.00
   NOTA BENE: refg, mmx =   0.050000  6000
   Eigenvalues calculated without the kinetic term contribution
   Orthog. with lagrange multipliers : eps =   0.10E-07,  max =  30
   Electron dynamics with newton equations
   Electron dynamics : the temperature is not controlled

   Electronic states
   -----------------
   Number of Electron =    96, of States =    48
   Occupation numbers :
   2.00 2.00 2.00 2.00 2.00 2.00 2.00 2.00 2.00 2.00
   2.00 2.00 2.00 2.00 2.00 2.00 2.00 2.00 2.00 2.00
   2.00 2.00 2.00 2.00 2.00 2.00 2.00 2.00 2.00 2.00
   2.00 2.00 2.00 2.00 2.00 2.00 2.00 2.00 2.00 2.00
   2.00 2.00 2.00 2.00 2.00 2.00 2.00 2.00


   Exchange and correlations functionals
   -------------------------------------
   Using Local Density Approximation with
     Exchange functional: SLATER                                                      
     Correlation functional: PERDEW AND ZUNGER                                           
     Exchange-correlation      =  SLA  PZ   NOGX NOGC (1100)
     EXX-fraction              =        0.00


   Ions Simulation Parameters
   --------------------------
   Ions are allowed to move
   Ions dynamics with newton equations
   the temperature is computed for    54 degrees of freedom
   ion dynamics with fricp =  0.0000 and greasp =  1.0000
   Ionic position (from input)
   sorted by specie, and converted to real a.u. coordinates
   Species   1 atoms =   12 mass =     29166.22 (a.u.),        16.00 (amu) rcmax =   1.00 (a.u.)
        3.188294    14.832370     1.228830
        7.832315     6.787040     1.228830
        2.074435     5.995380     4.737583
        6.720314    14.042319     4.737583
        3.963071    11.269898     7.878606
        8.608021     3.222959     7.878606
        3.963071     4.819153     9.146251
        8.608021    12.864483     9.146251
        3.187365     1.256681     5.580296
        7.833244     9.302011     5.580296
        2.075364    10.092062     2.073586
        6.719385     2.046732     2.073586
   Species   2 atoms =    6 mass =     51040.88 (a.u.),        28.00 (amu) rcmax =   1.00 (a.u.)
        0.288916     8.045330     3.404563
        4.933866     0.000000     3.404563
        2.133890    12.277174    -0.041880
        6.778840     4.231844    -0.041880
        2.133890     3.813486     6.852027
        6.778840    11.858816     6.852027
   Ionic position will be re-read from restart file

   All atoms are allowed to move
   Ionic temperature control via nose thermostat


   ion dynamics with nose` temperature control:
   temperature required      =  300.00000 (kelvin) 
   NH chain length           =   1
   active degrees of freedom =  54
   time steps per nose osc.  =   516


   nose` frequency(es)       =       6.667


   the requested type of NH chains is     0
   total number of thermostats used     1 0 0
   ionic degrees of freedom for each chain   54


   nose` mass(es) for chain    1 =   99946.828


   atom i (in sorted order) is assigned to this thermostat :
   1   1   1   1   1   1   1   1   1   1   1   1   1   1   1   1   1   1


   Cell Dynamics Parameters (from STDIN)
   -------------------------------------
   internal stress tensor calculated
   Starting cell generated from CELLDM
   Cell parameters will be re-read from restart file
   Volume dynamics with newton equations
   cell parameters dynamics with nose` temp. control
   Constant PRESSURE Molecular dynamics:
   External pressure (GPa) =        0.10
   Volume mass             =    49868.25


   cell dynamics with nose` temperature control:
   Kinetic energy required   =  300.00000 (Kelvin) 
   time steps per nose osc.  =   400
   nose` frequency           =      8.607 (THz) 
   nose` mass(es)            =    9993.391

   Verbosity: iprsta =  2



   Simulation dimensions initialization
   ------------------------------------

   unit vectors of full simulation cell
   in real space:                         in reciprocal space (units 2pi/alat):
   1     9.2899    0.0000    0.0000              1.0000    0.0000    0.0000
   2     0.0000   16.0907    0.0000              0.0000    0.5773    0.0000
   3     0.0000    0.0000   10.2147              0.0000    0.0000    0.9095
 
   Stick Mesh
   ----------
   nst =   892,  nstw =   120, nsts =   476
               n.st   n.stw   n.sts    n.g    n.gw   n.gs
   min        1783     239     951   47285    2305   18431
   max        1783     239     951   47285    2305   18431
       1783     239     951   47285    2305   18431
 
 
   Real Mesh
   ---------
   Global Dimensions   Local  Dimensions   Processor Grid
   .X.   .Y.   .Z.     .X.   .Y.   .Z.     .X.   .Y.   .Z.
    40    64    40      40    64    40       1     1     1
   Array leading dimensions ( nr1x, nr2x, nr3x )   =     40    64    40
   Local number of cell to store the grid ( nnrx ) =     102400
   Number of x-y planes for each processors: 
   nr3l =    40
 
   Smooth Real Mesh
   ----------------
   Global Dimensions   Local  Dimensions   Processor Grid
   .X.   .Y.   .Z.     .X.   .Y.   .Z.     .X.   .Y.   .Z.
    27    45    30      27    45    30       1     1     1
   Array leading dimensions ( nr1x, nr2x, nr3x )   =     27    45    30
   Local number of cell to store the grid ( nnrx ) =      36450
   Number of x-y planes for each processors: 
   nr3sl =    30
 
   Small Box Real Mesh
   -------------------
   Global Dimensions   Local  Dimensions   Processor Grid
   .X.   .Y.   .Z.     .X.   .Y.   .Z.     .X.   .Y.   .Z.
    24    24    24      24    24    24       1     1     1
   Array leading dimensions ( nr1x, nr2x, nr3x )   =     24    24    24
   Local number of cell to store the grid ( nnrx ) =      13824
 
   unit vectors of box grid cell
   in real space:                         in reciprocal space:
       5.5739    0.0000    0.0000              1.0000    0.0000    0.0000
       0.0000    6.0340    0.0000              0.0000    0.9238    0.0000
       0.0000    0.0000    6.1288              0.0000    0.0000    0.9095
 
   Reciprocal Space Mesh
   ---------------------
   Large Mesh
     Global(ngmt)     MinLocal       MaxLocal      Average
          23643          23643          23643       23643.00
   Smooth Mesh
     Global(ngst)     MinLocal       MaxLocal      Average
           9216           9216           9216        9216.00
   Wave function Mesh
     Global(ngwt)     MinLocal       MaxLocal      Average
           1153           1153           1153        1153.00

   Small box Mesh
   ngb =         3183 not distributed to processors


   System geometry initialization
   ------------------------------
 
   Scaled positions from standard input
   O    0.343200E+00  0.921800E+00  0.120300E+00
   O    0.843100E+00  0.421800E+00  0.120300E+00
   O    0.223300E+00  0.372600E+00  0.463800E+00
   O    0.723400E+00  0.872700E+00  0.463800E+00
   O    0.426600E+00  0.700400E+00  0.771300E+00
   O    0.926600E+00  0.200300E+00  0.771300E+00
   O    0.426600E+00  0.299500E+00  0.895400E+00
   O    0.926600E+00  0.799500E+00  0.895400E+00
   O    0.343100E+00  0.781000E-01  0.546300E+00
   O    0.843200E+00  0.578100E+00  0.546300E+00
   O    0.223400E+00  0.627200E+00  0.203000E+00
   O    0.723300E+00  0.127200E+00  0.203000E+00
   Si   0.311000E-01  0.500000E+00  0.333300E+00
   Si   0.531100E+00  0.000000E+00  0.333300E+00
   Si   0.229700E+00  0.763000E+00 -0.410000E-02
   Si   0.729700E+00  0.263000E+00 -0.410000E-02
   Si   0.229700E+00  0.237000E+00  0.670800E+00
   Si   0.729700E+00  0.737000E+00  0.670800E+00
   ibrav =    8       cell parameters 

       9.23622      -0.00006      -0.00014
      -0.00010      15.85447      -0.09013
      -0.00015      -0.05694       9.41311
 


   Pseudopotentials initialization
   -------------------------------
  nlinit  nh(is), ngb, is, kkbeta, lmaxq =            8        3183           1
         865           3
 
                        qqq 
  -0.0987   0.4865   0.0000   0.0000
   0.4865  -2.1787   0.0000   0.0000
   0.0000   0.0000   0.2330   0.2950
   0.0000   0.0000   0.2950   0.3737
 


   Common initialization

   Specie:     1
   1  indv=  1   ang. mom=  0
   2  indv=  2   ang. mom=  0
   3  indv=  3   ang. mom=  1
   4  indv=  3   ang. mom=  1
   5  indv=  3   ang. mom=  1
   6  indv=  4   ang. mom=  1
   7  indv=  4   ang. mom=  1
   8  indv=  4   ang. mom=  1
 
                        dion 
   0.4817  -1.2813   0.0000   0.0000
  -1.2813   2.3075   0.0000   0.0000
   0.0000   0.0000   0.6338   0.8752
   0.0000   0.0000   0.8752   1.2039

   Specie:     2
   1  indv=  1   ang. mom=  0
   2  indv=  2   ang. mom=  1
   3  indv=  2   ang. mom=  1
   4  indv=  2   ang. mom=  1
 
                        dion 
   0.3001   0.0000
   0.0000   0.1270
 
   Short Legend and Physical Units in the Output
   ---------------------------------------------
   NFI    [int]          - step index
   EKINC  [HARTREE A.U.] - kinetic energy of the fictitious electronic dynamics
   TEMPH  [K]            - Temperature of the fictitious cell dynamics
   TEMP   [K]            - Ionic temperature
   ETOT   [HARTREE A.U.] - Scf total energy (Kohn-Sham hamiltonian)
   ENTHAL [HARTREE A.U.] - Enthalpy ( ETOT + P * V )
   ECONS  [HARTREE A.U.] - Enthalpy + kinetic energy of ions and cell
   ECONT  [HARTREE A.U.] - Constant of motion for the CP lagrangian
 

   reading restart file: /scratch/daily_test/espresso/tmp//sio2_93.save
   restart file read in    0.025 sec.


   formf: eself=   210.64152
   formf:     vps(g=0)=  -0.0109952     rhops(g=0)=  -0.0043530
   formf: sum_g vps(g)=  -2.2948231 sum_g rhops(g)=  -0.5409379
   formf:     vps(g=0)=  -0.0083617     rhops(g=0)=  -0.0029020
   formf: sum_g vps(g)=  -0.5213625 sum_g rhops(g)=  -0.3606252
   Delta V(G=0):   0.218805Ry,    5.953981eV

   formf: eself=   210.64152
   formf:     vps(g=0)=  -0.0109952     rhops(g=0)=  -0.0043530
   formf: sum_g vps(g)=  -2.2948231 sum_g rhops(g)=  -0.5409379
   formf:     vps(g=0)=  -0.0083617     rhops(g=0)=  -0.0029020
   formf: sum_g vps(g)=  -0.5213625 sum_g rhops(g)=  -0.3606252
   Delta V(G=0):   0.218805Ry,    5.953981eV
 
  nfi    ekinc  temph  tempp        etot      enthal       econs       econt    vnhh   xnhh0    vnhp   xnhp0
    1  0.00064  325.9   57.8  -212.21145  -212.20677  -212.19718  -212.14724  0.0031  1.6526 -0.0006 -0.3663
   Delta V(G=0):   0.218870Ry,    5.955744eV
    2  0.00065  307.6   59.8  -212.21151  -212.20683  -212.19734  -212.14732  0.0031  1.6902 -0.0006 -0.3734
   Delta V(G=0):   0.218927Ry,    5.957306eV
    3  0.00066  296.9   61.8  -212.21159  -212.20690  -212.19739  -212.14732  0.0031  1.7279 -0.0006 -0.3806
   Delta V(G=0):   0.218977Ry,    5.958672eV
    4  0.00067  287.7   63.9  -212.21167  -212.20699  -212.19743  -212.14732  0.0031  1.7655 -0.0006 -0.3878
   Delta V(G=0):   0.219020Ry,    5.959846eV
    5  0.00069  279.7   66.0  -212.21176  -212.20708  -212.19745  -212.14732  0.0031  1.8032 -0.0006 -0.3951
   Delta V(G=0):   0.219057Ry,    5.960832eV
    6  0.00071  273.0   68.1  -212.21186  -212.20718  -212.19746  -212.14732  0.0031  1.8409 -0.0006 -0.4025
   Delta V(G=0):   0.219086Ry,    5.961632eV
    7  0.00073  267.4   70.4  -212.21202  -212.20735  -212.19752  -212.14738  0.0031  1.8786 -0.0006 -0.4099
   Delta V(G=0):   0.219109Ry,    5.962250eV
    8  0.00074  262.9   72.7  -212.21214  -212.20746  -212.19750  -212.14738  0.0031  1.9163 -0.0006 -0.4174
   Delta V(G=0):   0.219125Ry,    5.962691eV
    9  0.00076  259.6   75.0  -212.21226  -212.20759  -212.19747  -212.14738  0.0031  1.9540 -0.0006 -0.4249

 * Physical Quantities at step:    10
   Delta V(G=0):   0.219135Ry,    5.962964eV

   from rhoofr: total integrated electronic density
   in g-space =   96.000000   in r-space =  96.000000


                total energy =     -212.21239 Hartree a.u.
              kinetic energy =       96.03020 Hartree a.u.
        electrostatic energy =     -198.30534 Hartree a.u.
                         esr =        0.57524 Hartree a.u.
                       eself =      210.64152 Hartree a.u.
      pseudopotential energy =      -97.61833 Hartree a.u.
  n-l pseudopotential energy =       36.74802 Hartree a.u.
 exchange-correlation energy =      -49.06695 Hartree a.u.
           average potential =        0.00000 Hartree a.u.



   Eigenvalues (eV), kp =   1 , spin =  1

  -23.72  -23.12  -22.81  -22.19  -22.15  -21.90  -21.64  -21.60  -21.59  -21.54
  -21.49  -21.38  -11.37  -11.25  -11.02  -10.55   -8.90   -8.70   -8.54   -8.41
   -8.34   -8.29   -8.24   -7.51   -6.09   -6.08   -6.06   -6.01   -5.89   -5.57
   -5.41   -5.11   -5.10   -4.60   -4.59   -4.24   -4.22   -4.12   -3.89   -3.89
   -3.82   -3.70   -3.52   -3.36   -3.03   -2.86   -2.85   -2.60
 
   Allocated memory (kb) =     91840
 
   CELL_PARAMETERS
    9.25677323   -0.00011986   -0.00019318
   -0.00020371   15.83245618   -0.10830966
   -0.00021345   -0.06828272    9.39124516

   System Density [g/cm^3] :     2.9312


   Center of mass square displacement (a.u.):   0.000635

   Total stress (GPa)
        5.33046330         0.05044855        -0.02378973
        0.05044854         3.58419832        -1.12142060
       -0.02378974        -1.12142061         6.64882441
   ATOMIC_POSITIONS
   O    0.314462E+01  0.145962E+02  0.101161E+01
   O    0.777276E+01  0.667974E+01  0.104516E+01
   O    0.208774E+01  0.588366E+01  0.431660E+01
   O    0.671636E+01  0.138008E+02  0.428226E+01
   O    0.395792E+01  0.109358E+02  0.709904E+01
   O    0.858641E+01  0.301921E+01  0.713391E+01
   O    0.395608E+01  0.471476E+01  0.848506E+01
   O    0.858449E+01  0.126308E+02  0.845166E+01
   O    0.314535E+01  0.116194E+01  0.518233E+01
   O    0.777415E+01  0.907855E+01  0.514787E+01
   O    0.208764E+01  0.987313E+01  0.187526E+01
   O    0.671595E+01  0.195701E+01  0.191001E+01
   Si   0.318636E+00  0.788055E+01  0.309597E+01
   Si   0.494750E+01 -0.361293E-01  0.313007E+01
   Si   0.211242E+01  0.120831E+02 -0.100313E+00
   Si   0.674050E+01  0.416725E+01 -0.661828E-01
   Si   0.211176E+01  0.367610E+01  0.629209E+01
   Si   0.674061E+01  0.115927E+02  0.625815E+01
 
   ATOMIC_VELOCITIES
   O   -0.623871E-04  0.119233E-03 -0.138164E-03
   O   -0.616944E-04  0.119515E-03 -0.138879E-03
   O    0.137527E-03  0.396408E-05 -0.282087E-04
   O    0.137416E-03  0.374441E-05 -0.287730E-04
   O   -0.732186E-04 -0.122403E-03 -0.144096E-03
   O   -0.731088E-04 -0.121361E-03 -0.143761E-03
   O   -0.735086E-04  0.121862E-03  0.141397E-03
   O   -0.741016E-04  0.122115E-03  0.142199E-03
   O   -0.572782E-04 -0.123445E-03  0.138979E-03
   O   -0.568624E-04 -0.123743E-03  0.137300E-03
   O    0.135606E-03 -0.923098E-05  0.305518E-04
   O    0.136205E-03 -0.896851E-05  0.317553E-04
   Si   0.563362E-04  0.105837E-05  0.461366E-06
   Si   0.570059E-04  0.108287E-05 -0.497188E-06
   Si  -0.306867E-04 -0.181977E-04 -0.783531E-04
   Si  -0.321270E-04 -0.175896E-04 -0.775282E-04
   Si  -0.293605E-04  0.223468E-04  0.771330E-04
   Si  -0.295083E-04  0.219954E-04  0.786124E-04
 


   Partial temperatures (for each ionic specie) 
   Species  Temp (K)   Mean Square Displacement (a.u.)
        1     100.04     0.0004
        2      32.27     0.0001
 
  nfi    ekinc  temph  tempp        etot      enthal       econs       econt    vnhh   xnhh0    vnhp   xnhp0
   10  0.00078  257.4   77.4  -212.21239  -212.20772  -212.19743  -212.14738  0.0031  1.9917 -0.0006 -0.4325
   Delta V(G=0):   0.219139Ry,    5.963075eV
   11  0.00080  256.0   79.9  -212.21252  -212.20784  -212.19736  -212.14736  0.0031  2.0295 -0.0006 -0.4401
   Delta V(G=0):   0.219137Ry,    5.963032eV
   12  0.00082  255.3   82.4  -212.21266  -212.20799  -212.19730  -212.14736  0.0031  2.0672 -0.0006 -0.4478
   Delta V(G=0):   0.219130Ry,    5.962839eV
   13  0.00084  255.3   84.9  -212.21281  -212.20814  -212.19724  -212.14736  0.0031  2.1049 -0.0006 -0.4555
   Delta V(G=0):   0.219118Ry,    5.962501eV
   14  0.00087  255.7   87.5  -212.21297  -212.20829  -212.19716  -212.14737  0.0031  2.1426 -0.0007 -0.4633
   Delta V(G=0):   0.219100Ry,    5.962022eV
   15  0.00089  256.7   90.2  -212.21313  -212.20845  -212.19708  -212.14737  0.0031  2.1803 -0.0007 -0.4712
   Delta V(G=0):   0.219078Ry,    5.961407eV
   16  0.00091  258.2   92.9  -212.21328  -212.20860  -212.19699  -212.14736  0.0031  2.2180 -0.0007 -0.4791
   Delta V(G=0):   0.219050Ry,    5.960663eV
   17  0.00094  260.0   95.6  -212.21344  -212.20876  -212.19689  -212.14737  0.0031  2.2557 -0.0007 -0.4870
   Delta V(G=0):   0.219019Ry,    5.959800eV
   18  0.00096  262.1   98.3  -212.21360  -212.20892  -212.19678  -212.14737  0.0031  2.2933 -0.0007 -0.4950
   Delta V(G=0):   0.218983Ry,    5.958824eV
   19  0.00099  264.3  101.1  -212.21378  -212.20910  -212.19669  -212.14738  0.0031  2.3310 -0.0007 -0.5031

 * Physical Quantities at step:    20
   Delta V(G=0):   0.218943Ry,    5.957742eV

   from rhoofr: total integrated electronic density
   in g-space =   96.000000   in r-space =  96.000000


                total energy =     -212.21393 Hartree a.u.
              kinetic energy =       95.89890 Hartree a.u.
        electrostatic energy =     -198.30839 Hartree a.u.
                         esr =        0.55679 Hartree a.u.
                       eself =      210.64152 Hartree a.u.
      pseudopotential energy =      -97.47603 Hartree a.u.
  n-l pseudopotential energy =       36.69013 Hartree a.u.
 exchange-correlation energy =      -49.01853 Hartree a.u.
           average potential =        0.00000 Hartree a.u.



   Eigenvalues (eV), kp =   1 , spin =  1

  -23.68  -23.08  -22.75  -22.16  -22.10  -21.87  -21.61  -21.58  -21.55  -21.54
  -21.46  -21.34  -11.31  -11.21  -10.98  -10.50   -8.84   -8.66   -8.51   -8.37
   -8.26   -8.24   -8.20   -7.45   -6.08   -6.07   -6.04   -5.98   -5.87   -5.53
   -5.37   -5.09   -5.07   -4.57   -4.56   -4.21   -4.17   -4.07   -3.89   -3.88
   -3.81   -3.69   -3.54   -3.32   -3.00   -2.83   -2.83   -2.60
 
   Allocated memory (kb) =     91840
 
   CELL_PARAMETERS
    9.28688572   -0.00015026   -0.00028548
   -0.00025605   15.81120776   -0.13015355
   -0.00030972   -0.08187157    9.38179635

   System Density [g/cm^3] :     2.9286


   Center of mass square displacement (a.u.):   0.002622

   Total stress (GPa)
        2.91108390         0.06033849        -0.01425522
        0.06033849         2.67346626        -0.91959630
       -0.01425521        -0.91959629         6.32096004
   ATOMIC_POSITIONS
   O    0.314827E+01  0.145916E+02  0.981272E+00
   O    0.779159E+01  0.668590E+01  0.102152E+01
   O    0.211279E+01  0.586499E+01  0.430404E+01
   O    0.675650E+01  0.137713E+02  0.426287E+01
   O    0.396018E+01  0.108895E+02  0.706498E+01
   O    0.860374E+01  0.298357E+01  0.710664E+01
   O    0.395838E+01  0.470335E+01  0.848938E+01
   O    0.860176E+01  0.126088E+02  0.844922E+01
   O    0.314962E+01  0.113014E+01  0.519282E+01
   O    0.779349E+01  0.903608E+01  0.515132E+01
   O    0.211259E+01  0.985555E+01  0.186803E+01
   O    0.675605E+01  0.195010E+01  0.190962E+01
   Si   0.326111E+00  0.786267E+01  0.308612E+01
   Si   0.497009E+01 -0.433575E-01  0.312686E+01
   Si   0.211506E+01  0.120639E+02 -0.121464E+00
   Si   0.675803E+01  0.415865E+01 -0.804842E-01
   Si   0.211456E+01  0.365996E+01  0.629318E+01
   Si   0.675843E+01  0.115659E+02  0.625257E+01
 
   ATOMIC_VELOCITIES
   O   -0.453178E-04  0.173570E-03 -0.139143E-03
   O   -0.441156E-04  0.174985E-03 -0.139245E-03
   O    0.166078E-03 -0.140377E-04 -0.225597E-04
   O    0.166715E-03 -0.159005E-04 -0.218958E-04
   O   -0.101271E-03 -0.125881E-03 -0.145320E-03
   O   -0.101364E-03 -0.124773E-03 -0.144911E-03
   O   -0.100091E-03  0.125249E-03  0.142640E-03
   O   -0.100764E-03  0.125393E-03  0.143229E-03
   O   -0.400712E-04 -0.177422E-03  0.140075E-03
   O   -0.400132E-04 -0.177391E-03  0.138669E-03
   O    0.166067E-03  0.122588E-04  0.222974E-04
   O    0.166738E-03  0.132528E-04  0.228406E-04
   Si   0.514642E-04 -0.637943E-06  0.113891E-05
   Si   0.515048E-04  0.201068E-06  0.311996E-06
   Si  -0.395301E-04 -0.335512E-04 -0.101389E-03
   Si  -0.411976E-04 -0.337210E-04 -0.100496E-03
   Si  -0.374288E-04  0.369498E-04  0.100555E-03
   Si  -0.377209E-04  0.368712E-04  0.101777E-03
 


   Partial temperatures (for each ionic specie) 
   Species  Temp (K)   Mean Square Displacement (a.u.)
        1     130.10     0.0020
        2      51.24     0.0005
 
  nfi    ekinc  temph  tempp        etot      enthal       econs       econt    vnhh   xnhh0    vnhp   xnhp0
   20  0.00101  266.7  103.8  -212.21393  -212.20925  -212.19657  -212.14738  0.0031  2.3686 -0.0007 -0.5112
   Delta V(G=0):   0.218900Ry,    5.956560eV
   21  0.00104  269.1  106.6  -212.21409  -212.20940  -212.19646  -212.14738  0.0031  2.4063 -0.0007 -0.5193
   Delta V(G=0):   0.218853Ry,    5.955282eV
   22  0.00106  271.5  109.4  -212.21423  -212.20955  -212.19633  -212.14738  0.0031  2.4439 -0.0007 -0.5275
   Delta V(G=0):   0.218802Ry,    5.953912eV
   23  0.00109  274.0  112.2  -212.21438  -212.20969  -212.19620  -212.14738  0.0031  2.4815 -0.0007 -0.5357
   Delta V(G=0):   0.218749Ry,    5.952459eV
   24  0.00111  276.3  114.9  -212.21452  -212.20983  -212.19607  -212.14739  0.0031  2.5191 -0.0007 -0.5440
   Delta V(G=0):   0.218693Ry,    5.950929eV
   25  0.00114  278.6  117.7  -212.21464  -212.20996  -212.19592  -212.14739  0.0031  2.5567 -0.0007 -0.5524
   Delta V(G=0):   0.218634Ry,    5.949330eV
   26  0.00116  280.6  120.4  -212.21476  -212.21007  -212.19578  -212.14739  0.0031  2.5942 -0.0007 -0.5607
   Delta V(G=0):   0.218573Ry,    5.947670eV
   27  0.00119  282.4  123.1  -212.21487  -212.21018  -212.19563  -212.14739  0.0031  2.6318 -0.0007 -0.5692
   Delta V(G=0):   0.218510Ry,    5.945954eV
   28  0.00121  283.9  125.7  -212.21497  -212.21027  -212.19548  -212.14740  0.0031  2.6693 -0.0007 -0.5776
   Delta V(G=0):   0.218445Ry,    5.944187eV
   29  0.00124  285.1  128.3  -212.21519  -212.21050  -212.19547  -212.14754  0.0031  2.7068 -0.0007 -0.5861

 * Physical Quantities at step:    30
   Delta V(G=0):   0.218378Ry,    5.942375eV

   from rhoofr: total integrated electronic density
   in g-space =   96.000000   in r-space =  96.000000


                total energy =     -212.21526 Hartree a.u.
              kinetic energy =       95.72404 Hartree a.u.
        electrostatic energy =     -198.30999 Hartree a.u.
                         esr =        0.53307 Hartree a.u.
                       eself =      210.64152 Hartree a.u.
      pseudopotential energy =      -97.28839 Hartree a.u.
  n-l pseudopotential energy =       36.61299 Hartree a.u.
 exchange-correlation energy =      -48.95391 Hartree a.u.
           average potential =        0.00000 Hartree a.u.



   Eigenvalues (eV), kp =   1 , spin =  1

  -23.62  -23.04  -22.69  -22.11  -22.05  -21.84  -21.57  -21.56  -21.55  -21.51
  -21.42  -21.30  -11.23  -11.17  -10.93  -10.44   -8.76   -8.62   -8.48   -8.33
   -8.21   -8.18   -8.16   -7.38   -6.07   -6.05   -6.02   -5.94   -5.85   -5.49
   -5.34   -5.09   -5.03   -4.54   -4.53   -4.19   -4.12   -4.01   -3.90   -3.87
   -3.79   -3.68   -3.57   -3.29   -2.96   -2.81   -2.80   -2.60
 
   Allocated memory (kb) =     91840
 
   CELL_PARAMETERS
    9.32119383   -0.00012911   -0.00039746
   -0.00022053   15.79253546   -0.15347163
   -0.00042627   -0.09636105    9.38278040

   System Density [g/cm^3] :     2.9211


   Center of mass square displacement (a.u.):   0.005847

   Total stress (GPa)
       -0.07831487         0.05727087         0.00208924
        0.05727087         1.17526582        -0.74919956
        0.00208924        -0.74919955         5.53930254
   ATOMIC_POSITIONS
   O    0.315571E+01  0.145956E+02  0.951308E+00
   O    0.781634E+01  0.669947E+01  0.998761E+00
   O    0.214181E+01  0.584449E+01  0.429680E+01
   O    0.680279E+01  0.137412E+02  0.424845E+01
   O    0.396115E+01  0.108438E+02  0.703818E+01
   O    0.862183E+01  0.294741E+01  0.708708E+01
   O    0.395954E+01  0.469142E+01  0.850292E+01
   O    0.862001E+01  0.125875E+02  0.845552E+01
   O    0.315761E+01  0.109155E+01  0.520901E+01
   O    0.781863E+01  0.898822E+01  0.516007E+01
   O    0.214176E+01  0.984185E+01  0.186118E+01
   O    0.680244E+01  0.194592E+01  0.191000E+01
   Si   0.333237E+00  0.784538E+01  0.307937E+01
   Si   0.499433E+01 -0.511515E-01  0.312721E+01
   Si   0.211755E+01  0.120451E+02 -0.145895E+00
   Si   0.677746E+01  0.414914E+01 -0.976239E-01
   Si   0.211725E+01  0.364488E+01  0.630366E+01
   Si   0.677825E+01  0.115415E+02  0.625587E+01
 
   ATOMIC_VELOCITIES
   O   -0.241931E-04  0.222162E-03 -0.138303E-03
   O   -0.226742E-04  0.224270E-03 -0.137962E-03
   O    0.185780E-03 -0.310978E-04 -0.146450E-04
   O    0.187009E-03 -0.342392E-04 -0.130213E-04
   O   -0.123452E-03 -0.123235E-03 -0.145033E-03
   O   -0.123787E-03 -0.122092E-03 -0.144610E-03
   O   -0.121027E-03  0.122720E-03  0.142524E-03
   O   -0.121580E-03  0.122685E-03  0.143019E-03
   O   -0.192665E-04 -0.224744E-03  0.139712E-03
   O   -0.197584E-04 -0.224144E-03  0.138791E-03
   O    0.187615E-03  0.330481E-04  0.113323E-04
   O    0.188340E-03  0.347458E-04  0.114458E-04
   Si   0.480501E-04 -0.232282E-05  0.167394E-05
   Si   0.475195E-04 -0.872965E-06  0.113290E-05
   Si  -0.494302E-04 -0.439016E-04 -0.120016E-03
   Si  -0.510743E-04 -0.446673E-04 -0.119159E-03
   Si  -0.467930E-04  0.458015E-04  0.119668E-03
   Si  -0.471327E-04  0.459183E-04  0.120557E-03
 


   Partial temperatures (for each ionic specie) 
   Species  Temp (K)   Mean Square Displacement (a.u.)
        1     160.50     0.0052
        2      71.30     0.0015
 
  nfi    ekinc  temph  tempp        etot      enthal       econs       econt    vnhh   xnhh0    vnhp   xnhp0
   30  0.00126  286.1  130.8  -212.21526  -212.21056  -212.19531  -212.14754  0.0031  2.7443 -0.0007 -0.5947
   Delta V(G=0):   0.218310Ry,    5.940523eV
   31  0.00128  286.9  133.2  -212.21546  -212.21076  -212.19528  -212.14768  0.0031  2.7818 -0.0007 -0.6033
   Delta V(G=0):   0.218241Ry,    5.938637eV
   32  0.00130  287.3  135.6  -212.21549  -212.21080  -212.19511  -212.14768  0.0031  2.8193 -0.0007 -0.6119
   Delta V(G=0):   0.218171Ry,    5.936725eV
   33  0.00132  287.4  137.9  -212.21551  -212.21081  -212.19493  -212.14768  0.0031  2.8568 -0.0007 -0.6206
   Delta V(G=0):   0.218100Ry,    5.934792eV
   34  0.00134  287.2  140.1  -212.21552  -212.21082  -212.19475  -212.14768  0.0031  2.8943 -0.0007 -0.6293
   Delta V(G=0):   0.218028Ry,    5.932846eV
   35  0.00136  286.5  142.1  -212.21550  -212.21080  -212.19457  -212.14769  0.0031  2.9317 -0.0007 -0.6381
   Delta V(G=0):   0.217956Ry,    5.930892eV
   36  0.00138  285.5  144.1  -212.21547  -212.21077  -212.19438  -212.14769  0.0031  2.9691 -0.0007 -0.6469
   Delta V(G=0):   0.217884Ry,    5.928934eV
   37  0.00140  284.1  145.9  -212.21542  -212.21072  -212.19419  -212.14769  0.0031  3.0066 -0.0007 -0.6557
   Delta V(G=0):   0.217812Ry,    5.926978eV
   38  0.00142  282.4  147.7  -212.21535  -212.21065  -212.19400  -212.14769  0.0031  3.0440 -0.0007 -0.6646
   Delta V(G=0):   0.217741Ry,    5.925029eV
   39  0.00143  280.5  149.3  -212.21526  -212.21055  -212.19379  -212.14769  0.0031  3.0814 -0.0007 -0.6735

 * Physical Quantities at step:    40
   Delta V(G=0):   0.217670Ry,    5.923092eV

   from rhoofr: total integrated electronic density
   in g-space =   96.000000   in r-space =  96.000000


                total energy =     -212.21515 Hartree a.u.
              kinetic energy =       95.53265 Hartree a.u.
        electrostatic energy =     -198.31003 Hartree a.u.
                         esr =        0.50763 Hartree a.u.
                       eself =      210.64152 Hartree a.u.
      pseudopotential energy =      -97.08320 Hartree a.u.
  n-l pseudopotential energy =       36.52799 Hartree a.u.
 exchange-correlation energy =      -48.88257 Hartree a.u.
           average potential =        0.00000 Hartree a.u.



   Eigenvalues (eV), kp =   1 , spin =  1

  -23.56  -23.00  -22.62  -22.06  -21.99  -21.82  -21.57  -21.57  -21.52  -21.46
  -21.36  -21.25  -11.15  -11.14  -10.89  -10.37   -8.68   -8.58   -8.45   -8.30
   -8.17   -8.12   -8.09   -7.31   -6.07   -6.02   -5.99   -5.90   -5.84   -5.44
   -5.30   -5.08   -4.99   -4.52   -4.49   -4.18   -4.06   -3.96   -3.89   -3.86
   -3.77   -3.68   -3.59   -3.25   -2.91   -2.78   -2.78   -2.60
 
   Allocated memory (kb) =     91840
 
   CELL_PARAMETERS
    9.35522168   -0.00005916   -0.00050824
   -0.00010242   15.77511444   -0.17799253
   -0.00054185   -0.11161421    9.38976773

   System Density [g/cm^3] :     2.9116


   Center of mass square displacement (a.u.):   0.010236

   Total stress (GPa)
       -3.21876582         0.03613913         0.01918892
        0.03613913        -0.69669723        -0.61093452
        0.01918892        -0.61093452         4.15365689
   ATOMIC_POSITIONS
   O    0.316564E+01  0.146057E+02  0.921232E+00
   O    0.784344E+01  0.671861E+01  0.976309E+00
   O    0.217259E+01  0.582206E+01  0.429307E+01
   O    0.685078E+01  0.137097E+02  0.423727E+01
   O    0.395983E+01  0.107989E+02  0.701544E+01
   O    0.863744E+01  0.291144E+01  0.707196E+01
   O    0.395852E+01  0.467807E+01  0.852166E+01
   O    0.863598E+01  0.125655E+02  0.846663E+01
   O    0.316799E+01  0.104756E+01  0.522863E+01
   O    0.784597E+01  0.893568E+01  0.517193E+01
   O    0.217287E+01  0.983100E+01  0.185369E+01
   O    0.685063E+01  0.194406E+01  0.191009E+01
   Si   0.340253E+00  0.782814E+01  0.307428E+01
   Si   0.501824E+01 -0.594286E-01  0.312966E+01
   Si   0.211878E+01  0.120266E+02 -0.172782E+00
   Si   0.679548E+01  0.413933E+01 -0.116843E+00
   Si   0.211870E+01  0.362976E+01  0.631988E+01
   Si   0.679670E+01  0.115177E+02  0.626450E+01
 
   ATOMIC_VELOCITIES
   O   -0.346735E-05  0.256475E-03 -0.140459E-03
   O   -0.198463E-05  0.258835E-03 -0.139913E-03
   O    0.194625E-03 -0.452800E-04 -0.535110E-05
   O    0.195988E-03 -0.488385E-04 -0.333444E-05
   O   -0.136863E-03 -0.114053E-03 -0.144931E-03
   O   -0.137373E-03 -0.112823E-03 -0.144472E-03
   O   -0.133666E-03  0.113883E-03  0.142587E-03
   O   -0.134035E-03  0.113805E-03  0.142947E-03
   O    0.663165E-06 -0.257186E-03  0.142662E-03
   O   -0.231102E-06 -0.256065E-03  0.142278E-03
   O    0.197494E-03  0.500754E-04 -0.533576E-06
   O    0.198218E-03  0.521107E-04 -0.568519E-06
   Si   0.494606E-04 -0.353948E-05  0.185201E-05
   Si   0.485731E-04 -0.187977E-05  0.172051E-05
   Si  -0.596746E-04 -0.447667E-04 -0.131352E-03
   Si  -0.610074E-04 -0.456997E-04 -0.130572E-03
   Si  -0.569226E-04  0.447623E-04  0.131484E-03
   Si  -0.572106E-04  0.448733E-04  0.132059E-03
 


   Partial temperatures (for each ionic specie) 
   Species  Temp (K)   Mean Square Displacement (a.u.)
        1     183.28     0.0106
        2      85.75     0.0032
 
  nfi    ekinc  temph  tempp        etot      enthal       econs       econt    vnhh   xnhh0    vnhp   xnhp0
   40  0.00144  278.3  150.8  -212.21515  -212.21044  -212.19359  -212.14769  0.0031  3.1188 -0.0007 -0.6824
   Delta V(G=0):   0.217599Ry,    5.921173eV
   41  0.00145  275.8  152.1  -212.21502  -212.21031  -212.19337  -212.14769  0.0031  3.1562 -0.0007 -0.6914
   Delta V(G=0):   0.217529Ry,    5.919279eV
   42  0.00146  272.9  153.3  -212.21487  -212.21016  -212.19316  -212.14769  0.0031  3.1936 -0.0008 -0.7004
   Delta V(G=0):   0.217461Ry,    5.917413eV
   43  0.00147  269.8  154.4  -212.21471  -212.20999  -212.19295  -212.14769  0.0031  3.2309 -0.0008 -0.7095
   Delta V(G=0):   0.217394Ry,    5.915580eV
   44  0.00148  266.4  155.3  -212.21452  -212.20981  -212.19273  -212.14769  0.0031  3.2683 -0.0008 -0.7186
   Delta V(G=0):   0.217328Ry,    5.913785eV
   45  0.00149  262.8  156.1  -212.21432  -212.20960  -212.19251  -212.14769  0.0031  3.3056 -0.0008 -0.7277
   Delta V(G=0):   0.217263Ry,    5.912033eV
   46  0.00149  259.0  156.7  -212.21409  -212.20937  -212.19228  -212.14769  0.0031  3.3430 -0.0008 -0.7368
   Delta V(G=0):   0.217201Ry,    5.910327eV
   47  0.00150  255.2  157.2  -212.21385  -212.20913  -212.19205  -212.14768  0.0031  3.3803 -0.0008 -0.7460
   Delta V(G=0):   0.217140Ry,    5.908673eV
   48  0.00150  251.3  157.6  -212.21359  -212.20887  -212.19181  -212.14768  0.0031  3.4176 -0.0008 -0.7553
   Delta V(G=0):   0.217081Ry,    5.907074eV
   49  0.00149  247.3  157.8  -212.21332  -212.20859  -212.19158  -212.14768  0.0031  3.4549 -0.0008 -0.7645

 * Physical Quantities at step:    50
   Delta V(G=0):   0.217024Ry,    5.905535eV

   from rhoofr: total integrated electronic density
   in g-space =   96.000000   in r-space =  96.000000


                total energy =     -212.21303 Hartree a.u.
              kinetic energy =       95.34688 Hartree a.u.
        electrostatic energy =     -198.30880 Hartree a.u.
                         esr =        0.48360 Hartree a.u.
                       eself =      210.64152 Hartree a.u.
      pseudopotential energy =      -96.88605 Hartree a.u.
  n-l pseudopotential energy =       36.44771 Hartree a.u.
 exchange-correlation energy =      -48.81277 Hartree a.u.
           average potential =        0.00000 Hartree a.u.



   Eigenvalues (eV), kp =   1 , spin =  1

  -23.51  -22.96  -22.54  -21.99  -21.92  -21.80  -21.59  -21.59  -21.47  -21.41
  -21.28  -21.20  -11.10  -11.07  -10.86  -10.30   -8.60   -8.53   -8.42   -8.27
   -8.15   -8.08   -8.00   -7.24   -6.06   -6.00   -5.95   -5.86   -5.82   -5.40
   -5.27   -5.08   -4.94   -4.50   -4.45   -4.19   -4.00   -3.90   -3.89   -3.84
   -3.74   -3.67   -3.61   -3.22   -2.85   -2.76   -2.75   -2.59
 
   Allocated memory (kb) =     91840
 
   CELL_PARAMETERS
    9.38431454    0.00004393   -0.00059256
    0.00007105   15.75737997   -0.20342275
   -0.00063073   -0.12748811    9.39943789

   System Density [g/cm^3] :     2.9030


   Center of mass square displacement (a.u.):   0.015569

   Total stress (GPa)
       -6.03361023         0.01087720         0.03658956
        0.01087720        -2.48972977        -0.31516018
        0.03658956        -0.31516018         2.92796871
   ATOMIC_POSITIONS
   O    0.317624E+01  0.146185E+02  0.890247E+00
   O    0.786869E+01  0.674058E+01  0.953274E+00
   O    0.220268E+01  0.579764E+01  0.429154E+01
   O    0.689562E+01  0.136761E+02  0.422800E+01
   O    0.395539E+01  0.107547E+02  0.699430E+01
   O    0.864743E+01  0.287631E+01  0.705876E+01
   O    0.395443E+01  0.466235E+01  0.854270E+01
   O    0.864647E+01  0.125410E+02  0.847973E+01
   O    0.317892E+01  0.100028E+01  0.525044E+01
   O    0.787136E+01  0.887977E+01  0.518575E+01
   O    0.220337E+01  0.982149E+01  0.184496E+01
   O    0.689570E+01  0.194375E+01  0.190925E+01
   Si   0.347696E+00  0.781034E+01  0.306978E+01
   Si   0.504006E+01 -0.680844E-01  0.313306E+01
   Si   0.211767E+01  0.120085E+02 -0.200972E+00
   Si   0.680874E+01  0.413011E+01 -0.137053E+00
   Si   0.211779E+01  0.361311E+01  0.633865E+01
   Si   0.681037E+01  0.114923E+02  0.627533E+01
 
   ATOMIC_VELOCITIES
   O    0.139246E-04  0.271785E-03 -0.148426E-03
   O    0.150661E-04  0.273810E-03 -0.148026E-03
   O    0.191692E-03 -0.554281E-04  0.479830E-05
   O    0.192718E-03 -0.586159E-04  0.672932E-05
   O   -0.140540E-03 -0.987494E-04 -0.145239E-03
   O   -0.141050E-03 -0.975720E-04 -0.144958E-03
   O   -0.136968E-03  0.993138E-04  0.143060E-03
   O   -0.136976E-03  0.990707E-04  0.143446E-03
   O    0.171591E-04 -0.270359E-03  0.151455E-03
   O    0.158950E-04 -0.268942E-03  0.151584E-03
   O    0.194589E-03  0.616057E-04 -0.121410E-04
   O    0.195123E-03  0.635874E-04 -0.120693E-04
   Si   0.576295E-04 -0.401716E-05  0.160887E-05
   Si   0.566441E-04 -0.259554E-05  0.195076E-05
   Si  -0.696026E-04 -0.339696E-04 -0.133142E-03
   Si  -0.703691E-04 -0.346401E-04 -0.132489E-03
   Si  -0.672576E-04  0.320948E-04  0.133667E-03
   Si  -0.674062E-04  0.319808E-04  0.133998E-03
 


   Partial temperatures (for each ionic specie) 
   Species  Temp (K)   Mean Square Displacement (a.u.)
        1     191.59     0.0183
        2      90.38     0.0058
 
  nfi    ekinc  temph  tempp        etot      enthal       econs       econt    vnhh   xnhh0    vnhp   xnhp0
   50  0.00149  243.2  157.9  -212.21303  -212.20830  -212.19134  -212.14768  0.0031  3.4923 -0.0008 -0.7738
   Delta V(G=0):   0.216970Ry,    5.904060eV
   51  0.00149  239.0  157.8  -212.21272  -212.20800  -212.19110  -212.14768  0.0031  3.5296 -0.0008 -0.7832
   Delta V(G=0):   0.216918Ry,    5.902652eV
   52  0.00149  234.8  157.6  -212.21241  -212.20768  -212.19086  -212.14768  0.0031  3.5668 -0.0008 -0.7925
   Delta V(G=0):   0.216869Ry,    5.901315eV
   53  0.00149  230.7  157.2  -212.21208  -212.20735  -212.19062  -212.14768  0.0031  3.6041 -0.0008 -0.8019
   Delta V(G=0):   0.216823Ry,    5.900052eV
   54  0.00148  226.7  156.8  -212.21174  -212.20701  -212.19038  -212.14767  0.0031  3.6414 -0.0008 -0.8114
   Delta V(G=0):   0.216779Ry,    5.898868eV
   55  0.00147  222.9  156.2  -212.21139  -212.20666  -212.19013  -212.14767  0.0031  3.6787 -0.0008 -0.8209
   Delta V(G=0):   0.216739Ry,    5.897763eV
   56  0.00146  219.3  155.5  -212.21103  -212.20630  -212.18988  -212.14767  0.0031  3.7159 -0.0008 -0.8304
   Delta V(G=0):   0.216701Ry,    5.896743eV
   57  0.00145  215.7  154.7  -212.21066  -212.20593  -212.18963  -212.14767  0.0031  3.7532 -0.0008 -0.8399
   Delta V(G=0):   0.216667Ry,    5.895808eV
   58  0.00144  212.4  153.8  -212.21029  -212.20556  -212.18938  -212.14766  0.0031  3.7904 -0.0008 -0.8495
   Delta V(G=0):   0.216636Ry,    5.894963eV
   59  0.00143  209.2  152.8  -212.20991  -212.20518  -212.18913  -212.14766  0.0031  3.8276 -0.0008 -0.8591

 * Physical Quantities at step:    60
   Delta V(G=0):   0.216608Ry,    5.894211eV

   from rhoofr: total integrated electronic density
   in g-space =   96.000000   in r-space =  96.000000


                total energy =     -212.20953 Hartree a.u.
              kinetic energy =       95.18370 Hartree a.u.
        electrostatic energy =     -198.30770 Hartree a.u.
                         esr =        0.46311 Hartree a.u.
                       eself =      210.64152 Hartree a.u.
      pseudopotential energy =      -96.71303 Hartree a.u.
  n-l pseudopotential energy =       36.37867 Hartree a.u.
 exchange-correlation energy =      -48.75116 Hartree a.u.
           average potential =        0.00000 Hartree a.u.



   Eigenvalues (eV), kp =   1 , spin =  1

  -23.45  -22.93  -22.47  -21.93  -21.86  -21.79  -21.61  -21.61  -21.41  -21.36
  -21.20  -21.15  -11.06  -10.98  -10.83  -10.23   -8.53   -8.49   -8.39   -8.23
   -8.12   -8.03   -7.91   -7.17   -6.05   -5.98   -5.92   -5.81   -5.80   -5.36
   -5.23   -5.07   -4.90   -4.49   -4.42   -4.21   -3.94   -3.87   -3.85   -3.82
   -3.71   -3.66   -3.61   -3.17   -2.79   -2.73   -2.72   -2.57
 
   Allocated memory (kb) =     91840
 
   CELL_PARAMETERS
    9.40438444    0.00015831   -0.00062714
    0.00026230   15.73780870   -0.22941351
   -0.00066914   -0.14381071    9.40953492

   System Density [g/cm^3] :     2.8974


   Center of mass square displacement (a.u.):   0.021520

   Total stress (GPa)
       -8.13411537        -0.01501048         0.04998066
       -0.01501048        -4.06476370        -0.05028468
        0.04998066        -0.05028468         1.88091753
   ATOMIC_POSITIONS
   O    0.318567E+01  0.146301E+02  0.857551E+00
   O    0.788820E+01  0.676231E+01  0.928745E+00
   O    0.222969E+01  0.577129E+01  0.429133E+01
   O    0.693282E+01  0.136397E+02  0.421981E+01
   O    0.394725E+01  0.107110E+02  0.697313E+01
   O    0.864921E+01  0.284267E+01  0.704576E+01
   O    0.394664E+01  0.464340E+01  0.856409E+01
   O    0.864880E+01  0.125123E+02  0.849299E+01
   O    0.318856E+01  0.952173E+00  0.527395E+01
   O    0.789093E+01  0.882215E+01  0.520111E+01
   O    0.223073E+01  0.981178E+01  0.183466E+01
   O    0.693308E+01  0.194413E+01  0.190711E+01
   Si   0.356244E+00  0.779142E+01  0.306514E+01
   Si   0.505848E+01 -0.769839E-01  0.313663E+01
   Si   0.211338E+01  0.119911E+02 -0.229095E+00
   Si   0.681437E+01  0.412254E+01 -0.156966E+00
   Si   0.211364E+01  0.359338E+01  0.635724E+01
   Si   0.681631E+01  0.114628E+02  0.628578E+01
 
   ATOMIC_VELOCITIES
   O    0.275830E-04  0.267414E-03 -0.162073E-03
   O    0.281182E-04  0.268634E-03 -0.162038E-03
   O    0.177304E-03 -0.620876E-04  0.160345E-04
   O    0.177743E-03 -0.641099E-04  0.173038E-04
   O   -0.135476E-03 -0.775826E-04 -0.145687E-03
   O   -0.135986E-03 -0.765436E-04 -0.145576E-03
   O   -0.132373E-03  0.790464E-04  0.143582E-03
   O   -0.131929E-03  0.787682E-04  0.144001E-03
   O    0.297763E-04 -0.263751E-03  0.165957E-03
   O    0.283304E-04 -0.262266E-03  0.166436E-03
   O    0.179398E-03  0.677477E-04 -0.234480E-04
   O    0.179611E-03  0.694343E-04 -0.230258E-04
   Si   0.726610E-04 -0.375779E-05  0.963440E-06
   Si   0.719012E-04 -0.296698E-05  0.175160E-05
   Si  -0.785935E-04 -0.116240E-04 -0.124361E-03
   Si  -0.786187E-04 -0.116609E-04 -0.123891E-03
   Si  -0.771548E-04  0.818214E-05  0.125121E-03
   Si  -0.771101E-04  0.771116E-05  0.125291E-03
 


   Partial temperatures (for each ionic specie) 
   Species  Temp (K)   Mean Square Displacement (a.u.)
        1     184.04     0.0281
        2      87.12     0.0092
 
  nfi    ekinc  temph  tempp        etot      enthal       econs       econt    vnhh   xnhh0    vnhp   xnhp0
   60  0.00142  206.4  151.7  -212.20953  -212.20479  -212.18888  -212.14766  0.0031  3.8648 -0.0008 -0.8688
   Delta V(G=0):   0.216584Ry,    5.893553eV
   61  0.00141  203.8  150.6  -212.20914  -212.20441  -212.18863  -212.14766  0.0031  3.9021 -0.0008 -0.8785
   Delta V(G=0):   0.216563Ry,    5.892992eV
   62  0.00139  201.6  149.3  -212.20875  -212.20402  -212.18838  -212.14766  0.0031  3.9393 -0.0008 -0.8882
   Delta V(G=0):   0.216547Ry,    5.892531eV
   63  0.00138  199.8  148.0  -212.20837  -212.20363  -212.18813  -212.14766  0.0031  3.9764 -0.0008 -0.8980
   Delta V(G=0):   0.216533Ry,    5.892170eV
   64  0.00136  198.3  146.6  -212.20798  -212.20325  -212.18788  -212.14766  0.0031  4.0136 -0.0008 -0.9078
   Delta V(G=0):   0.216524Ry,    5.891911eV
   65  0.00135  197.2  145.2  -212.20760  -212.20286  -212.18764  -212.14766  0.0031  4.0508 -0.0008 -0.9176
   Delta V(G=0):   0.216518Ry,    5.891757eV
   66  0.00133  196.5  143.7  -212.20721  -212.20248  -212.18739  -212.14766  0.0031  4.0880 -0.0008 -0.9275
   Delta V(G=0):   0.216516Ry,    5.891710eV
   67  0.00132  196.2  142.2  -212.20683  -212.20210  -212.18714  -212.14765  0.0031  4.1251 -0.0008 -0.9374
   Delta V(G=0):   0.216519Ry,    5.891770eV
   68  0.00130  196.4  140.7  -212.20646  -212.20172  -212.18690  -212.14765  0.0031  4.1623 -0.0008 -0.9474
   Delta V(G=0):   0.216525Ry,    5.891940eV
   69  0.00128  197.0  139.2  -212.20609  -212.20135  -212.18665  -212.14765  0.0031  4.1994 -0.0008 -0.9574

 * Physical Quantities at step:    70
   Delta V(G=0):   0.216535Ry,    5.892221eV

   from rhoofr: total integrated electronic density
   in g-space =   96.000000   in r-space =  96.000000


                total energy =     -212.20573 Hartree a.u.
              kinetic energy =       95.05872 Hartree a.u.
        electrostatic energy =     -198.30687 Hartree a.u.
                         esr =        0.44732 Hartree a.u.
                       eself =      210.64152 Hartree a.u.
      pseudopotential energy =      -96.58076 Hartree a.u.
  n-l pseudopotential energy =       36.32713 Hartree a.u.
 exchange-correlation energy =      -48.70395 Hartree a.u.
           average potential =        0.00000 Hartree a.u.



   Eigenvalues (eV), kp =   1 , spin =  1

  -23.41  -22.91  -22.40  -21.87  -21.80  -21.77  -21.63  -21.62  -21.35  -21.32
  -21.13  -21.09  -11.03  -10.89  -10.80  -10.16   -8.48   -8.46   -8.34   -8.20
   -8.10   -7.99   -7.83   -7.12   -6.03   -5.95   -5.88   -5.79   -5.77   -5.32
   -5.19   -5.06   -4.86   -4.48   -4.38   -4.22   -3.89   -3.86   -3.80   -3.79
   -3.68   -3.63   -3.60   -3.13   -2.72   -2.70   -2.68   -2.55
 
   Allocated memory (kb) =     91840
 
   CELL_PARAMETERS
    9.41251587    0.00026209   -0.00059297
    0.00043381   15.71513583   -0.25555986
   -0.00063761   -0.16037744    9.41865817

   System Density [g/cm^3] :     2.8964


   Center of mass square displacement (a.u.):   0.027839

   Total stress (GPa)
       -9.19781100        -0.04093018         0.05641379
       -0.04093019        -5.16852515         0.21453535
        0.05641379         0.21453535         0.98573597
   ATOMIC_POSITIONS
   O    0.319250E+01  0.146372E+02  0.822619E+00
   O    0.789907E+01  0.678093E+01  0.902088E+00
   O    0.225158E+01  0.574307E+01  0.429203E+01
   O    0.695883E+01  0.136001E+02  0.421234E+01
   O    0.393511E+01  0.106680E+02  0.695108E+01
   O    0.864103E+01  0.281120E+01  0.703200E+01
   O    0.393479E+01  0.462054E+01  0.858455E+01
   O    0.864114E+01  0.124782E+02  0.850523E+01
   O    0.319553E+01  0.905626E+00  0.529894E+01
   O    0.790185E+01  0.876452E+01  0.521790E+01
   O    0.225280E+01  0.980055E+01  0.182265E+01
   O    0.695916E+01  0.194449E+01  0.190348E+01
   Si   0.366532E+00  0.777098E+01  0.305996E+01
   Si   0.507271E+01 -0.859667E-01  0.313987E+01
   Si   0.210539E+01  0.119747E+02 -0.255699E+00
   Si   0.681044E+01  0.411758E+01 -0.175228E+00
   Si   0.210572E+01  0.356930E+01  0.637347E+01
   Si   0.681253E+01  0.114274E+02  0.629375E+01
 
   ATOMIC_VELOCITIES
   O    0.385265E-04  0.245032E-03 -0.179053E-03
   O    0.382894E-04  0.245342E-03 -0.179517E-03
   O    0.152844E-03 -0.661987E-04  0.285659E-04
   O    0.152486E-03 -0.665095E-04  0.289363E-04
   O   -0.124740E-03 -0.511152E-04 -0.144992E-03
   O   -0.125076E-03 -0.502046E-04 -0.145172E-03
   O   -0.122471E-03  0.536314E-04  0.142915E-03
   O   -0.121596E-03  0.533285E-04  0.143346E-03
   O    0.398219E-04 -0.239530E-03  0.183772E-03
   O    0.385105E-04 -0.238332E-03  0.184380E-03
   O    0.153287E-03  0.697449E-04 -0.348815E-04
   O    0.153091E-03  0.708573E-04 -0.339835E-04
   Si   0.933533E-04 -0.284237E-05  0.538517E-07
   Si   0.930247E-04 -0.296687E-05  0.122967E-05
   Si  -0.859414E-04  0.206208E-04 -0.105066E-03
   Si  -0.851597E-04  0.214121E-04 -0.104834E-03
   Si  -0.857531E-04 -0.251151E-04  0.105908E-03
   Si  -0.855086E-04 -0.259916E-04  0.105957E-03
 


   Partial temperatures (for each ionic specie) 
   Species  Temp (K)   Mean Square Displacement (a.u.)
        1     164.67     0.0395
        2      83.59     0.0131
 
  nfi    ekinc  temph  tempp        etot      enthal       econs       econt    vnhh   xnhh0    vnhp   xnhp0
   70  0.00126  198.1  137.6  -212.20573  -212.20099  -212.18640  -212.14765  0.0031  4.2365 -0.0008 -0.9674
   Delta V(G=0):   0.216550Ry,    5.892614eV
   71  0.00124  199.7  136.1  -212.20538  -212.20064  -212.18616  -212.14765  0.0031  4.2736 -0.0008 -0.9775
   Delta V(G=0):   0.216568Ry,    5.893118eV
   72  0.00122  201.7  134.6  -212.20504  -212.20030  -212.18592  -212.14765  0.0031  4.3108 -0.0008 -0.9876
   Delta V(G=0):   0.216591Ry,    5.893735eV
   73  0.00121  204.2  133.0  -212.20470  -212.19997  -212.18569  -212.14765  0.0031  4.3478 -0.0008 -0.9977
   Delta V(G=0):   0.216618Ry,    5.894465eV
   74  0.00119  207.2  131.5  -212.20438  -212.19965  -212.18545  -212.14765  0.0031  4.3849 -0.0009 -1.0079
   Delta V(G=0):   0.216649Ry,    5.895310eV
   75  0.00117  210.7  130.1  -212.20407  -212.19934  -212.18522  -212.14765  0.0031  4.4220 -0.0009 -1.0182
   Delta V(G=0):   0.216684Ry,    5.896270eV
   76  0.00115  214.7  128.6  -212.20377  -212.19904  -212.18498  -212.14765  0.0031  4.4591 -0.0009 -1.0285
   Delta V(G=0):   0.216723Ry,    5.897345eV
   77  0.00114  219.1  127.2  -212.20349  -212.19876  -212.18475  -212.14765  0.0031  4.4961 -0.0009 -1.0388
   Delta V(G=0):   0.216767Ry,    5.898536eV
   78  0.00112  224.0  125.9  -212.20321  -212.19848  -212.18452  -212.14765  0.0031  4.5332 -0.0009 -1.0492
   Delta V(G=0):   0.216815Ry,    5.899842eV
   79  0.00110  229.3  124.7  -212.20295  -212.19822  -212.18429  -212.14764  0.0031  4.5702 -0.0009 -1.0596

 * Physical Quantities at step:    80
   Delta V(G=0):   0.216867Ry,    5.901262eV

   from rhoofr: total integrated electronic density
   in g-space =   96.000000   in r-space =  96.000000


                total energy =     -212.20270 Hartree a.u.
              kinetic energy =       94.97853 Hartree a.u.
        electrostatic energy =     -198.30783 Hartree a.u.
                         esr =        0.43680 Hartree a.u.
                       eself =      210.64152 Hartree a.u.
      pseudopotential energy =      -96.49439 Hartree a.u.
  n-l pseudopotential energy =       36.29503 Hartree a.u.
 exchange-correlation energy =      -48.67404 Hartree a.u.
           average potential =        0.00000 Hartree a.u.



   Eigenvalues (eV), kp =   1 , spin =  1

  -23.37  -22.89  -22.33  -21.81  -21.75  -21.74  -21.65  -21.63  -21.29  -21.28
  -21.06  -21.03  -10.99  -10.81  -10.78  -10.11   -8.45   -8.43   -8.30   -8.16
   -8.08   -7.95   -7.76   -7.08   -6.01   -5.93   -5.85   -5.77   -5.74   -5.28
   -5.15   -5.05   -4.82   -4.47   -4.34   -4.23   -3.84   -3.83   -3.76   -3.75
   -3.65   -3.60   -3.58   -3.08   -2.67   -2.66   -2.65   -2.53
 
   Allocated memory (kb) =     91840
 
   CELL_PARAMETERS
    9.40727096    0.00033604   -0.00047912
    0.00055287   15.68850331   -0.28139958
   -0.00052487   -0.17694839    9.42600918

   System Density [g/cm^3] :     2.9009


   Center of mass square displacement (a.u.):   0.034547

   Total stress (GPa)
       -9.14242852        -0.04946427         0.05524945
       -0.04946427        -5.77739853         0.54660919
        0.05524945         0.54660919         0.23037323
   ATOMIC_POSITIONS
   O    0.319605E+01  0.146371E+02  0.785425E+00
   O    0.789989E+01  0.679414E+01  0.873154E+00
   O    0.226683E+01  0.571311E+01  0.429353E+01
   O    0.697140E+01  0.135570E+02  0.420560E+01
   O    0.391885E+01  0.106260E+02  0.692797E+01
   O    0.862208E+01  0.278267E+01  0.701719E+01
   O    0.391873E+01  0.459331E+01  0.860320E+01
   O    0.862262E+01  0.124376E+02  0.851570E+01
   O    0.319919E+01  0.862727E+00  0.532514E+01
   O    0.790278E+01  0.870848E+01  0.523594E+01
   O    0.226797E+01  0.978695E+01  0.180889E+01
   O    0.697163E+01  0.194437E+01  0.189821E+01
   Si   0.379028E+00  0.774879E+01  0.305408E+01
   Si   0.508254E+01 -0.948526E-01  0.314248E+01
   Si   0.209364E+01  0.119596E+02 -0.279377E+00
   Si   0.679617E+01  0.411600E+01 -0.190551E+00
   Si   0.209395E+01  0.354002E+01  0.638562E+01
   Si   0.679821E+01  0.113847E+02  0.629768E+01
 
   ATOMIC_VELOCITIES
   O    0.491275E-04  0.208522E-03 -0.195540E-03
   O    0.481286E-04  0.207823E-03 -0.196423E-03
   O    0.119694E-03 -0.690056E-04  0.426105E-04
   O    0.118510E-03 -0.676735E-04  0.420744E-04
   O   -0.112159E-03 -0.196774E-04 -0.141295E-03
   O   -0.112251E-03 -0.189979E-04 -0.141912E-03
   O   -0.110958E-03  0.233127E-04  0.139339E-03
   O   -0.109791E-03  0.229589E-04  0.139696E-03
   O    0.498816E-04 -0.201609E-03  0.200751E-03
   O    0.488446E-04 -0.200987E-03  0.201284E-03
   O    0.118190E-03  0.691794E-04 -0.467320E-04
   O    0.117482E-03  0.697512E-04 -0.453576E-04
   Si   0.117542E-03 -0.147405E-05 -0.988766E-06
   Si   0.117724E-03 -0.259263E-05  0.457057E-06
   Si  -0.907899E-04  0.602451E-04 -0.762636E-04
   Si  -0.892680E-04  0.618308E-04 -0.762702E-04
   Si  -0.920149E-04 -0.651549E-04  0.769779E-04
   Si  -0.915929E-04 -0.663382E-04  0.769478E-04
 


   Partial temperatures (for each ionic specie) 
   Species  Temp (K)   Mean Square Displacement (a.u.)
        1     140.28     0.0518
        2      89.84     0.0176
 
  nfi    ekinc  temph  tempp        etot      enthal       econs       econt    vnhh   xnhh0    vnhp   xnhp0
   80  0.00108  235.1  123.5  -212.20270  -212.19797  -212.18406  -212.14764  0.0031  4.6072 -0.0009 -1.0700
   Delta V(G=0):   0.216924Ry,    5.902797eV
   81  0.00107  241.3  122.3  -212.20246  -212.19774  -212.18384  -212.14764  0.0031  4.6442 -0.0009 -1.0805
   Delta V(G=0):   0.216984Ry,    5.904446eV
   82  0.00105  248.0  121.3  -212.20224  -212.19752  -212.18361  -212.14764  0.0031  4.6812 -0.0009 -1.0911
   Delta V(G=0):   0.217049Ry,    5.906209eV
   83  0.00104  255.0  120.3  -212.20204  -212.19731  -212.18339  -212.14764  0.0031  4.7182 -0.0009 -1.1016
   Delta V(G=0):   0.217118Ry,    5.908085eV
   84  0.00102  262.3  119.5  -212.20183  -212.19711  -212.18316  -212.14763  0.0031  4.7551 -0.0009 -1.1123
   Delta V(G=0):   0.217191Ry,    5.910073eV
   85  0.00100  269.9  118.8  -212.20166  -212.19694  -212.18294  -212.14763  0.0031  4.7921 -0.0009 -1.1229
   Delta V(G=0):   0.217268Ry,    5.912172eV
   86  0.00099  277.9  118.1  -212.20150  -212.19678  -212.18272  -212.14763  0.0031  4.8290 -0.0009 -1.1337
   Delta V(G=0):   0.217350Ry,    5.914382eV
   87  0.00098  286.1  117.6  -212.20135  -212.19663  -212.18250  -212.14763  0.0031  4.8660 -0.0009 -1.1444
   Delta V(G=0):   0.217435Ry,    5.916701eV
   88  0.00096  294.6  117.2  -212.20121  -212.19650  -212.18228  -212.14763  0.0031  4.9029 -0.0009 -1.1552
   Delta V(G=0):   0.217524Ry,    5.919128eV
   89  0.00095  303.4  116.9  -212.20109  -212.19638  -212.18207  -212.14763  0.0031  4.9398 -0.0009 -1.1661

 * Physical Quantities at step:    90
   Delta V(G=0):   0.217617Ry,    5.921661eV

   from rhoofr: total integrated electronic density
   in g-space =   96.000000   in r-space =  96.000000


                total energy =     -212.20099 Hartree a.u.
              kinetic energy =       94.94859 Hartree a.u.
        electrostatic energy =     -198.31025 Hartree a.u.
                         esr =        0.43193 Hartree a.u.
                       eself =      210.64152 Hartree a.u.
      pseudopotential energy =      -96.45891 Hartree a.u.
  n-l pseudopotential energy =       36.28331 Hartree a.u.
 exchange-correlation energy =      -48.66372 Hartree a.u.
           average potential =        0.00000 Hartree a.u.



   Eigenvalues (eV), kp =   1 , spin =  1

  -23.35  -22.88  -22.28  -21.77  -21.71  -21.71  -21.65  -21.62  -21.25  -21.23
  -21.00  -20.99  -10.96  -10.75  -10.75  -10.08   -8.42   -8.41   -8.25   -8.13
   -8.06   -7.91   -7.72   -7.06   -5.98   -5.91   -5.82   -5.75   -5.72   -5.25
   -5.11   -5.03   -4.78   -4.47   -4.29   -4.23   -3.81   -3.79   -3.72   -3.71
   -3.63   -3.56   -3.55   -3.04   -2.64   -2.61   -2.60   -2.50
 
   Allocated memory (kb) =     91840
 
   CELL_PARAMETERS
    9.38881782    0.00036968   -0.00028297
    0.00060167   15.65755268   -0.30641261
   -0.00032816   -0.19324519    9.43121296

   System Density [g/cm^3] :     2.9109


   Center of mass square displacement (a.u.):   0.042004

   Total stress (GPa)
       -7.98280189        -0.05260066         0.05016211
       -0.05260067        -5.83079317         0.92811653
        0.05016211         0.92811653        -0.40579021
   ATOMIC_POSITIONS
   O    0.319647E+01  0.146280E+02  0.746560E+00
   O    0.789089E+01  0.680041E+01  0.842407E+00
   O    0.227450E+01  0.568158E+01  0.429594E+01
   O    0.696969E+01  0.135103E+02  0.419986E+01
   O    0.389853E+01  0.105858E+02  0.690418E+01
   O    0.859252E+01  0.275794E+01  0.700155E+01
   O    0.389850E+01  0.456152E+01  0.861929E+01
   O    0.859334E+01  0.123903E+02  0.852377E+01
   O    0.319973E+01  0.825107E+00  0.535197E+01
   O    0.789401E+01  0.865543E+01  0.525477E+01
   O    0.227530E+01  0.977068E+01  0.179341E+01
   O    0.696960E+01  0.194362E+01  0.189116E+01
   Si   0.393966E+00  0.772490E+01  0.304750E+01
   Si   0.508829E+01 -0.103438E+00  0.314433E+01
   Si   0.207855E+01  0.119462E+02 -0.298863E+00
   Si   0.677205E+01  0.411838E+01 -0.201806E+00
   Si   0.207875E+01  0.350519E+01  0.639244E+01
   Si   0.677386E+01  0.113343E+02  0.629644E+01
 
   ATOMIC_VELOCITIES
   O    0.621043E-04  0.162282E-03 -0.206602E-03
   O    0.604177E-04  0.160919E-03 -0.207801E-03
   O    0.797882E-04 -0.718596E-04  0.578842E-04
   O    0.780159E-04 -0.690520E-04  0.566227E-04
   O   -0.102151E-03  0.162067E-04 -0.132753E-03
   O   -0.102125E-03  0.166772E-04 -0.133670E-03
   O   -0.102271E-03 -0.115346E-04  0.130727E-03
   O   -0.100898E-03 -0.119273E-04  0.130909E-03
   O    0.626681E-04 -0.154824E-03  0.212181E-03
   O    0.621103E-04 -0.154977E-03  0.212434E-03
   O    0.762930E-04  0.679715E-04 -0.593088E-04
   O    0.750994E-04  0.681362E-04 -0.576004E-04
   Si   0.142699E-03  0.765537E-07 -0.196817E-05
   Si   0.143401E-03 -0.192827E-05 -0.350426E-06
   Si  -0.922079E-04  0.104300E-03 -0.396673E-04
   Si  -0.901182E-04  0.106464E-03 -0.399230E-04
   Si  -0.947279E-04 -0.108963E-03  0.401584E-04
   Si  -0.942181E-04 -0.110245E-03  0.400232E-04
 


   Partial temperatures (for each ionic specie) 
   Species  Temp (K)   Mean Square Displacement (a.u.)
        1     117.70     0.0644
        2     114.64     0.0227
 
  nfi    ekinc  temph  tempp        etot      enthal       econs       econt    vnhh   xnhh0    vnhp   xnhp0
   90  0.00094  312.3  116.7  -212.20099  -212.19628  -212.18185  -212.14762  0.0031  4.9767 -0.0009 -1.1770
   Delta V(G=0):   0.217714Ry,    5.924298eV
   91  0.00092  321.3  116.6  -212.20089  -212.19618  -212.18163  -212.14762  0.0031  5.0136 -0.0009 -1.1879
   Delta V(G=0):   0.217815Ry,    5.927038eV
   92  0.00091  330.5  116.7  -212.20081  -212.19610  -212.18141  -212.14762  0.0031  5.0504 -0.0009 -1.1989
   Delta V(G=0):   0.217919Ry,    5.929879eV
   93  0.00090  339.6  116.9  -212.20074  -212.19604  -212.18120  -212.14762  0.0031  5.0873 -0.0009 -1.2099
   Delta V(G=0):   0.218027Ry,    5.932819eV
   94  0.00089  348.8  117.3  -212.20068  -212.19598  -212.18098  -212.14762  0.0031  5.1241 -0.0009 -1.2210
   Delta V(G=0):   0.218139Ry,    5.935855eV
   95  0.00088  358.0  117.8  -212.20064  -212.19594  -212.18076  -212.14762  0.0031  5.1610 -0.0009 -1.2321
   Delta V(G=0):   0.218254Ry,    5.938986eV
   96  0.00088  367.1  118.4  -212.20060  -212.19591  -212.18055  -212.14762  0.0031  5.1978 -0.0009 -1.2433
   Delta V(G=0):   0.218372Ry,    5.942209eV
   97  0.00087  376.2  119.2  -212.20058  -212.19589  -212.18034  -212.14762  0.0031  5.2346 -0.0009 -1.2545
   Delta V(G=0):   0.218494Ry,    5.945522eV
   98  0.00086  385.1  120.1  -212.20057  -212.19588  -212.18013  -212.14763  0.0031  5.2714 -0.0009 -1.2658
   Delta V(G=0):   0.218619Ry,    5.948921eV
   99  0.00085  393.7  121.2  -212.20057  -212.19589  -212.17991  -212.14764  0.0031  5.3082 -0.0009 -1.2771

 * Physical Quantities at step:   100
   Delta V(G=0):   0.218747Ry,    5.952404eV

   from rhoofr: total integrated electronic density
   in g-space =   96.000000   in r-space =  96.000000


                total energy =     -212.20058 Hartree a.u.
              kinetic energy =       94.97132 Hartree a.u.
        electrostatic energy =     -198.31409 Hartree a.u.
                         esr =        0.43304 Hartree a.u.
                       eself =      210.64152 Hartree a.u.
      pseudopotential energy =      -96.47718 Hartree a.u.
  n-l pseudopotential energy =       36.29318 Hartree a.u.
 exchange-correlation energy =      -48.67382 Hartree a.u.
           average potential =        0.00000 Hartree a.u.



   Eigenvalues (eV), kp =   1 , spin =  1

  -23.33  -22.87  -22.24  -21.73  -21.69  -21.68  -21.63  -21.60  -21.24  -21.19
  -20.97  -20.95  -10.92  -10.72  -10.70  -10.07   -8.40   -8.38   -8.22   -8.09
   -8.05   -7.90   -7.69   -7.06   -5.95   -5.88   -5.80   -5.73   -5.71   -5.22
   -5.08   -5.01   -4.75   -4.48   -4.24   -4.21   -3.78   -3.75   -3.69   -3.66
   -3.61   -3.53   -3.50   -2.99   -2.61   -2.58   -2.56   -2.48
 
   Allocated memory (kb) =     91840
 
   CELL_PARAMETERS
    9.35894717    0.00036023   -0.00001165
    0.00057559   15.62248535   -0.33001567
   -0.00005469   -0.20894440    9.43420701

   System Density [g/cm^3] :     2.9260


   Center of mass square displacement (a.u.):   0.050803

   Total stress (GPa)
       -5.79234722        -0.04434323         0.03562596
       -0.04434323        -5.28662779         1.39198616
        0.03562596         1.39198616        -0.80820071
   ATOMIC_POSITIONS
   O    0.319477E+01  0.146093E+02  0.707252E+00
   O    0.787403E+01  0.679904E+01  0.810933E+00
   O    0.227430E+01  0.564878E+01  0.429944E+01
   O    0.695431E+01  0.134603E+02  0.419548E+01
   O    0.387434E+01  0.105482E+02  0.688060E+01
   O    0.855342E+01  0.273797E+01  0.698582E+01
   O    0.387430E+01  0.452524E+01  0.863214E+01
   O    0.855435E+01  0.123365E+02  0.852892E+01
   O    0.319824E+01  0.793850E+00  0.537843E+01
   O    0.787756E+01  0.860655E+01  0.527351E+01
   O    0.227450E+01  0.975198E+01  0.177634E+01
   O    0.695370E+01  0.194244E+01  0.188228E+01
   Si   0.411344E+00  0.769960E+01  0.304037E+01
   Si   0.509085E+01 -0.111497E+00  0.314539E+01
   Si   0.206100E+01  0.119351E+02 -0.313109E+00
   Si   0.673985E+01  0.412503E+01 -0.208111E+00
   Si   0.206104E+01  0.346501E+01  0.639316E+01
   Si   0.674126E+01  0.112764E+02  0.628941E+01
 
   ATOMIC_VELOCITIES
   O    0.801195E-04  0.111715E-03 -0.207763E-03
   O    0.779000E-04  0.109948E-03 -0.209055E-03
   O    0.350402E-04 -0.754458E-04  0.735230E-04
   O    0.329597E-04 -0.719488E-04  0.721215E-04
   O   -0.993939E-04  0.560344E-04 -0.117307E-03
   O   -0.991476E-04  0.563639E-04 -0.118625E-03
   O   -0.100397E-03 -0.504939E-04  0.115264E-03
   O   -0.991600E-04 -0.510105E-04  0.115182E-03
   O    0.809758E-04 -0.104640E-03  0.213212E-03
   O    0.810575E-04 -0.105801E-03  0.212983E-03
   O    0.298696E-04  0.676909E-04 -0.721888E-04
   O    0.282197E-04  0.675934E-04 -0.703756E-04
   Si   0.166470E-03  0.152602E-05 -0.273776E-05
   Si   0.167537E-03 -0.104561E-05 -0.107331E-05
   Si  -0.893441E-04  0.149631E-03  0.238649E-05
   Si  -0.869809E-04  0.151993E-03  0.188941E-05
   Si  -0.927975E-04 -0.153371E-03 -0.207700E-05
   Si  -0.923382E-04 -0.154451E-03 -0.237098E-05
 


   Partial temperatures (for each ionic specie) 
   Species  Temp (K)   Mean Square Displacement (a.u.)
        1     102.41     0.0766
        2     162.40     0.0288
 
  nfi    ekinc  temph  tempp        etot      enthal       econs       econt    vnhh   xnhh0    vnhp   xnhp0
  100  0.00085  402.2  122.4  -212.20058  -212.19590  -212.17970  -212.14765  0.0031  5.3449 -0.0009 -1.2884

   writing restart file: /scratch/daily_test/espresso/tmp//sio2_94.save
   restart file written in    0.070 sec.



   Averaged Physical Quantities
                      accomulated      this run
   ekinc         :        0.00114       0.00114 (AU)
   ekin          :       95.41750      95.41750 (AU)
   epot          :     -344.10891    -344.10891 (AU)
   total energy  :     -212.20942    -212.20942 (AU)
   temperature   :      124.31139     124.31139 (K )
   enthalpy      :     -212.20471    -212.20471 (AU)
   econs         :     -212.19032    -212.19032 (AU)
   pressure      :       -0.76775      -0.76775 (Gpa)
   volume        :     1385.08370    1385.08370 (AU)


     initialize   :      6.42s CPU      6.46s WALL (       1 calls)
     total_time   :     53.06s CPU     53.13s WALL (     100 calls)
     formf        :      0.68s CPU      0.67s WALL (     101 calls)
     rhoofr       :     17.97s CPU     17.99s WALL (     100 calls)
     vofrho       :      3.15s CPU      3.15s WALL (     100 calls)
     dforce       :      4.51s CPU      4.52s WALL (    2400 calls)
     calphi       :      0.28s CPU      0.27s WALL (     100 calls)
     ortho        :      1.21s CPU      1.21s WALL (     100 calls)
     ortho_iter   :      0.13s CPU      0.13s WALL (     100 calls)
     rsg          :      0.07s CPU      0.07s WALL (     100 calls)
     rhoset       :      0.12s CPU      0.12s WALL (     100 calls)
     updatc       :      0.12s CPU      0.12s WALL (     100 calls)
     newd         :     16.38s CPU     16.40s WALL (     100 calls)
     calbec       :      0.12s CPU      0.12s WALL (     101 calls)
     prefor       :      0.13s CPU      0.14s WALL (     201 calls)
     strucf       :      0.11s CPU      0.12s WALL (     101 calls)
     nlfl         :      0.04s CPU      0.04s WALL (     100 calls)
     nlfq         :      1.30s CPU      1.30s WALL (     100 calls)
     rhov         :      1.21s CPU      1.21s WALL (     100 calls)
     nlsm1        :      0.76s CPU      0.76s WALL (     301 calls)
     nlsm2        :      1.28s CPU      1.27s WALL (     100 calls)
     fft          :      4.39s CPU      4.41s WALL (    1300 calls)
     ffts         :      0.26s CPU      0.25s WALL (     200 calls)
     fftw         :      5.02s CPU      5.04s WALL (    7200 calls)
     fftb         :     12.52s CPU     12.51s WALL (   29400 calls)
 
 
 
     CP           :    59.55s CPU        59.69s WALL

 
   This run was terminated on:  11:57:54  30Aug2010            

=------------------------------------------------------------------------------=
   JOB DONE.
=------------------------------------------------------------------------------=
