                                                                                      
                                       ``:oss/                                        
                           `.+s+.     .+ys--yh+     `./ss+.                           
                          -sh//yy+`   +yy   +yy    -+h+-oyy                           
                          -yh- .oyy/.-sh.   .syo-.:sy-  /yh                           
                 `.-.`    `yh+   -oyyyo.     `/syys:    oys      `.`                  
               `/+ssys+-` `sh+      `                   oys`   .:osyo`                
               -yh- ./syyooyo`                          .sys+/oyo--yh/                
               `yy+    .-:-.                             `-/+/:`  -sh-                
                /yh.                                              oys                 
          ``..---hho---------`   .---------..`      `.-----.`    -hd+---.             
       `./osmNMMMMMMMMMMMMMMMs. +NNMMMMMMMMNNmh+.   yNMMMMMNm-  oNMMMMMNmo++:`        
       +sy--/sdMMMhyyyyyyyNMMh- .oyNMMmyyyyyhNMMm+` -yMMMdyyo:` .oyyNMMNhs+syy`       
       -yy/   /MMM+.`-+/``mMMy-   `mMMh:`````.dMMN:` `MMMy-`-dhhy```mMMy:``+hs        
        -yy+` /MMMo:-mMM+`-oo/.    mMMh:     `dMMN/`  dMMm:`dMMMMy..MMMo-.+yo`        
         .sys`/MMMMNNMMMs-         mMMmyooooymMMNo:   oMMM/sMMMMMM++MMN//oh:          
          `sh+/MMMhyyMMMs- `-`     mMMMMMMMMMNmy+-`   -MMMhMMMsmMMmdMMd/yy+           
    `-/+++oyy-/MMM+.`/hh/.`mNm:`   mMMd+/////:-.`      NMMMMMd/:NMMMMMy:/yyo/:.`      
   +os+//:-..-oMMMo:--:::-/MMMo. .-mMMd+---`           hMMMMN+. oMMMMMo. `-+osyso:`   
   syo     `mNMMMMMNNNNNNNNMMMo.oNNMMMMMNNNN:`         +MMMMs:`  dMMMN/`     ``:syo   
   /yh`     :syyyyyyyyyyyyyyyy+.`+syyyyyyyyo:`         .oyys:`   .oyys:`        +yh   
   -yh-        ````````````````    `````````              ``        ``          oys   
   -+h/------------------------::::::::://////++++++++++++++++++++++///////::::/yd:   
   shdddddddddddddddddddddddddddddhhhhhhhhyyyyyssssssssssssssssyyyyyyyhhhhhhhddddh`   
                                                                                    

     Program EPW v.4.0.0 (svn rev. 12139) starts on  1Mar2016 at 12:38:25 

     This program is part of the open-source Quantum ESPRESSO suite
     for quantum simulation of materials; please cite
         "P. Giannozzi et al., J. Phys.:Condens. Matter 21 395502 (2009);
          URL http://www.quantum-espresso.org", 
     in publications or presentations arising from this work. More details at
     http://www.quantum-espresso.org/quote

     Parallel version (MPI), running on     1 processors

     Reading data from directory:
     ./pb.save

   Info: using nr1, nr2, nr3 values from input

   Info: using nr1, nr2, nr3 values from input

     IMPORTANT: XC functional enforced from input :
     Exchange-correlation      = PZ ( 1  1  0  0 0 0)
     Any further DFT definition will be discarded
     Please, verify this is what you really want


     G-vector sticks info
     --------------------
     sticks:   dense  smooth     PW     G-vecs:    dense   smooth      PW
     Sum         703     703    211                12387    12387    2109


     --                                                                         

     bravais-lattice index     =            2
     lattice parameter (a_0)   =       9.2700  a.u.
     unit-cell volume          =     199.1495 (a.u.)^3
     number of atoms/cell      =            1
     number of atomic types    =            1
     kinetic-energy cut-off    =      60.0000  Ry
     charge density cut-off    =     240.0000  Ry
     convergence threshold     =      0.0E+00
     beta                      =       0.0000
     number of iterations used =            0
     Exchange-correlation      = PZ ( 1  1  0  0 0 0)


     celldm(1)=    9.27000  celldm(2)=    0.00000  celldm(3)=    0.00000
     celldm(4)=    0.00000  celldm(5)=    0.00000  celldm(6)=    0.00000

     crystal axes: (cart. coord. in units of a_0)
               a(1) = ( -0.5000  0.0000  0.5000 )  
               a(2) = (  0.0000  0.5000  0.5000 )  
               a(3) = ( -0.5000  0.5000  0.0000 )  

     reciprocal axes: (cart. coord. in units 2 pi/a_0)
               b(1) = ( -1.0000 -1.0000  1.0000 )  
               b(2) = (  1.0000  1.0000  1.0000 )  
               b(3) = ( -1.0000  1.0000 -1.0000 )  


     Atoms inside the unit cell: 

   Cartesian axes

     site n.  atom      mass           positions (a_0 units)
        1        Pb 207.2175   tau( 1) = (    0.00000    0.00000    0.00000  )

     49 Sym.Ops. (with q -> -q+G )


     G cutoff =  522.4094  (  12387 G-vectors)     FFT grid: ( 36, 36, 36)
     number of k points=   27  gaussian broad. (Ry)=  0.0200     ngauss =   1
                       cart. coord. in units 2pi/a_0
        k(    1) = (   0.0000000   0.0000000   0.0000000), wk =   0.0740741
        k(    2) = (  -0.3333333   0.3333333  -0.3333333), wk =   0.0740741
        k(    3) = (  -0.6666667   0.6666667  -0.6666667), wk =   0.0740741
        k(    4) = (   0.3333333   0.3333333   0.3333333), wk =   0.0740741
        k(    5) = (   0.0000000   0.6666667   0.0000000), wk =   0.0740741
        k(    6) = (  -0.3333333   1.0000000  -0.3333333), wk =   0.0740741
        k(    7) = (   0.6666667   0.6666667   0.6666667), wk =   0.0740741
        k(    8) = (   0.3333333   1.0000000   0.3333333), wk =   0.0740741
        k(    9) = (   0.0000000   1.3333333   0.0000000), wk =   0.0740741
        k(   10) = (  -0.3333333  -0.3333333   0.3333333), wk =   0.0740741
        k(   11) = (  -0.6666667   0.0000000   0.0000000), wk =   0.0740741
        k(   12) = (  -1.0000000   0.3333333  -0.3333333), wk =   0.0740741
        k(   13) = (   0.0000000   0.0000000   0.6666667), wk =   0.0740741
        k(   14) = (  -0.3333333   0.3333333   0.3333333), wk =   0.0740741
        k(   15) = (  -0.6666667   0.6666667  -0.0000000), wk =   0.0740741
        k(   16) = (   0.3333333   0.3333333   1.0000000), wk =   0.0740741
        k(   17) = (   0.0000000   0.6666667   0.6666667), wk =   0.0740741
        k(   18) = (  -0.3333333   1.0000000   0.3333333), wk =   0.0740741
        k(   19) = (  -0.6666667  -0.6666667   0.6666667), wk =   0.0740741
        k(   20) = (  -1.0000000  -0.3333333   0.3333333), wk =   0.0740741
        k(   21) = (  -1.3333333   0.0000000   0.0000000), wk =   0.0740741
        k(   22) = (  -0.3333333  -0.3333333   1.0000000), wk =   0.0740741
        k(   23) = (  -0.6666667  -0.0000000   0.6666667), wk =   0.0740741
        k(   24) = (  -1.0000000   0.3333333   0.3333333), wk =   0.0740741
        k(   25) = (   0.0000000   0.0000000   1.3333333), wk =   0.0740741
        k(   26) = (  -0.3333333   0.3333333   1.0000000), wk =   0.0740741
        k(   27) = (  -0.6666667   0.6666667   0.6666667), wk =   0.0740741

     PseudoPot. # 1 for Pb read from file:
     ../../pp/pb_s.UPF
     MD5 check sum: 7774f596943a2055f0d8d19eea6f2ae8
     Pseudo is Norm-conserving, Zval = 14.0
     Generated using "atomic" code by A. Dal Corso  (Quantum ESPRESSO distribution)
     Using radial grid of 1281 points,  2 beta functions with: 
                l(1) =   2
                l(2) =   1
     EPW          :     0.47s CPU         0.24s WALL

     EPW          :     1.00s CPU         0.50s WALL

     No wavefunction gauge setting applied
     -------------------------------------------------------------------
     Wannierization on  3 x  3 x  3 electronic grid
     -------------------------------------------------------------------

     Spin CASE ( default = unpolarized )

     Initializing Wannier90


     Initial Wannier projections

     (   0.00000   0.00000   0.00000) :  l =  -3 mr =   1
     (   0.00000   0.00000   0.00000) :  l =  -3 mr =   2
     (   0.00000   0.00000   0.00000) :  l =  -3 mr =   3
     (   0.00000   0.00000   0.00000) :  l =  -3 mr =   4

      - Number of bands is ( 11)
      - Number of wannier functions is (  4)
      - All guiding functions are given 
      - All neighbours are found 

     AMN
      k points =    27 in    1 pools
            1 of   27 on ionode
            2 of   27 on ionode
            3 of   27 on ionode
            4 of   27 on ionode
            5 of   27 on ionode
            6 of   27 on ionode
            7 of   27 on ionode
            8 of   27 on ionode
            9 of   27 on ionode
           10 of   27 on ionode
           11 of   27 on ionode
           12 of   27 on ionode
           13 of   27 on ionode
           14 of   27 on ionode
           15 of   27 on ionode
           16 of   27 on ionode
           17 of   27 on ionode
           18 of   27 on ionode
           19 of   27 on ionode
           20 of   27 on ionode
           21 of   27 on ionode
           22 of   27 on ionode
           23 of   27 on ionode
           24 of   27 on ionode
           25 of   27 on ionode
           26 of   27 on ionode
           27 of   27 on ionode

     AMN calculated

     MMN
      k points =    27 in    1 pools
            1 of   27 on ionode
            2 of   27 on ionode
            3 of   27 on ionode
            4 of   27 on ionode
            5 of   27 on ionode
            6 of   27 on ionode
            7 of   27 on ionode
            8 of   27 on ionode
            9 of   27 on ionode
           10 of   27 on ionode
           11 of   27 on ionode
           12 of   27 on ionode
           13 of   27 on ionode
           14 of   27 on ionode
           15 of   27 on ionode
           16 of   27 on ionode
           17 of   27 on ionode
           18 of   27 on ionode
           19 of   27 on ionode
           20 of   27 on ionode
           21 of   27 on ionode
           22 of   27 on ionode
           23 of   27 on ionode
           24 of   27 on ionode
           25 of   27 on ionode
           26 of   27 on ionode
           27 of   27 on ionode
     MMN calculated

     Running Wannier90

     Wannier Function centers (cartesian, alat) and spreads (ang):

     (   0.08268   0.08268   0.08268) :   1.58499
     (   0.08268  -0.08268  -0.08268) :   1.58499
     (  -0.08268   0.08268  -0.08268) :   1.58499
     (  -0.08268  -0.08268   0.08268) :   1.58499

     -------------------------------------------------------------------
     WANNIER      :     19.85s CPU      9.94s WALL (       1 calls)
     -------------------------------------------------------------------

     Dipole matrix elements calculated


     Calculating kmap and kgmap
     Progress  kmap: ###########################
     Progress kgmap: ########################################
     kmaps        :      5.92s CPU      2.97s WALL (       1 calls)
     Symmetries of bravais lattice:  48
     Symmetries of crystal:          48


     ===================================================================
     irreducible q point #    1
     ===================================================================

     Symmetries of small group of q: 48
          in addition sym. q -> -q+G:

     Number of q in the star =    1
     List of q in the star:
          1   0.000000000   0.000000000   0.000000000
        Imposing acoustic sum rule on the dynamical matrix

        q(    1 ) = (   0.0000000   0.0000000   0.0000000 )


     ===================================================================
     irreducible q point #    2
     ===================================================================

     Symmetries of small group of q:  6

     Number of q in the star =    8
     List of q in the star:
          1  -0.333333333   0.333333333  -0.333333333
          2   0.333333333   0.333333333  -0.333333333
          3   0.333333333   0.333333333   0.333333333
          4  -0.333333333   0.333333333   0.333333333
          5   0.333333333  -0.333333333   0.333333333
          6  -0.333333333  -0.333333333  -0.333333333
          7   0.333333333  -0.333333333  -0.333333333
          8  -0.333333333  -0.333333333   0.333333333

        q(    2 ) = (  -0.3333333   0.3333333  -0.3333333 )
        q(    3 ) = (   0.3333333   0.3333333  -0.3333333 )
        q(    4 ) = (   0.3333333   0.3333333   0.3333333 )
        q(    5 ) = (  -0.3333333   0.3333333   0.3333333 )
        q(    6 ) = (   0.3333333  -0.3333333   0.3333333 )
        q(    7 ) = (  -0.3333333  -0.3333333  -0.3333333 )
        q(    8 ) = (   0.3333333  -0.3333333  -0.3333333 )
        q(    9 ) = (  -0.3333333  -0.3333333   0.3333333 )


     ===================================================================
     irreducible q point #    3
     ===================================================================

     Symmetries of small group of q:  8

     Number of q in the star =    6
     List of q in the star:
          1   0.000000000   0.666666667   0.000000000
          2  -0.666666667   0.000000000   0.000000000
          3   0.000000000  -0.666666667   0.000000000
          4   0.000000000   0.000000000   0.666666667
          5   0.000000000   0.000000000  -0.666666667
          6   0.666666667   0.000000000   0.000000000

        q(   10 ) = (   0.0000000   0.6666667   0.0000000 )
        q(   11 ) = (  -0.6666667   0.0000000   0.0000000 )
        q(   12 ) = (   0.0000000  -0.6666667   0.0000000 )
        q(   13 ) = (   0.0000000   0.0000000   0.6666667 )
        q(   14 ) = (   0.0000000   0.0000000  -0.6666667 )
        q(   15 ) = (   0.6666667   0.0000000   0.0000000 )


     ===================================================================
     irreducible q point #    4
     ===================================================================

     Symmetries of small group of q:  4

     Number of q in the star =   12
     List of q in the star:
          1   0.666666667   0.000000000   0.666666667
          2   0.666666667   0.000000000  -0.666666667
          3  -0.666666667   0.000000000  -0.666666667
          4  -0.666666667   0.000000000   0.666666667
          5   0.000000000  -0.666666667   0.666666667
          6  -0.666666667   0.666666667   0.000000000
          7  -0.666666667  -0.666666667   0.000000000
          8   0.666666667   0.666666667   0.000000000
          9   0.666666667  -0.666666667   0.000000000
         10   0.000000000   0.666666667   0.666666667
         11   0.000000000   0.666666667  -0.666666667
         12   0.000000000  -0.666666667  -0.666666667

        q(   16 ) = (   0.6666667   0.0000000   0.6666667 )
        q(   17 ) = (   0.6666667   0.0000000  -0.6666667 )
        q(   18 ) = (  -0.6666667   0.0000000  -0.6666667 )
        q(   19 ) = (  -0.6666667   0.0000000   0.6666667 )
        q(   20 ) = (   0.0000000  -0.6666667   0.6666667 )
        q(   21 ) = (  -0.6666667   0.6666667   0.0000000 )
        q(   22 ) = (  -0.6666667  -0.6666667   0.0000000 )
        q(   23 ) = (   0.6666667   0.6666667   0.0000000 )
        q(   24 ) = (   0.6666667  -0.6666667   0.0000000 )
        q(   25 ) = (   0.0000000   0.6666667   0.6666667 )
        q(   26 ) = (   0.0000000   0.6666667  -0.6666667 )
        q(   27 ) = (   0.0000000  -0.6666667  -0.6666667 )

     Writing epmatq on .epb files


              band disentanglement is used:  nbndsub =    4

     Writing Hamiltonian, Dynamical matrix and EP vertex in Wann rep to file


     Reading Hamiltonian, Dynamical matrix and EP vertex in Wann rep from file


     Finished reading Wann rep data from file

     Using uniform q-mesh:    6   6   6
     Size of q point mesh for interpolation:        216
     Using uniform k-mesh:    6   6   6
     Size of k point mesh for interpolation:        432
     Max number of k points per pool:              432

     Fermi energy coarse grid =   9.797928 eV

     Skipping the first    5 bands:

     The Fermi level will be determined with   4.00000 electrons

     Fermi energy is calculated from the fine k-mesh: Ef =  11.759000 eV

     Warning: check if difference with Fermi level fine grid makes sense

     ===================================================================

              ibndmin =     2  ebndmin =     0.501
              ibndmax =     4  ebndmax =     1.265


     Number of ep-matrix elements per pool :         5832 ~=   45.56 Kb (@ 8 bytes/ DP)

     ===================================================================
     Phonon (Imaginary) Self-Energy in the Migdal Approximation
     ===================================================================


     Fermi Surface thickness =   6.000000 eV

     Golden Rule strictly enforced with T =   0.172347 eV
     Gaussian Broadening:   1.000000 eV, ngauss=   1
     DOS =  0.295677 states/spin/eV/Unit Cell at Ef= 11.759000 eV

     ismear =     1 iq =       1 coord.:   0.00000  0.00000  0.00000 wt:   0.00463
     -------------------------------------------------------------------
     lambda(   1 )=       0.000000   gamma=       0.000000 meV   omega=      0.0000 meV
     lambda(   2 )=       0.000000   gamma=       0.000000 meV   omega=      0.0000 meV
     lambda(   3 )=       0.000000   gamma=       0.000000 meV   omega=      0.0000 meV
     lambda( tot )=       0.000000
     -------------------------------------------------------------------


     Number of (k,k+q) pairs on the Fermi surface:      215 out of      216


     ===================================================================
     Electron (Imaginary) Self-Energy in the Migdal Approximation
     ===================================================================


     Fermi Surface thickness =   6.000000 eV

     Golden Rule strictly enforced with T =   0.172347 eV
     Gaussian Broadening:   1.000000 eV, ngauss=   1
     DOS =  0.295677 states/spin/eV/Unit Cell at Ef= 11.759000 eV
 

     ismear =     1 iq =       2 coord.:   0.00000  0.00000  0.16667 wt:   0.00463
     -------------------------------------------------------------------
     lambda(   1 )=       0.000000   gamma=       0.000000 meV   omega=     -3.4594 meV
     lambda(   2 )=       0.000000   gamma=       0.000000 meV   omega=     -1.6973 meV
     lambda(   3 )=       0.000000   gamma=       0.000000 meV   omega=     -1.6973 meV
     lambda( tot )=       0.000000
     -------------------------------------------------------------------


     Number of (k,k+q) pairs on the Fermi surface:      214 out of      216


     ismear =     1 iq =       3 coord.:   0.00000  0.00000  0.33333 wt:   0.00463
     -------------------------------------------------------------------
     lambda(   1 )=       0.000000   gamma=       0.000000 meV   omega=     -3.3774 meV
     lambda(   2 )=       0.210996   gamma=       0.001658 meV   omega=      2.9082 meV
     lambda(   3 )=       0.211002   gamma=       0.001658 meV   omega=      2.9082 meV
     lambda( tot )=       0.421999
     -------------------------------------------------------------------


     Number of (k,k+q) pairs on the Fermi surface:      214 out of      216


     ismear =     1 iq =       4 coord.:   0.00000  0.00000  0.50000 wt:   0.00463
     -------------------------------------------------------------------
     lambda(   1 )=      57.478680   gamma=       0.059871 meV   omega=      1.0589 meV
     lambda(   2 )=      -0.337028   gamma=      -0.007099 meV   omega=      4.7620 meV
     lambda(   3 )=      -0.337028   gamma=      -0.007099 meV   omega=      4.7620 meV
     lambda( tot )=      56.804623
     -------------------------------------------------------------------


     Number of (k,k+q) pairs on the Fermi surface:      214 out of      216


     ismear =     1 iq =       5 coord.:   0.00000  0.00000  0.66667 wt:   0.00463
     -------------------------------------------------------------------
     lambda(   1 )=       0.000000   gamma=       0.000000 meV   omega=     -3.3774 meV
     lambda(   2 )=       0.211002   gamma=       0.001658 meV   omega=      2.9082 meV
     lambda(   3 )=       0.210996   gamma=       0.001658 meV   omega=      2.9082 meV
     lambda( tot )=       0.421998
     -------------------------------------------------------------------


     Number of (k,k+q) pairs on the Fermi surface:      214 out of      216


     ismear =     1 iq =       6 coord.:   0.00000  0.00000  0.83333 wt:   0.00463
     -------------------------------------------------------------------
     lambda(   1 )=       0.000000   gamma=       0.000000 meV   omega=     -3.4594 meV
     lambda(   2 )=       0.000000   gamma=       0.000000 meV   omega=     -1.6973 meV
     lambda(   3 )=       0.000000   gamma=       0.000000 meV   omega=     -1.6973 meV
     lambda( tot )=       0.000000
     -------------------------------------------------------------------


     Number of (k,k+q) pairs on the Fermi surface:      214 out of      216


     ismear =     1 iq =       7 coord.:   0.00000  0.16667  0.00000 wt:   0.00463
     -------------------------------------------------------------------
     lambda(   1 )=       0.000000   gamma=       0.000000 meV   omega=     -3.4594 meV
     lambda(   2 )=       0.000000   gamma=       0.000000 meV   omega=     -1.6973 meV
     lambda(   3 )=       0.000000   gamma=       0.000000 meV   omega=     -1.6973 meV
     lambda( tot )=       0.000000
     -------------------------------------------------------------------


     Number of (k,k+q) pairs on the Fermi surface:      214 out of      216


     ismear =     1 iq =       8 coord.:   0.00000  0.16667  0.16667 wt:   0.00463
     -------------------------------------------------------------------
     lambda(   1 )=       0.000000   gamma=       0.000000 meV   omega=     -4.7010 meV
     lambda(   2 )=       0.000000   gamma=       0.000000 meV   omega=     -4.7010 meV
     lambda(   3 )=       1.431284   gamma=       0.027897 meV   omega=      4.5807 meV
     lambda( tot )=       1.431284
     -------------------------------------------------------------------


     Number of (k,k+q) pairs on the Fermi surface:      214 out of      216


     ismear =     1 iq =       9 coord.:   0.00000  0.16667  0.33333 wt:   0.00463
     -------------------------------------------------------------------
     lambda(   1 )=       0.000000   gamma=       0.000000 meV   omega=     -4.7036 meV
     lambda(   2 )=       0.000000   gamma=       0.000000 meV   omega=     -4.2536 meV
     lambda(   3 )=      -0.074401   gamma=      -0.002572 meV   omega=      6.1000 meV
     lambda( tot )=      -0.074401
     -------------------------------------------------------------------


     Number of (k,k+q) pairs on the Fermi surface:      214 out of      216


     ismear =     1 iq =      10 coord.:   0.00000  0.16667  0.50000 wt:   0.00463
     -------------------------------------------------------------------
     lambda(   1 )=      -0.849110   gamma=      -0.006870 meV   omega=      2.9513 meV
     lambda(   2 )=       0.073330   gamma=       0.000902 meV   omega=      3.6393 meV
     lambda(   3 )=      -0.412050   gamma=      -0.015258 meV   omega=      6.3139 meV
     lambda( tot )=      -1.187831
     -------------------------------------------------------------------


     Number of (k,k+q) pairs on the Fermi surface:      214 out of      216


     ismear =     1 iq =      11 coord.:   0.00000  0.16667  0.66667 wt:   0.00463
     -------------------------------------------------------------------
     lambda(   1 )=     -26.371808   gamma=      -0.088620 meV   omega=      1.9020 meV
     lambda(   2 )=       0.987201   gamma=       0.018934 meV   omega=      4.5440 meV
     lambda(   3 )=       1.016853   gamma=       0.022174 meV   omega=      4.8452 meV
     lambda( tot )=     -24.367753
     -------------------------------------------------------------------


     Number of (k,k+q) pairs on the Fermi surface:      214 out of      216


     ismear =     1 iq =      12 coord.:   0.00000  0.16667  0.83333 wt:   0.00463
     -------------------------------------------------------------------
     lambda(   1 )=       0.000000   gamma=       0.000000 meV   omega=     -4.8512 meV
     lambda(   2 )=      -8.930903   gamma=      -0.004806 meV   omega=      0.7611 meV
     lambda(   3 )=       0.047002   gamma=       0.000496 meV   omega=      3.3700 meV
     lambda( tot )=      -8.883900
     -------------------------------------------------------------------


     Number of (k,k+q) pairs on the Fermi surface:      214 out of      216


     ismear =     1 iq =      13 coord.:   0.00000  0.33333  0.00000 wt:   0.00463
     -------------------------------------------------------------------
     lambda(   1 )=       0.000000   gamma=       0.000000 meV   omega=     -3.3774 meV
     lambda(   2 )=       0.211000   gamma=       0.001658 meV   omega=      2.9082 meV
     lambda(   3 )=       0.210999   gamma=       0.001658 meV   omega=      2.9082 meV
     lambda( tot )=       0.421999
     -------------------------------------------------------------------


     Number of (k,k+q) pairs on the Fermi surface:      214 out of      216


     ismear =     1 iq =      14 coord.:   0.00000  0.33333  0.16667 wt:   0.00463
     -------------------------------------------------------------------
     lambda(   1 )=       0.000000   gamma=       0.000000 meV   omega=     -4.7036 meV
     lambda(   2 )=       0.000000   gamma=       0.000000 meV   omega=     -4.2536 meV
     lambda(   3 )=      -0.074396   gamma=      -0.002571 meV   omega=      6.1000 meV
     lambda( tot )=      -0.074396
     -------------------------------------------------------------------


     Number of (k,k+q) pairs on the Fermi surface:      214 out of      216


     ismear =     1 iq =      15 coord.:   0.00000  0.33333  0.33333 wt:   0.00463
     -------------------------------------------------------------------
     lambda(   1 )=       0.000000   gamma=       0.000000 meV   omega=     -5.3621 meV
     lambda(   2 )=       0.000000   gamma=       0.000000 meV   omega=     -5.3621 meV
     lambda(   3 )=       0.097137   gamma=       0.006194 meV   omega=      8.2855 meV
     lambda( tot )=       0.097137
     -------------------------------------------------------------------


     Number of (k,k+q) pairs on the Fermi surface:      214 out of      216


     ismear =     1 iq =      16 coord.:   0.00000  0.33333  0.50000 wt:   0.00463
     -------------------------------------------------------------------
     lambda(   1 )=       0.000000   gamma=       0.000000 meV   omega=     -2.1788 meV
     lambda(   2 )=       0.000000   gamma=       0.000000 meV   omega=     -0.9758 meV
     lambda(   3 )=       0.026954   gamma=       0.001969 meV   omega=      8.8681 meV
     lambda( tot )=       0.026954
     -------------------------------------------------------------------


     Number of (k,k+q) pairs on the Fermi surface:      214 out of      216


     ismear =     1 iq =      17 coord.:   0.00000  0.33333  0.66667 wt:   0.00463
     -------------------------------------------------------------------
     lambda(   1 )=       0.219263   gamma=       0.004263 meV   omega=      4.5750 meV
     lambda(   2 )=       0.058570   gamma=       0.001625 meV   omega=      5.4657 meV
     lambda(   3 )=       0.130990   gamma=       0.006111 meV   omega=      7.0866 meV
     lambda( tot )=       0.408823
     -------------------------------------------------------------------


     Number of (k,k+q) pairs on the Fermi surface:      214 out of      216


     ismear =     1 iq =      18 coord.:   0.00000  0.33333  0.83333 wt:   0.00463
     -------------------------------------------------------------------
     lambda(   1 )=     -26.371748   gamma=      -0.088620 meV   omega=      1.9020 meV
     lambda(   2 )=       0.987208   gamma=       0.018934 meV   omega=      4.5440 meV
     lambda(   3 )=       1.016870   gamma=       0.022175 meV   omega=      4.8452 meV
     lambda( tot )=     -24.367669
     -------------------------------------------------------------------


     Number of (k,k+q) pairs on the Fermi surface:      214 out of      216


     ismear =     1 iq =      19 coord.:   0.00000  0.50000  0.00000 wt:   0.00463
     -------------------------------------------------------------------
     lambda(   1 )=      57.478617   gamma=       0.059871 meV   omega=      1.0589 meV
     lambda(   2 )=      -0.337029   gamma=      -0.007099 meV   omega=      4.7620 meV
     lambda(   3 )=      -0.337030   gamma=      -0.007099 meV   omega=      4.7620 meV
     lambda( tot )=      56.804559
     -------------------------------------------------------------------


     Number of (k,k+q) pairs on the Fermi surface:      214 out of      216


     ismear =     1 iq =      20 coord.:   0.00000  0.50000  0.16667 wt:   0.00463
     -------------------------------------------------------------------
     lambda(   1 )=      -0.849109   gamma=      -0.006870 meV   omega=      2.9513 meV
     lambda(   2 )=       0.073319   gamma=       0.000902 meV   omega=      3.6393 meV
     lambda(   3 )=      -0.412049   gamma=      -0.015258 meV   omega=      6.3139 meV
     lambda( tot )=      -1.187839
     -------------------------------------------------------------------


     Number of (k,k+q) pairs on the Fermi surface:      214 out of      216


     ismear =     1 iq =      21 coord.:   0.00000  0.50000  0.33333 wt:   0.00463
     -------------------------------------------------------------------
     lambda(   1 )=       0.000000   gamma=       0.000000 meV   omega=     -2.1788 meV
     lambda(   2 )=       0.000000   gamma=       0.000000 meV   omega=     -0.9758 meV
     lambda(   3 )=       0.026955   gamma=       0.001969 meV   omega=      8.8681 meV
     lambda( tot )=       0.026955
     -------------------------------------------------------------------


     Number of (k,k+q) pairs on the Fermi surface:      214 out of      216


     ismear =     1 iq =      22 coord.:   0.00000  0.50000  0.50000 wt:   0.00463
     -------------------------------------------------------------------
     lambda(   1 )=       0.000000   gamma=       0.000000 meV   omega=     -3.6477 meV
     lambda(   2 )=       0.000000   gamma=       0.000000 meV   omega=     -3.6477 meV
     lambda(   3 )=       0.440138   gamma=       0.038977 meV   omega=      9.7640 meV
     lambda( tot )=       0.440138
     -------------------------------------------------------------------


     Number of (k,k+q) pairs on the Fermi surface:      214 out of      216


     ismear =     1 iq =      23 coord.:   0.00000  0.50000  0.66667 wt:   0.00463
     -------------------------------------------------------------------
     lambda(   1 )=       0.000000   gamma=       0.000000 meV   omega=     -2.1788 meV
     lambda(   2 )=       0.000000   gamma=       0.000000 meV   omega=     -0.9758 meV
     lambda(   3 )=       0.026958   gamma=       0.001969 meV   omega=      8.8681 meV
     lambda( tot )=       0.026958
     -------------------------------------------------------------------


     Number of (k,k+q) pairs on the Fermi surface:      214 out of      216


     ismear =     1 iq =      24 coord.:   0.00000  0.50000  0.83333 wt:   0.00463
     -------------------------------------------------------------------
     lambda(   1 )=      -0.849078   gamma=      -0.006870 meV   omega=      2.9513 meV
     lambda(   2 )=       0.073323   gamma=       0.000902 meV   omega=      3.6393 meV
     lambda(   3 )=      -0.412037   gamma=      -0.015258 meV   omega=      6.3139 meV
     lambda( tot )=      -1.187793
     -------------------------------------------------------------------


     Number of (k,k+q) pairs on the Fermi surface:      214 out of      216


     ismear =     1 iq =      25 coord.:   0.00000  0.66667  0.00000 wt:   0.00463
     -------------------------------------------------------------------
     lambda(   1 )=       0.000000   gamma=       0.000000 meV   omega=     -3.3774 meV
     lambda(   2 )=       0.211001   gamma=       0.001658 meV   omega=      2.9082 meV
     lambda(   3 )=       0.210997   gamma=       0.001658 meV   omega=      2.9082 meV
     lambda( tot )=       0.421998
     -------------------------------------------------------------------


     Number of (k,k+q) pairs on the Fermi surface:      214 out of      216


     ismear =     1 iq =      26 coord.:   0.00000  0.66667  0.16667 wt:   0.00463
     -------------------------------------------------------------------
     lambda(   1 )=     -26.371789   gamma=      -0.088620 meV   omega=      1.9020 meV
     lambda(   2 )=       0.987201   gamma=       0.018934 meV   omega=      4.5440 meV
     lambda(   3 )=       1.016854   gamma=       0.022174 meV   omega=      4.8452 meV
     lambda( tot )=     -24.367734
     -------------------------------------------------------------------


     Number of (k,k+q) pairs on the Fermi surface:      214 out of      216


     ismear =     1 iq =      27 coord.:   0.00000  0.66667  0.33333 wt:   0.00463
     -------------------------------------------------------------------
     lambda(   1 )=       0.219263   gamma=       0.004263 meV   omega=      4.5750 meV
     lambda(   2 )=       0.058570   gamma=       0.001625 meV   omega=      5.4657 meV
     lambda(   3 )=       0.130990   gamma=       0.006111 meV   omega=      7.0866 meV
     lambda( tot )=       0.408823
     -------------------------------------------------------------------


     Number of (k,k+q) pairs on the Fermi surface:      214 out of      216


     ismear =     1 iq =      28 coord.:   0.00000  0.66667  0.50000 wt:   0.00463
     -------------------------------------------------------------------
     lambda(   1 )=       0.000000   gamma=       0.000000 meV   omega=     -2.1788 meV
     lambda(   2 )=       0.000000   gamma=       0.000000 meV   omega=     -0.9758 meV
     lambda(   3 )=       0.026958   gamma=       0.001969 meV   omega=      8.8681 meV
     lambda( tot )=       0.026958
     -------------------------------------------------------------------


     Number of (k,k+q) pairs on the Fermi surface:      214 out of      216


     ismear =     1 iq =      29 coord.:   0.00000  0.66667  0.66667 wt:   0.00463
     -------------------------------------------------------------------
     lambda(   1 )=       0.000000   gamma=       0.000000 meV   omega=     -5.3621 meV
     lambda(   2 )=       0.000000   gamma=       0.000000 meV   omega=     -5.3621 meV
     lambda(   3 )=       0.097136   gamma=       0.006194 meV   omega=      8.2855 meV
     lambda( tot )=       0.097136
     -------------------------------------------------------------------


     Number of (k,k+q) pairs on the Fermi surface:      214 out of      216


     ismear =     1 iq =      30 coord.:   0.00000  0.66667  0.83333 wt:   0.00463
     -------------------------------------------------------------------
     lambda(   1 )=       0.000000   gamma=       0.000000 meV   omega=     -4.7036 meV
     lambda(   2 )=       0.000000   gamma=       0.000000 meV   omega=     -4.2536 meV
     lambda(   3 )=      -0.074398   gamma=      -0.002572 meV   omega=      6.1000 meV
     lambda( tot )=      -0.074398
     -------------------------------------------------------------------


     Number of (k,k+q) pairs on the Fermi surface:      214 out of      216


     ismear =     1 iq =      31 coord.:   0.00000  0.83333  0.00000 wt:   0.00463
     -------------------------------------------------------------------
     lambda(   1 )=       0.000000   gamma=       0.000000 meV   omega=     -3.4594 meV
     lambda(   2 )=       0.000000   gamma=       0.000000 meV   omega=     -1.6973 meV
     lambda(   3 )=       0.000000   gamma=       0.000000 meV   omega=     -1.6973 meV
     lambda( tot )=       0.000000
     -------------------------------------------------------------------


     Number of (k,k+q) pairs on the Fermi surface:      214 out of      216


     ismear =     1 iq =      32 coord.:   0.00000  0.83333  0.16667 wt:   0.00463
     -------------------------------------------------------------------
     lambda(   1 )=       0.000000   gamma=       0.000000 meV   omega=     -4.8512 meV
     lambda(   2 )=      -8.931089   gamma=      -0.004806 meV   omega=      0.7611 meV
     lambda(   3 )=       0.046997   gamma=       0.000496 meV   omega=      3.3700 meV
     lambda( tot )=      -8.884092
     -------------------------------------------------------------------


     Number of (k,k+q) pairs on the Fermi surface:      214 out of      216


     ismear =     1 iq =      33 coord.:   0.00000  0.83333  0.33333 wt:   0.00463
     -------------------------------------------------------------------
     lambda(   1 )=     -26.371689   gamma=      -0.088619 meV   omega=      1.9020 meV
     lambda(   2 )=       0.987208   gamma=       0.018934 meV   omega=      4.5440 meV
     lambda(   3 )=       1.016870   gamma=       0.022175 meV   omega=      4.8452 meV
     lambda( tot )=     -24.367611
     -------------------------------------------------------------------


     Number of (k,k+q) pairs on the Fermi surface:      214 out of      216


     ismear =     1 iq =      34 coord.:   0.00000  0.83333  0.50000 wt:   0.00463
     -------------------------------------------------------------------
     lambda(   1 )=      -0.849084   gamma=      -0.006870 meV   omega=      2.9513 meV
     lambda(   2 )=       0.073338   gamma=       0.000902 meV   omega=      3.6393 meV
     lambda(   3 )=      -0.412037   gamma=      -0.015258 meV   omega=      6.3139 meV
     lambda( tot )=      -1.187783
     -------------------------------------------------------------------


     Number of (k,k+q) pairs on the Fermi surface:      214 out of      216


     ismear =     1 iq =      35 coord.:   0.00000  0.83333  0.66667 wt:   0.00463
     -------------------------------------------------------------------
     lambda(   1 )=       0.000000   gamma=       0.000000 meV   omega=     -4.7036 meV
     lambda(   2 )=       0.000000   gamma=       0.000000 meV   omega=     -4.2536 meV
     lambda(   3 )=      -0.074398   gamma=      -0.002572 meV   omega=      6.1000 meV
     lambda( tot )=      -0.074398
     -------------------------------------------------------------------


     Number of (k,k+q) pairs on the Fermi surface:      214 out of      216


     ismear =     1 iq =      36 coord.:   0.00000  0.83333  0.83333 wt:   0.00463
     -------------------------------------------------------------------
     lambda(   1 )=       0.000000   gamma=       0.000000 meV   omega=     -4.7010 meV
     lambda(   2 )=       0.000000   gamma=       0.000000 meV   omega=     -4.7010 meV
     lambda(   3 )=       1.431279   gamma=       0.027897 meV   omega=      4.5807 meV
     lambda( tot )=       1.431279
     -------------------------------------------------------------------


     Number of (k,k+q) pairs on the Fermi surface:      214 out of      216


     ismear =     1 iq =      37 coord.:   0.16667  0.00000  0.00000 wt:   0.00463
     -------------------------------------------------------------------
     lambda(   1 )=       0.000000   gamma=       0.000000 meV   omega=     -3.4594 meV
     lambda(   2 )=       0.000000   gamma=       0.000000 meV   omega=     -1.6973 meV
     lambda(   3 )=       0.000000   gamma=       0.000000 meV   omega=     -1.6973 meV
     lambda( tot )=       0.000000
     -------------------------------------------------------------------


     Number of (k,k+q) pairs on the Fermi surface:      214 out of      216


     ismear =     1 iq =      38 coord.:   0.16667  0.00000  0.16667 wt:   0.00463
     -------------------------------------------------------------------
     lambda(   1 )=       0.000000   gamma=       0.000000 meV   omega=     -4.7010 meV
     lambda(   2 )=       0.000000   gamma=       0.000000 meV   omega=     -4.7010 meV
     lambda(   3 )=       1.431281   gamma=       0.027897 meV   omega=      4.5807 meV
     lambda( tot )=       1.431281
     -------------------------------------------------------------------


     Number of (k,k+q) pairs on the Fermi surface:      214 out of      216


     ismear =     1 iq =      39 coord.:   0.16667  0.00000  0.33333 wt:   0.00463
     -------------------------------------------------------------------
     lambda(   1 )=       0.000000   gamma=       0.000000 meV   omega=     -4.7036 meV
     lambda(   2 )=       0.000000   gamma=       0.000000 meV   omega=     -4.2536 meV
     lambda(   3 )=      -0.074402   gamma=      -0.002572 meV   omega=      6.1000 meV
     lambda( tot )=      -0.074402
     -------------------------------------------------------------------


     Number of (k,k+q) pairs on the Fermi surface:      214 out of      216


     ismear =     1 iq =      40 coord.:   0.16667  0.00000  0.50000 wt:   0.00463
     -------------------------------------------------------------------
     lambda(   1 )=      -0.849113   gamma=      -0.006870 meV   omega=      2.9513 meV
     lambda(   2 )=       0.073338   gamma=       0.000902 meV   omega=      3.6393 meV
     lambda(   3 )=      -0.412051   gamma=      -0.015258 meV   omega=      6.3139 meV
     lambda( tot )=      -1.187827
     -------------------------------------------------------------------


     Number of (k,k+q) pairs on the Fermi surface:      214 out of      216


     ismear =     1 iq =      41 coord.:   0.16667  0.00000  0.66667 wt:   0.00463
     -------------------------------------------------------------------
     lambda(   1 )=     -26.371767   gamma=      -0.088620 meV   omega=      1.9020 meV
     lambda(   2 )=       0.987205   gamma=       0.018934 meV   omega=      4.5440 meV
     lambda(   3 )=       1.016854   gamma=       0.022174 meV   omega=      4.8452 meV
     lambda( tot )=     -24.367708
     -------------------------------------------------------------------


     Number of (k,k+q) pairs on the Fermi surface:      214 out of      216


     ismear =     1 iq =      42 coord.:   0.16667  0.00000  0.83333 wt:   0.00463
     -------------------------------------------------------------------
     lambda(   1 )=       0.000000   gamma=       0.000000 meV   omega=     -4.8512 meV
     lambda(   2 )=      -8.930854   gamma=      -0.004806 meV   omega=      0.7611 meV
     lambda(   3 )=       0.047014   gamma=       0.000496 meV   omega=      3.3700 meV
     lambda( tot )=      -8.883840
     -------------------------------------------------------------------


     Number of (k,k+q) pairs on the Fermi surface:      214 out of      216


     ismear =     1 iq =      43 coord.:   0.16667  0.16667  0.00000 wt:   0.00463
     -------------------------------------------------------------------
     lambda(   1 )=       0.000000   gamma=       0.000000 meV   omega=     -4.7010 meV
     lambda(   2 )=       0.000000   gamma=       0.000000 meV   omega=     -4.7010 meV
     lambda(   3 )=       1.431283   gamma=       0.027897 meV   omega=      4.5807 meV
     lambda( tot )=       1.431283
     -------------------------------------------------------------------


     Number of (k,k+q) pairs on the Fermi surface:      214 out of      216


     ismear =     1 iq =      44 coord.:   0.16667  0.16667  0.16667 wt:   0.00463
     -------------------------------------------------------------------
     lambda(   1 )=       0.000000   gamma=       0.000000 meV   omega=     -3.4594 meV
     lambda(   2 )=       0.000000   gamma=       0.000000 meV   omega=     -1.6973 meV
     lambda(   3 )=       0.000000   gamma=       0.000000 meV   omega=     -1.6973 meV
     lambda( tot )=       0.000000
     -------------------------------------------------------------------


     Number of (k,k+q) pairs on the Fermi surface:      214 out of      216


     ismear =     1 iq =      45 coord.:   0.16667  0.16667  0.33333 wt:   0.00463
     -------------------------------------------------------------------
     lambda(   1 )=       0.000000   gamma=       0.000000 meV   omega=     -4.8512 meV
     lambda(   2 )=      -8.930838   gamma=      -0.004806 meV   omega=      0.7611 meV
     lambda(   3 )=       0.047000   gamma=       0.000496 meV   omega=      3.3700 meV
     lambda( tot )=      -8.883839
     -------------------------------------------------------------------


     Number of (k,k+q) pairs on the Fermi surface:      214 out of      216


     ismear =     1 iq =      46 coord.:   0.16667  0.16667  0.50000 wt:   0.00463
     -------------------------------------------------------------------
     lambda(   1 )=     -26.371970   gamma=      -0.088620 meV   omega=      1.9020 meV
     lambda(   2 )=       0.987197   gamma=       0.018934 meV   omega=      4.5440 meV
     lambda(   3 )=       1.016832   gamma=       0.022174 meV   omega=      4.8452 meV
     lambda( tot )=     -24.367941
     -------------------------------------------------------------------


     Number of (k,k+q) pairs on the Fermi surface:      214 out of      216


     ismear =     1 iq =      47 coord.:   0.16667  0.16667  0.66667 wt:   0.00463
     -------------------------------------------------------------------
     lambda(   1 )=      -0.849139   gamma=      -0.006870 meV   omega=      2.9513 meV
     lambda(   2 )=       0.073320   gamma=       0.000902 meV   omega=      3.6393 meV
     lambda(   3 )=      -0.412057   gamma=      -0.015259 meV   omega=      6.3139 meV
     lambda( tot )=      -1.187876
     -------------------------------------------------------------------


     Number of (k,k+q) pairs on the Fermi surface:      214 out of      216


     ismear =     1 iq =      48 coord.:   0.16667  0.16667  0.83333 wt:   0.00463
     -------------------------------------------------------------------
     lambda(   1 )=       0.000000   gamma=       0.000000 meV   omega=     -4.7036 meV
     lambda(   2 )=       0.000000   gamma=       0.000000 meV   omega=     -4.2536 meV
     lambda(   3 )=      -0.074406   gamma=      -0.002572 meV   omega=      6.1000 meV
     lambda( tot )=      -0.074406
     -------------------------------------------------------------------


     Number of (k,k+q) pairs on the Fermi surface:      214 out of      216


     ismear =     1 iq =      49 coord.:   0.16667  0.33333  0.00000 wt:   0.00463
     -------------------------------------------------------------------
     lambda(   1 )=       0.000000   gamma=       0.000000 meV   omega=     -4.7036 meV
     lambda(   2 )=       0.000000   gamma=       0.000000 meV   omega=     -4.2536 meV
     lambda(   3 )=      -0.074396   gamma=      -0.002571 meV   omega=      6.1000 meV
     lambda( tot )=      -0.074396
     -------------------------------------------------------------------


     Number of (k,k+q) pairs on the Fermi surface:      214 out of      216


     ismear =     1 iq =      50 coord.:   0.16667  0.33333  0.16667 wt:   0.00463
     -------------------------------------------------------------------
     lambda(   1 )=       0.000000   gamma=       0.000000 meV   omega=     -4.8512 meV
     lambda(   2 )=      -8.930939   gamma=      -0.004806 meV   omega=      0.7611 meV
     lambda(   3 )=       0.047020   gamma=       0.000496 meV   omega=      3.3700 meV
     lambda( tot )=      -8.883919
     -------------------------------------------------------------------


     Number of (k,k+q) pairs on the Fermi surface:      214 out of      216


     ismear =     1 iq =      51 coord.:   0.16667  0.33333  0.33333 wt:   0.00463
     -------------------------------------------------------------------
     lambda(   1 )=       0.000000   gamma=       0.000000 meV   omega=     -4.7036 meV
     lambda(   2 )=       0.000000   gamma=       0.000000 meV   omega=     -4.2536 meV
     lambda(   3 )=      -0.074399   gamma=      -0.002572 meV   omega=      6.1000 meV
     lambda( tot )=      -0.074399
     -------------------------------------------------------------------


     Number of (k,k+q) pairs on the Fermi surface:      214 out of      216


     ismear =     1 iq =      52 coord.:   0.16667  0.33333  0.50000 wt:   0.00463
     -------------------------------------------------------------------
     lambda(   1 )=       0.000000   gamma=       0.000000 meV   omega=     -1.3784 meV
     lambda(   2 )=     129.328968   gamma=       0.052595 meV   omega=      0.6617 meV
     lambda(   3 )=      -0.057448   gamma=      -0.002923 meV   omega=      7.4004 meV
     lambda( tot )=     129.271520
     -------------------------------------------------------------------


     Number of (k,k+q) pairs on the Fermi surface:      214 out of      216


     ismear =     1 iq =      53 coord.:   0.16667  0.33333  0.66667 wt:   0.00463
     -------------------------------------------------------------------
     lambda(   1 )=      -2.112873   gamma=      -0.033315 meV   omega=      4.1200 meV
     lambda(   2 )=      -0.079401   gamma=      -0.002973 meV   omega=      6.3487 meV
     lambda(   3 )=      -0.552891   gamma=      -0.022466 meV   omega=      6.6139 meV
     lambda( tot )=      -2.745165
     -------------------------------------------------------------------


     Number of (k,k+q) pairs on the Fermi surface:      214 out of      216


     ismear =     1 iq =      54 coord.:   0.16667  0.33333  0.83333 wt:   0.00463
     -------------------------------------------------------------------
     lambda(   1 )=       0.000000   gamma=       0.000000 meV   omega=     -1.3784 meV
     lambda(   2 )=     129.336463   gamma=       0.052598 meV   omega=      0.6617 meV
     lambda(   3 )=      -0.057450   gamma=      -0.002923 meV   omega=      7.4004 meV
     lambda( tot )=     129.279013
     -------------------------------------------------------------------


     Number of (k,k+q) pairs on the Fermi surface:      214 out of      216


     ismear =     1 iq =      55 coord.:   0.16667  0.50000  0.00000 wt:   0.00463
     -------------------------------------------------------------------
     lambda(   1 )=      -0.849074   gamma=      -0.006870 meV   omega=      2.9513 meV
     lambda(   2 )=       0.073329   gamma=       0.000902 meV   omega=      3.6393 meV
     lambda(   3 )=      -0.412040   gamma=      -0.015258 meV   omega=      6.3139 meV
     lambda( tot )=      -1.187785
     -------------------------------------------------------------------


     Number of (k,k+q) pairs on the Fermi surface:      214 out of      216


     ismear =     1 iq =      56 coord.:   0.16667  0.50000  0.16667 wt:   0.00463
     -------------------------------------------------------------------
     lambda(   1 )=     -26.371788   gamma=      -0.088620 meV   omega=      1.9020 meV
     lambda(   2 )=       0.987204   gamma=       0.018934 meV   omega=      4.5440 meV
     lambda(   3 )=       1.016872   gamma=       0.022175 meV   omega=      4.8452 meV
     lambda( tot )=     -24.367712
     -------------------------------------------------------------------


     Number of (k,k+q) pairs on the Fermi surface:      214 out of      216


     ismear =     1 iq =      57 coord.:   0.16667  0.50000  0.33333 wt:   0.00463
     -------------------------------------------------------------------
     lambda(   1 )=       0.000000   gamma=       0.000000 meV   omega=     -1.3784 meV
     lambda(   2 )=     129.328652   gamma=       0.052595 meV   omega=      0.6617 meV
     lambda(   3 )=      -0.057443   gamma=      -0.002922 meV   omega=      7.4004 meV
     lambda( tot )=     129.271209
     -------------------------------------------------------------------


     Number of (k,k+q) pairs on the Fermi surface:      214 out of      216


     ismear =     1 iq =      58 coord.:   0.16667  0.50000  0.50000 wt:   0.00463
     -------------------------------------------------------------------
     lambda(   1 )=       0.000000   gamma=       0.000000 meV   omega=     -2.1788 meV
     lambda(   2 )=       0.000000   gamma=       0.000000 meV   omega=     -0.9758 meV
     lambda(   3 )=       0.026956   gamma=       0.001969 meV   omega=      8.8681 meV
     lambda( tot )=       0.026956
     -------------------------------------------------------------------


     Number of (k,k+q) pairs on the Fermi surface:      214 out of      216


     ismear =     1 iq =      59 coord.:   0.16667  0.50000  0.66667 wt:   0.00463
     -------------------------------------------------------------------
     lambda(   1 )=       4.393133   gamma=       0.040521 meV   omega=      3.1511 meV
     lambda(   2 )=      -1.082792   gamma=      -0.021291 meV   omega=      4.6009 meV
     lambda(   3 )=      -0.416111   gamma=      -0.029178 meV   omega=      8.6884 meV
     lambda( tot )=       2.894230
     -------------------------------------------------------------------


     Number of (k,k+q) pairs on the Fermi surface:      214 out of      216


     ismear =     1 iq =      60 coord.:   0.16667  0.50000  0.83333 wt:   0.00463
     -------------------------------------------------------------------
     lambda(   1 )=      -2.112879   gamma=      -0.033315 meV   omega=      4.1200 meV
     lambda(   2 )=      -0.079401   gamma=      -0.002973 meV   omega=      6.3487 meV
     lambda(   3 )=      -0.552872   gamma=      -0.022465 meV   omega=      6.6139 meV
     lambda( tot )=      -2.745151
     -------------------------------------------------------------------


     Number of (k,k+q) pairs on the Fermi surface:      214 out of      216


     ismear =     1 iq =      61 coord.:   0.16667  0.66667  0.00000 wt:   0.00463
     -------------------------------------------------------------------
     lambda(   1 )=     -26.371711   gamma=      -0.088619 meV   omega=      1.9020 meV
     lambda(   2 )=       0.987205   gamma=       0.018934 meV   omega=      4.5440 meV
     lambda(   3 )=       1.016874   gamma=       0.022175 meV   omega=      4.8452 meV
     lambda( tot )=     -24.367633
     -------------------------------------------------------------------


     Number of (k,k+q) pairs on the Fermi surface:      214 out of      216


     ismear =     1 iq =      62 coord.:   0.16667  0.66667  0.16667 wt:   0.00463
     -------------------------------------------------------------------
     lambda(   1 )=      -0.849098   gamma=      -0.006870 meV   omega=      2.9513 meV
     lambda(   2 )=       0.073307   gamma=       0.000902 meV   omega=      3.6393 meV
     lambda(   3 )=      -0.412040   gamma=      -0.015258 meV   omega=      6.3139 meV
     lambda( tot )=      -1.187831
     -------------------------------------------------------------------


     Number of (k,k+q) pairs on the Fermi surface:      214 out of      216


     ismear =     1 iq =      63 coord.:   0.16667  0.66667  0.33333 wt:   0.00463
     -------------------------------------------------------------------
     lambda(   1 )=      -2.112883   gamma=      -0.033315 meV   omega=      4.1200 meV
     lambda(   2 )=      -0.079399   gamma=      -0.002973 meV   omega=      6.3487 meV
     lambda(   3 )=      -0.552881   gamma=      -0.022466 meV   omega=      6.6139 meV
     lambda( tot )=      -2.745163
     -------------------------------------------------------------------


     Number of (k,k+q) pairs on the Fermi surface:      214 out of      216


     ismear =     1 iq =      64 coord.:   0.16667  0.66667  0.50000 wt:   0.00463
     -------------------------------------------------------------------
     lambda(   1 )=       4.393144   gamma=       0.040521 meV   omega=      3.1511 meV
     lambda(   2 )=      -1.082798   gamma=      -0.021291 meV   omega=      4.6009 meV
     lambda(   3 )=      -0.416113   gamma=      -0.029178 meV   omega=      8.6884 meV
     lambda( tot )=       2.894233
     -------------------------------------------------------------------


     Number of (k,k+q) pairs on the Fermi surface:      214 out of      216


     ismear =     1 iq =      65 coord.:   0.16667  0.66667  0.66667 wt:   0.00463
     -------------------------------------------------------------------
     lambda(   1 )=       0.000000   gamma=       0.000000 meV   omega=     -2.1788 meV
     lambda(   2 )=       0.000000   gamma=       0.000000 meV   omega=     -0.9758 meV
     lambda(   3 )=       0.026959   gamma=       0.001969 meV   omega=      8.8681 meV
     lambda( tot )=       0.026959
     -------------------------------------------------------------------


     Number of (k,k+q) pairs on the Fermi surface:      214 out of      216


     ismear =     1 iq =      66 coord.:   0.16667  0.66667  0.83333 wt:   0.00463
     -------------------------------------------------------------------
     lambda(   1 )=       0.000000   gamma=       0.000000 meV   omega=     -1.3784 meV
     lambda(   2 )=     129.325325   gamma=       0.052593 meV   omega=      0.6617 meV
     lambda(   3 )=      -0.057445   gamma=      -0.002922 meV   omega=      7.4004 meV
     lambda( tot )=     129.267880
     -------------------------------------------------------------------


     Number of (k,k+q) pairs on the Fermi surface:      214 out of      216


     ismear =     1 iq =      67 coord.:   0.16667  0.83333  0.00000 wt:   0.00463
     -------------------------------------------------------------------
     lambda(   1 )=       0.000000   gamma=       0.000000 meV   omega=     -4.8512 meV
     lambda(   2 )=      -8.930959   gamma=      -0.004806 meV   omega=      0.7611 meV
     lambda(   3 )=       0.047036   gamma=       0.000496 meV   omega=      3.3700 meV
     lambda( tot )=      -8.883922
     -------------------------------------------------------------------


     Number of (k,k+q) pairs on the Fermi surface:      214 out of      216


     ismear =     1 iq =      68 coord.:   0.16667  0.83333  0.16667 wt:   0.00463
     -------------------------------------------------------------------
     lambda(   1 )=       0.000000   gamma=       0.000000 meV   omega=     -4.7036 meV
     lambda(   2 )=       0.000000   gamma=       0.000000 meV   omega=     -4.2536 meV
     lambda(   3 )=      -0.074400   gamma=      -0.002572 meV   omega=      6.1000 meV
     lambda( tot )=      -0.074400
     -------------------------------------------------------------------


     Number of (k,k+q) pairs on the Fermi surface:      214 out of      216


     ismear =     1 iq =      69 coord.:   0.16667  0.83333  0.33333 wt:   0.00463
     -------------------------------------------------------------------
     lambda(   1 )=       0.000000   gamma=       0.000000 meV   omega=     -1.3784 meV
     lambda(   2 )=     129.336129   gamma=       0.052598 meV   omega=      0.6617 meV
     lambda(   3 )=      -0.057451   gamma=      -0.002923 meV   omega=      7.4004 meV
     lambda( tot )=     129.278678
     -------------------------------------------------------------------


     Number of (k,k+q) pairs on the Fermi surface:      214 out of      216


     ismear =     1 iq =      70 coord.:   0.16667  0.83333  0.50000 wt:   0.00463
     -------------------------------------------------------------------
     lambda(   1 )=      -2.112869   gamma=      -0.033315 meV   omega=      4.1200 meV
     lambda(   2 )=      -0.079400   gamma=      -0.002973 meV   omega=      6.3487 meV
     lambda(   3 )=      -0.552875   gamma=      -0.022465 meV   omega=      6.6139 meV
     lambda( tot )=      -2.745145
     -------------------------------------------------------------------


     Number of (k,k+q) pairs on the Fermi surface:      214 out of      216


     ismear =     1 iq =      71 coord.:   0.16667  0.83333  0.66667 wt:   0.00463
     -------------------------------------------------------------------
     lambda(   1 )=       0.000000   gamma=       0.000000 meV   omega=     -1.3784 meV
     lambda(   2 )=     129.325735   gamma=       0.052593 meV   omega=      0.6617 meV
     lambda(   3 )=      -0.057447   gamma=      -0.002922 meV   omega=      7.4004 meV
     lambda( tot )=     129.268288
     -------------------------------------------------------------------


     Number of (k,k+q) pairs on the Fermi surface:      214 out of      216


     ismear =     1 iq =      72 coord.:   0.16667  0.83333  0.83333 wt:   0.00463
     -------------------------------------------------------------------
     lambda(   1 )=       0.000000   gamma=       0.000000 meV   omega=     -4.7036 meV
     lambda(   2 )=       0.000000   gamma=       0.000000 meV   omega=     -4.2536 meV
     lambda(   3 )=      -0.074397   gamma=      -0.002572 meV   omega=      6.1000 meV
     lambda( tot )=      -0.074397
     -------------------------------------------------------------------


     Number of (k,k+q) pairs on the Fermi surface:      214 out of      216


     ismear =     1 iq =      73 coord.:   0.33333  0.00000  0.00000 wt:   0.00463
     -------------------------------------------------------------------
     lambda(   1 )=       0.000000   gamma=       0.000000 meV   omega=     -3.3774 meV
     lambda(   2 )=       0.210998   gamma=       0.001658 meV   omega=      2.9082 meV
     lambda(   3 )=       0.211001   gamma=       0.001658 meV   omega=      2.9082 meV
     lambda( tot )=       0.421999
     -------------------------------------------------------------------


     Number of (k,k+q) pairs on the Fermi surface:      214 out of      216


     ismear =     1 iq =      74 coord.:   0.33333  0.00000  0.16667 wt:   0.00463
     -------------------------------------------------------------------
     lambda(   1 )=       0.000000   gamma=       0.000000 meV   omega=     -4.7036 meV
     lambda(   2 )=       0.000000   gamma=       0.000000 meV   omega=     -4.2536 meV
     lambda(   3 )=      -0.074398   gamma=      -0.002572 meV   omega=      6.1000 meV
     lambda( tot )=      -0.074398
     -------------------------------------------------------------------


     Number of (k,k+q) pairs on the Fermi surface:      214 out of      216


     ismear =     1 iq =      75 coord.:   0.33333  0.00000  0.33333 wt:   0.00463
     -------------------------------------------------------------------
     lambda(   1 )=       0.000000   gamma=       0.000000 meV   omega=     -5.3621 meV
     lambda(   2 )=       0.000000   gamma=       0.000000 meV   omega=     -5.3621 meV
     lambda(   3 )=       0.097137   gamma=       0.006194 meV   omega=      8.2855 meV
     lambda( tot )=       0.097137
     -------------------------------------------------------------------


     Number of (k,k+q) pairs on the Fermi surface:      214 out of      216


     ismear =     1 iq =      76 coord.:   0.33333  0.00000  0.50000 wt:   0.00463
     -------------------------------------------------------------------
     lambda(   1 )=       0.000000   gamma=       0.000000 meV   omega=     -2.1788 meV
     lambda(   2 )=       0.000000   gamma=       0.000000 meV   omega=     -0.9758 meV
     lambda(   3 )=       0.026954   gamma=       0.001969 meV   omega=      8.8681 meV
     lambda( tot )=       0.026954
     -------------------------------------------------------------------


     Number of (k,k+q) pairs on the Fermi surface:      214 out of      216


     ismear =     1 iq =      77 coord.:   0.33333  0.00000  0.66667 wt:   0.00463
     -------------------------------------------------------------------
     lambda(   1 )=       0.219263   gamma=       0.004263 meV   omega=      4.5750 meV
     lambda(   2 )=       0.058570   gamma=       0.001625 meV   omega=      5.4657 meV
     lambda(   3 )=       0.130990   gamma=       0.006111 meV   omega=      7.0866 meV
     lambda( tot )=       0.408822
     -------------------------------------------------------------------


     Number of (k,k+q) pairs on the Fermi surface:      214 out of      216


     ismear =     1 iq =      78 coord.:   0.33333  0.00000  0.83333 wt:   0.00463
     -------------------------------------------------------------------
     lambda(   1 )=     -26.371702   gamma=      -0.088619 meV   omega=      1.9020 meV
     lambda(   2 )=       0.987205   gamma=       0.018934 meV   omega=      4.5440 meV
     lambda(   3 )=       1.016874   gamma=       0.022175 meV   omega=      4.8452 meV
     lambda( tot )=     -24.367623
     -------------------------------------------------------------------


     Number of (k,k+q) pairs on the Fermi surface:      214 out of      216


     ismear =     1 iq =      79 coord.:   0.33333  0.16667  0.00000 wt:   0.00463
     -------------------------------------------------------------------
     lambda(   1 )=       0.000000   gamma=       0.000000 meV   omega=     -4.7036 meV
     lambda(   2 )=       0.000000   gamma=       0.000000 meV   omega=     -4.2536 meV
     lambda(   3 )=      -0.074397   gamma=      -0.002572 meV   omega=      6.1000 meV
     lambda( tot )=      -0.074397
     -------------------------------------------------------------------


     Number of (k,k+q) pairs on the Fermi surface:      214 out of      216


     ismear =     1 iq =      80 coord.:   0.33333  0.16667  0.16667 wt:   0.00463
     -------------------------------------------------------------------
     lambda(   1 )=       0.000000   gamma=       0.000000 meV   omega=     -4.8512 meV
     lambda(   2 )=      -8.931088   gamma=      -0.004806 meV   omega=      0.7611 meV
     lambda(   3 )=       0.047024   gamma=       0.000496 meV   omega=      3.3700 meV
     lambda( tot )=      -8.884064
     -------------------------------------------------------------------


     Number of (k,k+q) pairs on the Fermi surface:      214 out of      216


     ismear =     1 iq =      81 coord.:   0.33333  0.16667  0.33333 wt:   0.00463
     -------------------------------------------------------------------
     lambda(   1 )=       0.000000   gamma=       0.000000 meV   omega=     -4.7036 meV
     lambda(   2 )=       0.000000   gamma=       0.000000 meV   omega=     -4.2536 meV
     lambda(   3 )=      -0.074397   gamma=      -0.002572 meV   omega=      6.1000 meV
     lambda( tot )=      -0.074397
     -------------------------------------------------------------------


     Number of (k,k+q) pairs on the Fermi surface:      214 out of      216


     ismear =     1 iq =      82 coord.:   0.33333  0.16667  0.50000 wt:   0.00463
     -------------------------------------------------------------------
     lambda(   1 )=       0.000000   gamma=       0.000000 meV   omega=     -1.3784 meV
     lambda(   2 )=     129.327171   gamma=       0.052594 meV   omega=      0.6617 meV
     lambda(   3 )=      -0.057448   gamma=      -0.002923 meV   omega=      7.4004 meV
     lambda( tot )=     129.269723
     -------------------------------------------------------------------


     Number of (k,k+q) pairs on the Fermi surface:      214 out of      216


     ismear =     1 iq =      83 coord.:   0.33333  0.16667  0.66667 wt:   0.00463
     -------------------------------------------------------------------
     lambda(   1 )=      -2.112877   gamma=      -0.033315 meV   omega=      4.1200 meV
     lambda(   2 )=      -0.079400   gamma=      -0.002973 meV   omega=      6.3487 meV
     lambda(   3 )=      -0.552890   gamma=      -0.022466 meV   omega=      6.6139 meV
     lambda( tot )=      -2.745168
     -------------------------------------------------------------------


     Number of (k,k+q) pairs on the Fermi surface:      214 out of      216


     ismear =     1 iq =      84 coord.:   0.33333  0.16667  0.83333 wt:   0.00463
     -------------------------------------------------------------------
     lambda(   1 )=       0.000000   gamma=       0.000000 meV   omega=     -1.3784 meV
     lambda(   2 )=     129.336361   gamma=       0.052598 meV   omega=      0.6617 meV
     lambda(   3 )=      -0.057450   gamma=      -0.002923 meV   omega=      7.4004 meV
     lambda( tot )=     129.278910
     -------------------------------------------------------------------


     Number of (k,k+q) pairs on the Fermi surface:      214 out of      216


     ismear =     1 iq =      85 coord.:   0.33333  0.33333  0.00000 wt:   0.00463
     -------------------------------------------------------------------
     lambda(   1 )=       0.000000   gamma=       0.000000 meV   omega=     -5.3621 meV
     lambda(   2 )=       0.000000   gamma=       0.000000 meV   omega=     -5.3621 meV
     lambda(   3 )=       0.097136   gamma=       0.006194 meV   omega=      8.2855 meV
     lambda( tot )=       0.097136
     -------------------------------------------------------------------


     Number of (k,k+q) pairs on the Fermi surface:      214 out of      216


     ismear =     1 iq =      86 coord.:   0.33333  0.33333  0.16667 wt:   0.00463
     -------------------------------------------------------------------
     lambda(   1 )=       0.000000   gamma=       0.000000 meV   omega=     -4.7036 meV
     lambda(   2 )=       0.000000   gamma=       0.000000 meV   omega=     -4.2536 meV
     lambda(   3 )=      -0.074398   gamma=      -0.002572 meV   omega=      6.1000 meV
     lambda( tot )=      -0.074398
     -------------------------------------------------------------------


     Number of (k,k+q) pairs on the Fermi surface:      214 out of      216


     ismear =     1 iq =      87 coord.:   0.33333  0.33333  0.33333 wt:   0.00463
     -------------------------------------------------------------------
     lambda(   1 )=       0.000000   gamma=       0.000000 meV   omega=     -3.3774 meV
     lambda(   2 )=       0.210999   gamma=       0.001658 meV   omega=      2.9082 meV
     lambda(   3 )=       0.211000   gamma=       0.001658 meV   omega=      2.9082 meV
     lambda( tot )=       0.421999
     -------------------------------------------------------------------


     Number of (k,k+q) pairs on the Fermi surface:      214 out of      216


     ismear =     1 iq =      88 coord.:   0.33333  0.33333  0.50000 wt:   0.00463
     -------------------------------------------------------------------
     lambda(   1 )=     -26.371692   gamma=      -0.088619 meV   omega=      1.9020 meV
     lambda(   2 )=       0.987209   gamma=       0.018934 meV   omega=      4.5440 meV
     lambda(   3 )=       1.016871   gamma=       0.022175 meV   omega=      4.8452 meV
     lambda( tot )=     -24.367612
     -------------------------------------------------------------------


     Number of (k,k+q) pairs on the Fermi surface:      214 out of      216


     ismear =     1 iq =      89 coord.:   0.33333  0.33333  0.66667 wt:   0.00463
     -------------------------------------------------------------------
     lambda(   1 )=       0.219266   gamma=       0.004263 meV   omega=      4.5750 meV
     lambda(   2 )=       0.058571   gamma=       0.001625 meV   omega=      5.4657 meV
     lambda(   3 )=       0.130984   gamma=       0.006110 meV   omega=      7.0866 meV
     lambda( tot )=       0.408821
     -------------------------------------------------------------------


     Number of (k,k+q) pairs on the Fermi surface:      214 out of      216


     ismear =     1 iq =      90 coord.:   0.33333  0.33333  0.83333 wt:   0.00463
     -------------------------------------------------------------------
     lambda(   1 )=       0.000000   gamma=       0.000000 meV   omega=     -2.1788 meV
     lambda(   2 )=       0.000000   gamma=       0.000000 meV   omega=     -0.9758 meV
     lambda(   3 )=       0.026951   gamma=       0.001969 meV   omega=      8.8681 meV
     lambda( tot )=       0.026951
     -------------------------------------------------------------------


     Number of (k,k+q) pairs on the Fermi surface:      214 out of      216


     ismear =     1 iq =      91 coord.:   0.33333  0.50000  0.00000 wt:   0.00463
     -------------------------------------------------------------------
     lambda(   1 )=       0.000000   gamma=       0.000000 meV   omega=     -2.1788 meV
     lambda(   2 )=       0.000000   gamma=       0.000000 meV   omega=     -0.9758 meV
     lambda(   3 )=       0.026955   gamma=       0.001969 meV   omega=      8.8681 meV
     lambda( tot )=       0.026955
     -------------------------------------------------------------------


     Number of (k,k+q) pairs on the Fermi surface:      214 out of      216


     ismear =     1 iq =      92 coord.:   0.33333  0.50000  0.16667 wt:   0.00463
     -------------------------------------------------------------------
     lambda(   1 )=       0.000000   gamma=       0.000000 meV   omega=     -1.3784 meV
     lambda(   2 )=     129.328058   gamma=       0.052594 meV   omega=      0.6617 meV
     lambda(   3 )=      -0.057443   gamma=      -0.002922 meV   omega=      7.4004 meV
     lambda( tot )=     129.270615
     -------------------------------------------------------------------


     Number of (k,k+q) pairs on the Fermi surface:      214 out of      216


     ismear =     1 iq =      93 coord.:   0.33333  0.50000  0.33333 wt:   0.00463
     -------------------------------------------------------------------
     lambda(   1 )=     -26.371948   gamma=      -0.088620 meV   omega=      1.9020 meV
     lambda(   2 )=       0.987213   gamma=       0.018935 meV   omega=      4.5440 meV
     lambda(   3 )=       1.016852   gamma=       0.022174 meV   omega=      4.8452 meV
     lambda( tot )=     -24.367883
     -------------------------------------------------------------------


     Number of (k,k+q) pairs on the Fermi surface:      214 out of      216


     ismear =     1 iq =      94 coord.:   0.33333  0.50000  0.50000 wt:   0.00463
     -------------------------------------------------------------------
     lambda(   1 )=      -0.849100   gamma=      -0.006870 meV   omega=      2.9513 meV
     lambda(   2 )=       0.073321   gamma=       0.000902 meV   omega=      3.6393 meV
     lambda(   3 )=      -0.412049   gamma=      -0.015258 meV   omega=      6.3139 meV
     lambda( tot )=      -1.187828
     -------------------------------------------------------------------


     Number of (k,k+q) pairs on the Fermi surface:      214 out of      216


     ismear =     1 iq =      95 coord.:   0.33333  0.50000  0.66667 wt:   0.00463
     -------------------------------------------------------------------
     lambda(   1 )=      -2.112876   gamma=      -0.033315 meV   omega=      4.1200 meV
     lambda(   2 )=      -0.079402   gamma=      -0.002973 meV   omega=      6.3487 meV
     lambda(   3 )=      -0.552877   gamma=      -0.022465 meV   omega=      6.6139 meV
     lambda( tot )=      -2.745155
     -------------------------------------------------------------------


     Number of (k,k+q) pairs on the Fermi surface:      214 out of      216


     ismear =     1 iq =      96 coord.:   0.33333  0.50000  0.83333 wt:   0.00463
     -------------------------------------------------------------------
     lambda(   1 )=       4.393205   gamma=       0.040522 meV   omega=      3.1511 meV
     lambda(   2 )=      -1.082802   gamma=      -0.021291 meV   omega=      4.6009 meV
     lambda(   3 )=      -0.416113   gamma=      -0.029178 meV   omega=      8.6884 meV
     lambda( tot )=       2.894289
     -------------------------------------------------------------------


     Number of (k,k+q) pairs on the Fermi surface:      214 out of      216


     ismear =     1 iq =      97 coord.:   0.33333  0.66667  0.00000 wt:   0.00463
     -------------------------------------------------------------------
     lambda(   1 )=       0.219259   gamma=       0.004263 meV   omega=      4.5750 meV
     lambda(   2 )=       0.058569   gamma=       0.001625 meV   omega=      5.4657 meV
     lambda(   3 )=       0.130993   gamma=       0.006111 meV   omega=      7.0866 meV
     lambda( tot )=       0.408822
     -------------------------------------------------------------------


     Number of (k,k+q) pairs on the Fermi surface:      214 out of      216


     ismear =     1 iq =      98 coord.:   0.33333  0.66667  0.16667 wt:   0.00463
     -------------------------------------------------------------------
     lambda(   1 )=      -2.112882   gamma=      -0.033315 meV   omega=      4.1200 meV
     lambda(   2 )=      -0.079395   gamma=      -0.002973 meV   omega=      6.3487 meV
     lambda(   3 )=      -0.552872   gamma=      -0.022465 meV   omega=      6.6139 meV
     lambda( tot )=      -2.745150
     -------------------------------------------------------------------


     Number of (k,k+q) pairs on the Fermi surface:      214 out of      216


     ismear =     1 iq =      99 coord.:   0.33333  0.66667  0.33333 wt:   0.00463
     -------------------------------------------------------------------
     lambda(   1 )=       0.219273   gamma=       0.004263 meV   omega=      4.5750 meV
     lambda(   2 )=       0.058571   gamma=       0.001625 meV   omega=      5.4657 meV
     lambda(   3 )=       0.130992   gamma=       0.006111 meV   omega=      7.0866 meV
     lambda( tot )=       0.408836
     -------------------------------------------------------------------


     Number of (k,k+q) pairs on the Fermi surface:      214 out of      216


     ismear =     1 iq =     100 coord.:   0.33333  0.66667  0.50000 wt:   0.00463
     -------------------------------------------------------------------
     lambda(   1 )=      -2.112878   gamma=      -0.033315 meV   omega=      4.1200 meV
     lambda(   2 )=      -0.079401   gamma=      -0.002973 meV   omega=      6.3487 meV
     lambda(   3 )=      -0.552883   gamma=      -0.022466 meV   omega=      6.6139 meV
     lambda( tot )=      -2.745161
     -------------------------------------------------------------------


     Number of (k,k+q) pairs on the Fermi surface:      214 out of      216


     ismear =     1 iq =     101 coord.:   0.33333  0.66667  0.66667 wt:   0.00463
     -------------------------------------------------------------------
     lambda(   1 )=       0.219253   gamma=       0.004263 meV   omega=      4.5750 meV
     lambda(   2 )=       0.058568   gamma=       0.001625 meV   omega=      5.4657 meV
     lambda(   3 )=       0.130988   gamma=       0.006111 meV   omega=      7.0866 meV
     lambda( tot )=       0.408808
     -------------------------------------------------------------------


     Number of (k,k+q) pairs on the Fermi surface:      214 out of      216


     ismear =     1 iq =     102 coord.:   0.33333  0.66667  0.83333 wt:   0.00463
     -------------------------------------------------------------------
     lambda(   1 )=      -2.112879   gamma=      -0.033315 meV   omega=      4.1200 meV
     lambda(   2 )=      -0.079403   gamma=      -0.002973 meV   omega=      6.3487 meV
     lambda(   3 )=      -0.552872   gamma=      -0.022465 meV   omega=      6.6139 meV
     lambda( tot )=      -2.745154
     -------------------------------------------------------------------


     Number of (k,k+q) pairs on the Fermi surface:      214 out of      216


     ismear =     1 iq =     103 coord.:   0.33333  0.83333  0.00000 wt:   0.00463
     -------------------------------------------------------------------
     lambda(   1 )=     -26.371828   gamma=      -0.088620 meV   omega=      1.9020 meV
     lambda(   2 )=       0.987211   gamma=       0.018935 meV   omega=      4.5440 meV
     lambda(   3 )=       1.016864   gamma=       0.022175 meV   omega=      4.8452 meV
     lambda( tot )=     -24.367752
     -------------------------------------------------------------------


     Number of (k,k+q) pairs on the Fermi surface:      214 out of      216


     ismear =     1 iq =     104 coord.:   0.33333  0.83333  0.16667 wt:   0.00463
     -------------------------------------------------------------------
[...]
      203        3      0.9376   -698.6439   3035.1297      3.5259     -0.7164
      204        3      2.5061    120.2951   3569.8447    -10.6562     -1.0938
      205        3      4.2119    543.1604   3698.0834     -5.2664     -1.1899
      206        3      0.9376   -698.6438   3035.1295      3.5259     -0.7164
      207        3     -0.1771  -1016.3230   3017.2585      3.5624     -0.7193
      208        3      0.9376   -698.6440   3035.1295      3.5259     -0.7164
      209        3      4.2119    543.1602   3698.0831     -5.2664     -1.1899
      210        3      3.9714    602.9405   3887.1812     -6.3531     -1.1574
      211        3      5.4468   1103.2469   2358.0066      8.6673     -0.8846
      212        3      4.2119    543.1606   3698.0846     -5.2664     -1.1899
      213        3      3.1191    525.9927   4296.3498     -3.7844     -1.2642
      214        3      2.5061    120.2947   3569.8435    -10.6563     -1.0938
      215        3      3.9714    602.9405   3887.1809     -6.3531     -1.1574
      216        3      6.4212   1051.8492    148.1444      0.8306      0.2039
  
        1        4      6.8737      0.0000      0.0000      1.0000      0.0000
        2        4      6.4212   1051.8491    148.1444      0.8306      0.2039
        3        4      5.4492   1642.6686   1077.4092      0.9519      0.0505
        4        4      4.9298   1465.0553   1234.9109      1.1014     -0.0920
        5        4      5.4492   1642.6676   1077.4077      0.9519      0.0505
        6        4      6.4212   1051.8495    148.1446      0.8306      0.2039
        7        4      6.4212   1051.8491    148.1444      0.8306      0.2039
        8        4      5.4468   1103.2464   2358.0056      8.6673     -0.8846
        9        4      4.6034   1160.5439   3018.5704    -11.5009     -1.0869
       10        4      3.9347   1444.8140   3728.8982     -4.5673     -1.2189
       11        4      4.9592   1619.0102   1259.4580      1.0503     -0.0479
       12        4      6.2108    896.1026    181.9797      0.8721      0.1467
       13        4      5.4492   1642.6685   1077.4091      0.9519      0.0505
       14        4      4.6034   1160.5438   3018.5699    -11.5009     -1.0869
       15        4      2.4513   -341.5957   2009.8466      1.3179     -0.2412
       16        4      1.9112   -361.7230   2524.3494      1.5888     -0.3706
       17        4      3.1818    573.0715   4982.8128     -1.3556     -1.7377
       18        4      4.9592   1619.0116   1259.4589      1.0503     -0.0479
       19        4      4.9298   1465.0555   1234.9114      1.1014     -0.0920
       20        4      3.9347   1444.8139   3728.8988     -4.5673     -1.2189
       21        4      1.9112   -361.7234   2524.3497      1.5888     -0.3706
       22        4      0.8828   -116.3624    360.2893      0.8220      0.2166
       23        4      1.9112   -361.7234   2524.3500      1.5888     -0.3706
       24        4      3.9347   1444.8142   3728.8995     -4.5673     -1.2189
       25        4      5.4492   1642.6680   1077.4090      0.9519      0.0505
       26        4      4.9592   1619.0109   1259.4603      1.0503     -0.0479
       27        4      3.1818    573.0709   4982.8165     -1.3556     -1.7377
       28        4      1.9112   -361.7238   2524.3510      1.5888     -0.3706
       29        4      2.4513   -341.5970   2009.8472      1.3179     -0.2412
       30        4      4.6034   1160.5435   3018.5691    -11.5010     -1.0869
       31        4      6.4212   1051.8497    148.1446      0.8306      0.2039
       32        4      6.2108    896.1028    181.9799      0.8721      0.1467
       33        4      4.9592   1619.0120   1259.4592      1.0503     -0.0479
       34        4      3.9347   1444.8150   3728.9007     -4.5673     -1.2189
       35        4      4.6034   1160.5437   3018.5701    -11.5009     -1.0869
       36        4      5.4468   1103.2469   2358.0066      8.6673     -0.8846
       37        4      6.4212   1051.8491    148.1444      0.8306      0.2039
       38        4      5.4468   1103.2459   2358.0043      8.6673     -0.8846
       39        4      4.6034   1160.5439   3018.5705    -11.5009     -1.0869
       40        4      3.9347   1444.8141   3728.8985     -4.5673     -1.2189
       41        4      4.9592   1619.0106   1259.4588      1.0503     -0.0479
       42        4      6.2108    896.1027    181.9798      0.8721      0.1467
       43        4      5.4468   1103.2460   2358.0047      8.6673     -0.8846
       44        4      6.4212   1051.8495    148.1446      0.8306      0.2039
       45        4      6.2108    896.1028    181.9799      0.8721      0.1467
       46        4      4.9592   1619.0114   1259.4588      1.0503     -0.0479
       47        4      3.9347   1444.8146   3728.8988     -4.5673     -1.2189
       48        4      4.6034   1160.5435   3018.5694    -11.5009     -1.0869
       49        4      4.6034   1160.5439   3018.5697    -11.5009     -1.0869
       50        4      6.2108    896.1028    181.9799      0.8721      0.1467
       51        4      4.6034   1160.5436   3018.5695    -11.5009     -1.0869
       52        4      3.6085    930.0959   4847.9290     -1.1409     -1.8765
       53        4      2.6144   1175.7645   4289.8547     -3.4548     -1.2894
       54        4      3.6085    930.0960   4847.9285     -1.1409     -1.8765
       55        4      3.9347   1444.8138   3728.8985     -4.5673     -1.2189
       56        4      4.9592   1619.0114   1259.4587      1.0503     -0.0479
       57        4      3.6085    930.0959   4847.9290     -1.1409     -1.8765
       58        4      1.9112   -361.7232   2524.3498      1.5888     -0.3706
       59        4      1.0451    -79.3777   4576.5848     -1.7074     -1.5857
       60        4      2.6144   1175.7645   4289.8553     -3.4548     -1.2894
       61        4      4.9592   1619.0108   1259.4598      1.0503     -0.0479
       62        4      3.9347   1444.8144   3728.8991     -4.5673     -1.2189
       63        4      2.6144   1175.7647   4289.8557     -3.4548     -1.2894
       64        4      1.0451    -79.3780   4576.5874     -1.7074     -1.5857
       65        4      1.9112   -361.7236   2524.3501      1.5888     -0.3706
       66        4      3.6085    930.0960   4847.9293     -1.1409     -1.8765
       67        4      6.2108    896.1030    181.9800      0.8721      0.1467
       68        4      4.6034   1160.5434   3018.5705    -11.5009     -1.0870
       69        4      3.6085    930.0963   4847.9300     -1.1409     -1.8765
       70        4      2.6144   1175.7653   4289.8571     -3.4548     -1.2895
       71        4      3.6085    930.0964   4847.9293     -1.1409     -1.8765
       72        4      4.6034   1160.5441   3018.5697    -11.5009     -1.0869
       73        4      5.4492   1642.6685   1077.4092      0.9519      0.0505
       74        4      4.6034   1160.5439   3018.5704    -11.5009     -1.0869
       75        4      2.4513   -341.5959   2009.8466      1.3179     -0.2412
       76        4      1.9112   -361.7232   2524.3496      1.5888     -0.3706
       77        4      3.1818    573.0712   4982.8138     -1.3556     -1.7377
       78        4      4.9592   1619.0117   1259.4591      1.0503     -0.0479
       79        4      4.6034   1160.5439   3018.5700    -11.5009     -1.0869
       80        4      6.2108    896.1028    181.9798      0.8721      0.1467
       81        4      4.6034   1160.5436   3018.5693    -11.5009     -1.0869
       82        4      3.6085    930.0959   4847.9291     -1.1409     -1.8765
       83        4      2.6144   1175.7645   4289.8551     -3.4548     -1.2894
       84        4      3.6085    930.0960   4847.9294     -1.1409     -1.8765
       85        4      2.4513   -341.5963   2009.8463      1.3179     -0.2412
       86        4      4.6034   1160.5435   3018.5694    -11.5009     -1.0869
       87        4      5.4492   1642.6683   1077.4090      0.9519      0.0505
       88        4      4.9592   1619.0111   1259.4589      1.0503     -0.0479
       89        4      3.1818    573.0715   4982.8142     -1.3556     -1.7377
       90        4      1.9112   -361.7230   2524.3501      1.5888     -0.3706
       91        4      1.9112   -361.7234   2524.3497      1.5888     -0.3706
       92        4      3.6085    930.0959   4847.9289     -1.1409     -1.8765
       93        4      4.9592   1619.0111   1259.4589      1.0503     -0.0479
       94        4      3.9347   1444.8144   3728.8990     -4.5673     -1.2189
       95        4      2.6144   1175.7645   4289.8551     -3.4548     -1.2894
       96        4      1.0451    -79.3780   4576.5862     -1.7074     -1.5857
       97        4      3.1818    573.0711   4982.8153     -1.3556     -1.7377
       98        4      2.6144   1175.7646   4289.8561     -3.4548     -1.2894
       99        4      3.1818    573.0715   4982.8142     -1.3556     -1.7377
      100        4      2.6144   1175.7647   4289.8564     -3.4548     -1.2894
      101        4      3.1818    573.0712   4982.8146     -1.3556     -1.7377
      102        4      2.6144   1175.7649   4289.8570     -3.4548     -1.2894
      103        4      4.9592   1619.0121   1259.4592      1.0503     -0.0479
      104        4      3.6085    930.0961   4847.9302     -1.1409     -1.8765
      105        4      1.9112   -361.7230   2524.3501      1.5888     -0.3706
      106        4      1.0451    -79.3779   4576.5870     -1.7074     -1.5857
      107        4      2.6144   1175.7655   4289.8585     -3.4548     -1.2895
      108        4      3.9347   1444.8144   3728.9005     -4.5673     -1.2189
      109        4      4.9298   1465.0557   1234.9115      1.1014     -0.0920
      110        4      3.9347   1444.8141   3728.8991     -4.5673     -1.2189
      111        4      1.9112   -361.7233   2524.3498      1.5888     -0.3706
      112        4      0.8828   -116.3624    360.2892      0.8220      0.2166
      113        4      1.9112   -361.7232   2524.3496      1.5888     -0.3706
      114        4      3.9347   1444.8146   3728.8995     -4.5673     -1.2189
      115        4      3.9347   1444.8139   3728.8987     -4.5673     -1.2189
      116        4      4.9592   1619.0116   1259.4589      1.0503     -0.0479
      117        4      3.6085    930.0960   4847.9291     -1.1409     -1.8765
      118        4      1.9112   -361.7233   2524.3500      1.5888     -0.3706
      119        4      1.0451    -79.3778   4576.5847     -1.7074     -1.5857
      120        4      2.6144   1175.7645   4289.8550     -3.4548     -1.2894
      121        4      1.9112   -361.7232   2524.3495      1.5888     -0.3706
      122        4      3.6085    930.0960   4847.9290     -1.1409     -1.8765
      123        4      4.9592   1619.0110   1259.4589      1.0503     -0.0479
      124        4      3.9347   1444.8145   3728.8994     -4.5673     -1.2189
      125        4      2.6144   1175.7643   4289.8550     -3.4548     -1.2894
      126        4      1.0451    -79.3780   4576.5849     -1.7074     -1.5857
      127        4      0.8828   -116.3625    360.2892      0.8220      0.2166
      128        4      1.9112   -361.7235   2524.3500      1.5888     -0.3706
      129        4      3.9347   1444.8145   3728.8995     -4.5673     -1.2189
      130        4      4.9298   1465.0555   1234.9113      1.1014     -0.0920
      131        4      3.9347   1444.8135   3728.8982     -4.5673     -1.2189
      132        4      1.9112   -361.7235   2524.3493      1.5888     -0.3706
      133        4      1.9112   -361.7232   2524.3504      1.5888     -0.3706
      134        4      1.0451    -79.3781   4576.5876     -1.7074     -1.5857
      135        4      2.6144   1175.7647   4289.8565     -3.4548     -1.2894
      136        4      3.9347   1444.8139   3728.8983     -4.5673     -1.2189
      137        4      4.9592   1619.0111   1259.4592      1.0503     -0.0479
      138        4      3.6085    930.0964   4847.9301     -1.1409     -1.8765
      139        4      3.9347   1444.8151   3728.9005     -4.5673     -1.2189
      140        4      2.6144   1175.7654   4289.8580     -3.4548     -1.2895
      141        4      1.0451    -79.3782   4576.5870     -1.7074     -1.5857
      142        4      1.9112   -361.7234   2524.3499      1.5888     -0.3706
      143        4      3.6085    930.0966   4847.9309     -1.1409     -1.8765
      144        4      4.9592   1619.0114   1259.4591      1.0503     -0.0479
      145        4      5.4492   1642.6683   1077.4092      0.9519      0.0505
      146        4      4.9592   1619.0115   1259.4609      1.0503     -0.0479
      147        4      3.1818    573.0709   4982.8174     -1.3556     -1.7377
      148        4      1.9112   -361.7240   2524.3507      1.5888     -0.3706
      149        4      2.4513   -341.5969   2009.8481      1.3179     -0.2412
      150        4      4.6034   1160.5440   3018.5690    -11.5010     -1.0869
      151        4      4.9592   1619.0109   1259.4594      1.0503     -0.0479
      152        4      3.9347   1444.8148   3728.8998     -4.5673     -1.2189
      153        4      2.6144   1175.7649   4289.8557     -3.4548     -1.2894
      154        4      1.0451    -79.3781   4576.5872     -1.7074     -1.5857
      155        4      1.9112   -361.7230   2524.3493      1.5888     -0.3706
      156        4      3.6085    930.0960   4847.9305     -1.1409     -1.8765
      157        4      3.1818    573.0713   4982.8149     -1.3556     -1.7377
      158        4      2.6144   1175.7647   4289.8560     -3.4548     -1.2894
      159        4      3.1818    573.0715   4982.8142     -1.3556     -1.7377
      160        4      2.6144   1175.7645   4289.8559     -3.4548     -1.2894
      161        4      3.1818    573.0713   4982.8143     -1.3556     -1.7377
      162        4      2.6144   1175.7644   4289.8558     -3.4548     -1.2894
      163        4      1.9112   -361.7237   2524.3507      1.5888     -0.3706
      164        4      1.0451    -79.3781   4576.5877     -1.7074     -1.5857
      165        4      2.6144   1175.7648   4289.8560     -3.4548     -1.2894
      166        4      3.9347   1444.8135   3728.8979     -4.5673     -1.2189
      167        4      4.9592   1619.0111   1259.4587      1.0503     -0.0479
      168        4      3.6085    930.0960   4847.9286     -1.1409     -1.8765
      169        4      2.4513   -341.5972   2009.8476      1.3179     -0.2412
      170        4      1.9112   -361.7235   2524.3496      1.5888     -0.3706
      171        4      3.1818    573.0708   4982.8166     -1.3556     -1.7377
      172        4      4.9592   1619.0116   1259.4602      1.0503     -0.0479
      173        4      5.4492   1642.6679   1077.4088      0.9519      0.0505
      174        4      4.6034   1160.5436   3018.5695    -11.5009     -1.0869
      175        4      4.6034   1160.5443   3018.5717    -11.5008     -1.0870
      176        4      3.6085    930.0966   4847.9325     -1.1409     -1.8765
      177        4      2.6144   1175.7656   4289.8591     -3.4548     -1.2895
      178        4      3.6085    930.0965   4847.9304     -1.1409     -1.8765
      179        4      4.6034   1160.5440   3018.5725    -11.5008     -1.0870
      180        4      6.2108    896.1029    181.9799      0.8721      0.1467
      181        4      6.4212   1051.8497    148.1446      0.8306      0.2039
      182        4      6.2108    896.1030    181.9800      0.8721      0.1467
      183        4      4.9592   1619.0120   1259.4592      1.0503     -0.0479
      184        4      3.9347   1444.8150   3728.9006     -4.5673     -1.2189
      185        4      4.6034   1160.5435   3018.5697    -11.5009     -1.0869
      186        4      5.4468   1103.2467   2358.0057      8.6673     -0.8846
      187        4      6.2108    896.1029    181.9800      0.8721      0.1467
      188        4      4.6034   1160.5433   3018.5711    -11.5008     -1.0870
      189        4      3.6085    930.0962   4847.9308     -1.1409     -1.8765
      190        4      2.6144   1175.7652   4289.8570     -3.4548     -1.2895
      191        4      3.6085    930.0964   4847.9297     -1.1409     -1.8765
      192        4      4.6034   1160.5448   3018.5704    -11.5009     -1.0869
      193        4      4.9592   1619.0119   1259.4590      1.0503     -0.0479
      194        4      3.6085    930.0961   4847.9302     -1.1409     -1.8765
      195        4      1.9112   -361.7230   2524.3500      1.5888     -0.3706
      196        4      1.0451    -79.3778   4576.5858     -1.7074     -1.5857
      197        4      2.6144   1175.7651   4289.8571     -3.4548     -1.2894
      198        4      3.9347   1444.8143   3728.8997     -4.5673     -1.2189
      199        4      3.9347   1444.8148   3728.9003     -4.5673     -1.2189
      200        4      2.6144   1175.7654   4289.8582     -3.4548     -1.2895
      201        4      1.0451    -79.3780   4576.5872     -1.7074     -1.5857
      202        4      1.9112   -361.7233   2524.3494      1.5888     -0.3706
      203        4      3.6085    930.0961   4847.9290     -1.1409     -1.8765
      204        4      4.9592   1619.0112   1259.4590      1.0503     -0.0479
      205        4      4.6034   1160.5436   3018.5715    -11.5008     -1.0870
      206        4      3.6085    930.0967   4847.9315     -1.1409     -1.8765
      207        4      2.6144   1175.7657   4289.8592     -3.4548     -1.2895
      208        4      3.6085    930.0965   4847.9299     -1.1409     -1.8765
      209        4      4.6034   1160.5438   3018.5710    -11.5009     -1.0869
      210        4      6.2108    896.1027    181.9798      0.8721      0.1467
      211        4      5.4468   1103.2466   2358.0054      8.6673     -0.8846
      212        4      4.6034   1160.5446   3018.5709    -11.5009     -1.0869
      213        4      3.9347   1444.8146   3728.9002     -4.5673     -1.2189
      214        4      4.9592   1619.0111   1259.4584      1.0503     -0.0479
      215        4      6.2108    896.1028    181.9799      0.8721      0.1467
      216        4      6.4212   1051.8494    148.1444      0.8306      0.2039
  

     ===================================================================
     Eliashberg Spectral Function in the Migdal Approximation
     ===================================================================

     lambda :   16.0017903
     lambda_tr :  103.1553591

     Estimated Allen-Dynes Tc

     logavg =    0.0000532 l_a2F =   16.0444164
     mu =   0.10 Tc =         2.139995276410 K
     mu =   0.12 Tc =         2.102610203962 K
     mu =   0.14 Tc =         2.064779858013 K
     mu =   0.16 Tc =         2.026502585409 K
     mu =   0.18 Tc =         1.987777242507 K
     mu =   0.20 Tc =         1.948603253757 K
     a2F          :      0.12s CPU      0.06s WALL (       1 calls)

     Unfolding on the coarse grid
     elphon_wrap  :    164.59s CPU     82.60s WALL (       1 calls)

     INITIALIZATION: 

     init_vloc    :      0.18s CPU      0.09s WALL (      29 calls)
     init_us_1    :      2.69s CPU      1.34s WALL (      29 calls)


     Electron-Phonon interpolation
     ephwann      :      6.67s CPU      3.37s WALL (       1 calls)
     ep-interp    :      6.35s CPU      3.20s WALL (     216 calls)
     PH SELF-ENER :      0.19s CPU      0.09s WALL (     216 calls)

     Ham: step 1  :      0.00s CPU      0.00s WALL (       1 calls)
     Ham: step 2  :      0.00s CPU      0.00s WALL (       1 calls)
     ep: step 1   :      0.01s CPU      0.00s WALL (      81 calls)
     ep: step 2   :      0.03s CPU      0.02s WALL (      81 calls)
     DynW2B       :      0.01s CPU      0.00s WALL (     216 calls)
     HamW2B       :      3.00s CPU      1.48s WALL (   93744 calls)
     ephW2Bp      :      0.10s CPU      0.05s WALL (     216 calls)


     Total program execution
     EPW          :  3m12.12s CPU     1m36.41s WALL

