                                                                                      
                                       ``:oss/                                        
                           `.+s+.     .+ys--yh+     `./ss+.                           
                          -sh//yy+`   +yy   +yy    -+h+-oyy                           
                          -yh- .oyy/.-sh.   .syo-.:sy-  /yh                           
                 `.-.`    `yh+   -oyyyo.     `/syys:    oys      `.`                  
               `/+ssys+-` `sh+      `                   oys`   .:osyo`                
               -yh- ./syyooyo`                          .sys+/oyo--yh/                
               `yy+    .-:-.                             `-/+/:`  -sh-                
                /yh.                                              oys                 
          ``..---hho---------`   .---------..`      `.-----.`    -hd+---.             
       `./osmNMMMMMMMMMMMMMMMs. +NNMMMMMMMMNNmh+.   yNMMMMMNm-  oNMMMMMNmo++:`        
       +sy--/sdMMMhyyyyyyyNMMh- .oyNMMmyyyyyhNMMm+` -yMMMdyyo:` .oyyNMMNhs+syy`       
       -yy/   /MMM+.`-+/``mMMy-   `mMMh:`````.dMMN:` `MMMy-`-dhhy```mMMy:``+hs        
        -yy+` /MMMo:-mMM+`-oo/.    mMMh:     `dMMN/`  dMMm:`dMMMMy..MMMo-.+yo`        
         .sys`/MMMMNNMMMs-         mMMmyooooymMMNo:   oMMM/sMMMMMM++MMN//oh:          
          `sh+/MMMhyyMMMs- `-`     mMMMMMMMMMNmy+-`   -MMMhMMMsmMMmdMMd/yy+           
    `-/+++oyy-/MMM+.`/hh/.`mNm:`   mMMd+/////:-.`      NMMMMMd/:NMMMMMy:/yyo/:.`      
   +os+//:-..-oMMMo:--:::-/MMMo. .-mMMd+---`           hMMMMN+. oMMMMMo. `-+osyso:`   
   syo     `mNMMMMMNNNNNNNNMMMo.oNNMMMMMNNNN:`         +MMMMs:`  dMMMN/`     ``:syo   
   /yh`     :syyyyyyyyyyyyyyyy+.`+syyyyyyyyo:`         .oyys:`   .oyys:`        +yh   
   -yh-        ````````````````    `````````              ``        ``          oys   
   -+h/------------------------::::::::://////++++++++++++++++++++++///////::::/yd:   
   shdddddddddddddddddddddddddddddhhhhhhhhyyyyyssssssssssssssssyyyyyyyhhhhhhhddddh`   
                                                                                      
  S. Ponce, E. R. Margine, C. Verdi, and F. Giustino,                                 
                                                Comput. Phys. Commun. 209, 116 (2016) 
                                                                                      

     Program EPW v.5.3.1 starts on  3May2021 at 11:49:12 

     This program is part of the open-source Quantum ESPRESSO suite
     for quantum simulation of materials; please cite
         "P. Giannozzi et al., J. Phys.:Condens. Matter 21 395502 (2009);
         "P. Giannozzi et al., J. Phys.:Condens. Matter 29 465901 (2017);
         "P. Giannozzi et al., J. Chem. Phys. 152 154105 (2020);
          URL http://www.quantum-espresso.org", 
     in publications or presentations arising from this work. More details at
     http://www.quantum-espresso.org/quote

     Parallel version (MPI), running on     1 processors

     MPI processes distributed on     1 nodes
     Reading input from epw1.in

     WARNING: The specified dis_win_min is ignored.
              You should instead use bands_skipped = 'exclude_bands = ...'
              to control the lower bound of band manifold.

     Reading supplied temperature list.

     Reading xml data from directory:

     ./bn.save/

     IMPORTANT: XC functional enforced from input :
     Exchange-correlation= PBE
                           (   1   4   3   4   0   0   0)
     Any further DFT definition will be discarded
     Please, verify this is what you really want


     G-vector sticks info
     --------------------
     sticks:   dense  smooth     PW     G-vecs:    dense   smooth      PW
     Sum         253     253     85                 2733     2733     531

     Using Slab Decomposition


     Check: negative core charge=   -0.000052
     Reading collected, re-writing distributed wavefunctions

     --                                                                         

     bravais-lattice index     =            2
     lattice parameter (a_0)   =       6.8327  a.u.
     unit-cell volume          =      79.7469 (a.u.)^3
     number of atoms/cell      =            2
     number of atomic types    =            2
     kinetic-energy cut-off    =      40.0000  Ry
     charge density cut-off    =     160.0000  Ry
     Exchange-correlation= PBE
                           (   1   4   3   4   0   0   0)


     celldm(1)=    6.83268  celldm(2)=    0.00000  celldm(3)=    0.00000
     celldm(4)=    0.00000  celldm(5)=    0.00000  celldm(6)=    0.00000

     crystal axes: (cart. coord. in units of a_0)
               a(1) = ( -0.5000  0.0000  0.5000 )  
               a(2) = (  0.0000  0.5000  0.5000 )  
               a(3) = ( -0.5000  0.5000  0.0000 )  

     reciprocal axes: (cart. coord. in units 2 pi/a_0)
               b(1) = ( -1.0000 -1.0000  1.0000 )  
               b(2) = (  1.0000  1.0000  1.0000 )  
               b(3) = ( -1.0000  1.0000 -1.0000 )  


     Atoms inside the unit cell: 

   Cartesian axes

     site n.  atom      mass           positions (a_0 units)
        1        B   10.8110   tau( 1) = (    0.00000    0.00000    0.00000  )
        2        N   14.0067   tau( 2) = (    0.25000    0.25000    0.25000  )

     25 Sym.Ops. (with q -> -q+G )


     G cutoff =  189.2094  (   2733 G-vectors)     FFT grid: ( 20, 20, 20)
     number of k points=    8
                       cart. coord. in units 2pi/a_0
        k(    1) = (   0.0000000   0.0000000   0.0000000), wk =   0.2500000
        k(    2) = (  -0.5000000   0.5000000  -0.5000000), wk =   0.2500000
        k(    3) = (   0.5000000   0.5000000   0.5000000), wk =   0.2500000
        k(    4) = (   0.0000000   1.0000000   0.0000000), wk =   0.2500000
        k(    5) = (  -0.5000000  -0.5000000   0.5000000), wk =   0.2500000
        k(    6) = (  -1.0000000   0.0000000   0.0000000), wk =   0.2500000
        k(    7) = (   0.0000000   0.0000000   1.0000000), wk =   0.2500000
        k(    8) = (  -0.5000000   0.5000000   0.5000000), wk =   0.2500000

     PseudoPot. # 1 for B  read from file:
     ../../pseudo/B-PBE.upf
     MD5 check sum: 8d3529416d991d290d09c9d3752026a1
     Pseudo is Norm-conserving + core correction, Zval =  3.0
     Generated using ONCVPSP code by D. R. Hamann
     Using radial grid of 1534 points,  4 beta functions with: 
                l(1) =   0
                l(2) =   0
                l(3) =   1
                l(4) =   1

     PseudoPot. # 2 for N  read from file:
     ../../pseudo/N-PBE.upf
     MD5 check sum: ff7f9f91e4136e6855b4906c31c1cc72
     Pseudo is Norm-conserving + core correction, Zval =  5.0
     Generated using ONCVPSP code by D. R. Hamann
     Using radial grid of 1058 points,  4 beta functions with: 
                l(1) =   0
                l(2) =   0
                l(3) =   1
                l(4) =   1
     EPW          :      0.16s CPU      0.16s WALL

     EPW          :      0.31s CPU      0.31s WALL

     -------------------------------------------------------------------
     Wannierization on  2 x  2 x  2 electronic grid
     -------------------------------------------------------------------

     Spin CASE ( default = unpolarized )

     Initializing Wannier90


     Initial Wannier projections

     (  -0.25000   0.75000  -0.25000) :  l =   1 mr =   1
     (  -0.25000   0.75000  -0.25000) :  l =   1 mr =   2
     (  -0.25000   0.75000  -0.25000) :  l =   1 mr =   3

      - Number of bands is (  3)
      - Number of total bands is ( 20)
      - Number of excluded bands is ( 17)
      - Number of wannier functions is (  3)
      - All guiding functions are given 

  Reading data about k-point neighbours 

      - All neighbours are found 

     AMN
      k points =     8 in    1 pools
            1 of    8 on ionode
            2 of    8 on ionode
            3 of    8 on ionode
            4 of    8 on ionode
            5 of    8 on ionode
            6 of    8 on ionode
            7 of    8 on ionode
            8 of    8 on ionode

     AMN calculated

     MMN
      k points =     8 in    1 pools
            1 of    8 on ionode
            2 of    8 on ionode
            3 of    8 on ionode
            4 of    8 on ionode
            5 of    8 on ionode
            6 of    8 on ionode
            7 of    8 on ionode
            8 of    8 on ionode
     MMN calculated

     Running Wannier90

     Wannier Function centers (cartesian, alat) and spreads (ang):

     (   0.25000   0.25000   0.25000) :   0.65513
     (   0.25000   0.25000   0.25000) :   0.65513
     (   0.25000   0.25000   0.25000) :   0.65513

     -------------------------------------------------------------------
     WANNIER      :      0.34s CPU      0.34s WALL (       1 calls)
     -------------------------------------------------------------------

     Calculating kgmap

     Progress kgmap: ########################################
     kmaps        :      0.01s CPU      0.01s WALL (       1 calls)
     
     ------------------------------------ 
     Quadrupole tensor is correctly read: 
     ------------------------------------ 
     atom   dir        Qxx       Qyy      Qzz        Qyz       Qxz       Qxy
       1        x       0.00000   0.00000   0.00000   3.17968   0.00000   0.00000
       1        y       0.00000   0.00000   0.00000   0.00000   3.17968   0.00000
       1        z       0.00000   0.00000   0.00000   0.00000   0.00000   3.17968
       2        x       0.00000   0.00000   0.00000  -0.57889   0.00000   0.00000
       2        y       0.00000   0.00000   0.00000   0.00000  -0.57889   0.00000
       2        z       0.00000   0.00000   0.00000   0.00000   0.00000  -0.57889
     
     Symmetries of Bravais lattice:  48
     Symmetries of crystal:          24


     ===================================================================
     irreducible q point #    1
     ===================================================================

     Symmetries of small group of q: 24
          in addition sym. q -> -q+G:

     Number of q in the star =    1
     List of q in the star:
          1   0.000000000   0.000000000   0.000000000
     Read dielectric tensor and effective charges
     Imposing acoustic sum rule on the dynamical matrix

        q(    1 ) = (   0.0000000   0.0000000   0.0000000 )


     ===================================================================
     irreducible q point #    2
     ===================================================================

     Symmetries of small group of q:  6
          in addition sym. q -> -q+G:

     Number of q in the star =    4
     List of q in the star:
          1   0.500000000  -0.500000000   0.500000000
          2  -0.500000000   0.500000000   0.500000000
          3   0.500000000   0.500000000  -0.500000000
          4  -0.500000000  -0.500000000  -0.500000000

        q(    2 ) = (   0.5000000  -0.5000000   0.5000000 )
        q(    3 ) = (  -0.5000000   0.5000000   0.5000000 )
        q(    4 ) = (   0.5000000   0.5000000  -0.5000000 )
        q(    5 ) = (  -0.5000000  -0.5000000  -0.5000000 )


     ===================================================================
     irreducible q point #    3
     ===================================================================

     Symmetries of small group of q:  8
          in addition sym. q -> -q+G:

     Number of q in the star =    3
     List of q in the star:
          1   0.000000000  -1.000000000   0.000000000
          2   0.000000000   0.000000000  -1.000000000
          3  -1.000000000   0.000000000   0.000000000

        q(    6 ) = (   0.0000000  -1.0000000   0.0000000 )
        q(    7 ) = (   0.0000000   0.0000000  -1.0000000 )
        q(    8 ) = (  -1.0000000   0.0000000   0.0000000 )

     Writing epmatq on .epb files


     The .epb files have been correctly written


     Computes the analytic long-range interaction for polar materials [lpolar]
      
     Use zone-centred Wigner-Seitz cells 
     Number of WS vectors for electrons       19
     Number of WS vectors for phonons       19
     Number of WS vectors for electron-phonon       19
     Maximum number of cores for efficient parallelization      114
     Results may improve by using use_ws == .TRUE. 

     Velocity matrix elements calculated
 
 
     Bloch2wane:          1 /          8
     Bloch2wane:          2 /          8
     Bloch2wane:          3 /          8
     Bloch2wane:          4 /          8
     Bloch2wane:          5 /          8
     Bloch2wane:          6 /          8
     Bloch2wane:          7 /          8
     Bloch2wane:          8 /          8
 
     Bloch2wanp:          1 /         19
     Bloch2wanp:          2 /         19
     Bloch2wanp:          3 /         19
     Bloch2wanp:          4 /         19
     Bloch2wanp:          5 /         19
     Bloch2wanp:          6 /         19
     Bloch2wanp:          7 /         19
     Bloch2wanp:          8 /         19
     Bloch2wanp:          9 /         19
     Bloch2wanp:         10 /         19
     Bloch2wanp:         11 /         19
     Bloch2wanp:         12 /         19
     Bloch2wanp:         13 /         19
     Bloch2wanp:         14 /         19
     Bloch2wanp:         15 /         19
     Bloch2wanp:         16 /         19
     Bloch2wanp:         17 /         19
     Bloch2wanp:         18 /         19
     Bloch2wanp:         19 /         19

     Writing Hamiltonian, Dynamical matrix and EP vertex in Wann rep to file

     ===================================================================
     Memory usage:  VmHWM =        29Mb
                   VmPeak =       352Mb
     ===================================================================
     
     Using q-mesh file: ./LGXKG4.txt
     WARNING: q-point weigths do not add up to 1 [loadqmesh_serial]
     Size of q point mesh for interpolation:        165
     Using uniform k-mesh:    1   1   1
     Size of k point mesh for interpolation:          2
     Max number of k points per pool:                2

     Fermi energy coarse grid =  11.817696 eV

     Skipping the first    1 bands:

     The Fermi level will be determined with   6.00000 electrons

     Fermi energy is calculated from the fine k-mesh: Ef =  11.822747 eV

     ===================================================================

              ibndmin =     1  ebndmin =    11.818 eV
              ibndmax =     3  ebndmax =    11.818 eV


     Number of ep-matrix elements per pool :           54 ~=    0.42 Kb (@ 8 bytes/ DP)
     Number selected, total         100         100
     We only need to compute      165 q-points
      
      Electron-phonon vertex |g| (meV)

     iq =       1 coord.:    0.5000000   0.0000000   0.0000000
     ik =       1 coord.:    0.0000000   0.0000000   0.0000000
      ibnd     jbnd     imode   enk[eV]    enk+q[eV]  omega(q)[meV]   |g|[meV]
     ------------------------------------------------------------------------------
        1        1        1     11.8177      0.7493       39.2701439128    0.1135051260E+03
        1        1        2     11.8177      0.7493       39.2701439128    0.1135051260E+03
        1        1        3     11.8177      0.7493      113.4070963431    0.1863194789E+03
        1        1        4     11.8177      0.7493      127.4460774748    0.5570603460E+01
        1        1        5     11.8177      0.7493      127.4460774748    0.5570603460E+01
        1        1        6     11.8177      0.7493      149.2168377143    0.1413233456E+03
        1        2        1     11.8177      9.7532       39.2701439128    0.5661315907E+02
        1        2        2     11.8177      9.7532       39.2701439128    0.5661315907E+02
        1        2        3     11.8177      9.7532      113.4070963431    0.6472712887E+02
        1        2        4     11.8177      9.7532      127.4460774748    0.2430094151E+03
        1        2        5     11.8177      9.7532      127.4460774748    0.2430094151E+03
        1        2        6     11.8177      9.7532      149.2168377143    0.2670452392E+03
        1        3        1     11.8177      9.7532       39.2701439128    0.5661315907E+02
        1        3        2     11.8177      9.7532       39.2701439128    0.5661315907E+02
        1        3        3     11.8177      9.7532      113.4070963431    0.6472712887E+02
        1        3        4     11.8177      9.7532      127.4460774748    0.2430094151E+03
        1        3        5     11.8177      9.7532      127.4460774748    0.2430094151E+03
        1        3        6     11.8177      9.7532      149.2168377143    0.2670452392E+03
        2        1        1     11.8177      0.7493       39.2701439128    0.1135051260E+03
        2        1        2     11.8177      0.7493       39.2701439128    0.1135051260E+03
        2        1        3     11.8177      0.7493      113.4070963431    0.1863194789E+03
        2        1        4     11.8177      0.7493      127.4460774748    0.5570603460E+01
        2        1        5     11.8177      0.7493      127.4460774748    0.5570603460E+01
        2        1        6     11.8177      0.7493      149.2168377143    0.1413233456E+03
        2        2        1     11.8177      9.7532       39.2701439128    0.5661315907E+02
        2        2        2     11.8177      9.7532       39.2701439128    0.5661315907E+02
        2        2        3     11.8177      9.7532      113.4070963431    0.6472712887E+02
        2        2        4     11.8177      9.7532      127.4460774748    0.2430094151E+03
        2        2        5     11.8177      9.7532      127.4460774748    0.2430094151E+03
        2        2        6     11.8177      9.7532      149.2168377143    0.2670452392E+03
        2        3        1     11.8177      9.7532       39.2701439128    0.5661315907E+02
        2        3        2     11.8177      9.7532       39.2701439128    0.5661315907E+02
        2        3        3     11.8177      9.7532      113.4070963431    0.6472712887E+02
        2        3        4     11.8177      9.7532      127.4460774748    0.2430094151E+03
        2        3        5     11.8177      9.7532      127.4460774748    0.2430094151E+03
        2        3        6     11.8177      9.7532      149.2168377143    0.2670452392E+03
        3        1        1     11.8177      0.7493       39.2701439128    0.1135051260E+03
        3        1        2     11.8177      0.7493       39.2701439128    0.1135051260E+03
        3        1        3     11.8177      0.7493      113.4070963431    0.1863194789E+03
        3        1        4     11.8177      0.7493      127.4460774748    0.5570603460E+01
        3        1        5     11.8177      0.7493      127.4460774748    0.5570603460E+01
        3        1        6     11.8177      0.7493      149.2168377143    0.1413233456E+03
        3        2        1     11.8177      9.7532       39.2701439128    0.5661315907E+02
        3        2        2     11.8177      9.7532       39.2701439128    0.5661315907E+02
        3        2        3     11.8177      9.7532      113.4070963431    0.6472712887E+02
        3        2        4     11.8177      9.7532      127.4460774748    0.2430094151E+03
        3        2        5     11.8177      9.7532      127.4460774748    0.2430094151E+03
        3        2        6     11.8177      9.7532      149.2168377143    0.2670452392E+03
        3        3        1     11.8177      9.7532       39.2701439128    0.5661315907E+02
        3        3        2     11.8177      9.7532       39.2701439128    0.5661315907E+02
        3        3        3     11.8177      9.7532      113.4070963431    0.6472712887E+02
        3        3        4     11.8177      9.7532      127.4460774748    0.2430094151E+03
        3        3        5     11.8177      9.7532      127.4460774748    0.2430094151E+03
        3        3        6     11.8177      9.7532      149.2168377143    0.2670452392E+03
     ------------------------------------------------------------------------------

      Electron-phonon vertex |g| (meV)

     iq =       2 coord.:    0.4883721   0.0000000   0.0000000
     ik =       1 coord.:    0.0000000   0.0000000   0.0000000
      ibnd     jbnd     imode   enk[eV]    enk+q[eV]  omega(q)[meV]   |g|[meV]
     ------------------------------------------------------------------------------
        1        1        1     11.8177      0.7641       39.2523682937    0.1134366395E+03
        1        1        2     11.8177      0.7641       39.2523682937    0.1134366395E+03
        1        1        3     11.8177      0.7641      113.3366502801    0.1864295697E+03
        1        1        4     11.8177      0.7641      127.4680535484    0.5796149858E+01
        1        1        5     11.8177      0.7641      127.4680535484    0.5796149858E+01
        1        1        6     11.8177      0.7641      149.2623712308    0.1406894864E+03
        1        2        1     11.8177      9.7560       39.2523682937    0.5651989257E+02
        1        2        2     11.8177      9.7560       39.2523682937    0.5651989257E+02
        1        2        3     11.8177      9.7560      113.3366502801    0.6506579553E+02
        1        2        4     11.8177      9.7560      127.4680535484    0.2430069043E+03
        1        2        5     11.8177      9.7560      127.4680535484    0.2430069043E+03
        1        2        6     11.8177      9.7560      149.2623712308    0.2668139778E+03
        1        3        1     11.8177      9.7560       39.2523682937    0.5651989257E+02
        1        3        2     11.8177      9.7560       39.2523682937    0.5651989257E+02
        1        3        3     11.8177      9.7560      113.3366502801    0.6506579553E+02
        1        3        4     11.8177      9.7560      127.4680535484    0.2430069043E+03
        1        3        5     11.8177      9.7560      127.4680535484    0.2430069043E+03
        1        3        6     11.8177      9.7560      149.2623712308    0.2668139778E+03
        2        1        1     11.8177      0.7641       39.2523682937    0.1134366395E+03
        2        1        2     11.8177      0.7641       39.2523682937    0.1134366395E+03
        2        1        3     11.8177      0.7641      113.3366502801    0.1864295697E+03
        2        1        4     11.8177      0.7641      127.4680535484    0.5796149858E+01
        2        1        5     11.8177      0.7641      127.4680535484    0.5796149858E+01
        2        1        6     11.8177      0.7641      149.2623712308    0.1406894864E+03
        2        2        1     11.8177      9.7560       39.2523682937    0.5651989257E+02
        2        2        2     11.8177      9.7560       39.2523682937    0.5651989257E+02
        2        2        3     11.8177      9.7560      113.3366502801    0.6506579553E+02
        2        2        4     11.8177      9.7560      127.4680535484    0.2430069043E+03
        2        2        5     11.8177      9.7560      127.4680535484    0.2430069043E+03
        2        2        6     11.8177      9.7560      149.2623712308    0.2668139778E+03
        2        3        1     11.8177      9.7560       39.2523682937    0.5651989257E+02
        2        3        2     11.8177      9.7560       39.2523682937    0.5651989257E+02
        2        3        3     11.8177      9.7560      113.3366502801    0.6506579553E+02
        2        3        4     11.8177      9.7560      127.4680535484    0.2430069043E+03
        2        3        5     11.8177      9.7560      127.4680535484    0.2430069043E+03
        2        3        6     11.8177      9.7560      149.2623712308    0.2668139778E+03
        3        1        1     11.8177      0.7641       39.2523682937    0.1134366395E+03
        3        1        2     11.8177      0.7641       39.2523682937    0.1134366395E+03
        3        1        3     11.8177      0.7641      113.3366502801    0.1864295697E+03
        3        1        4     11.8177      0.7641      127.4680535484    0.5796149858E+01
        3        1        5     11.8177      0.7641      127.4680535484    0.5796149858E+01
        3        1        6     11.8177      0.7641      149.2623712308    0.1406894864E+03
        3        2        1     11.8177      9.7560       39.2523682937    0.5651989257E+02
        3        2        2     11.8177      9.7560       39.2523682937    0.5651989257E+02
        3        2        3     11.8177      9.7560      113.3366502801    0.6506579553E+02
        3        2        4     11.8177      9.7560      127.4680535484    0.2430069043E+03
        3        2        5     11.8177      9.7560      127.4680535484    0.2430069043E+03
        3        2        6     11.8177      9.7560      149.2623712308    0.2668139778E+03
        3        3        1     11.8177      9.7560       39.2523682937    0.5651989257E+02
        3        3        2     11.8177      9.7560       39.2523682937    0.5651989257E+02
        3        3        3     11.8177      9.7560      113.3366502801    0.6506579553E+02
        3        3        4     11.8177      9.7560      127.4680535484    0.2430069043E+03
        3        3        5     11.8177      9.7560      127.4680535484    0.2430069043E+03
        3        3        6     11.8177      9.7560      149.2623712308    0.2668139778E+03
     ------------------------------------------------------------------------------

      Electron-phonon vertex |g| (meV)

     iq =       3 coord.:    0.4767442   0.0000000   0.0000000
     ik =       1 coord.:    0.0000000   0.0000000   0.0000000
      ibnd     jbnd     imode   enk[eV]    enk+q[eV]  omega(q)[meV]   |g|[meV]
     ------------------------------------------------------------------------------
        1        1        1     11.8177      0.8083       39.1989016653    0.1132304051E+03
        1        1        2     11.8177      0.8083       39.1989016653    0.1132304051E+03
        1        1        3     11.8177      0.8083      113.1252252009    0.1867484040E+03
        1        1        4     11.8177      0.8083      127.5338986695    0.6471084049E+01
        1        1        5     11.8177      0.8083      127.5338986695    0.6471084049E+01
        1        1        6     11.8177      0.8083      149.3988206014    0.1388013888E+03
        1        2        1     11.8177      9.7642       39.1989016653    0.5624116885E+02
        1        2        2     11.8177      9.7642       39.1989016653    0.5624116885E+02
        1        2        3     11.8177      9.7642      113.1252252009    0.6605675418E+02
        1        2        4     11.8177      9.7642      127.5338986695    0.2429993477E+03
        1        2        5     11.8177      9.7642      127.5338986695    0.2429993477E+03
        1        2        6     11.8177      9.7642      149.3988206014    0.2661248915E+03
        1        3        1     11.8177      9.7642       39.1989016653    0.5624116885E+02
        1        3        2     11.8177      9.7642       39.1989016653    0.5624116885E+02
        1        3        3     11.8177      9.7642      113.1252252009    0.6605675418E+02
        1        3        4     11.8177      9.7642      127.5338986695    0.2429993477E+03
        1        3        5     11.8177      9.7642      127.5338986695    0.2429993477E+03
        1        3        6     11.8177      9.7642      149.3988206014    0.2661248915E+03
        2        1        1     11.8177      0.8083       39.1989016653    0.1132304051E+03
        2        1        2     11.8177      0.8083       39.1989016653    0.1132304051E+03
        2        1        3     11.8177      0.8083      113.1252252009    0.1867484040E+03
        2        1        4     11.8177      0.8083      127.5338986695    0.6471084049E+01
        2        1        5     11.8177      0.8083      127.5338986695    0.6471084049E+01
        2        1        6     11.8177      0.8083      149.3988206014    0.1388013888E+03
        2        2        1     11.8177      9.7642       39.1989016653    0.5624116885E+02
        2        2        2     11.8177      9.7642       39.1989016653    0.5624116885E+02
        2        2        3     11.8177      9.7642      113.1252252009    0.6605675418E+02
        2        2        4     11.8177      9.7642      127.5338986695    0.2429993477E+03
        2        2        5     11.8177      9.7642      127.5338986695    0.2429993477E+03
        2        2        6     11.8177      9.7642      149.3988206014    0.2661248915E+03
        2        3        1     11.8177      9.7642       39.1989016653    0.5624116885E+02
        2        3        2     11.8177      9.7642       39.1989016653    0.5624116885E+02
        2        3        3     11.8177      9.7642      113.1252252009    0.6605675418E+02
        2        3        4     11.8177      9.7642      127.5338986695    0.2429993477E+03
        2        3        5     11.8177      9.7642      127.5338986695    0.2429993477E+03
        2        3        6     11.8177      9.7642      149.3988206014    0.2661248915E+03
        3        1        1     11.8177      0.8083       39.1989016653    0.1132304051E+03
        3        1        2     11.8177      0.8083       39.1989016653    0.1132304051E+03
        3        1        3     11.8177      0.8083      113.1252252009    0.1867484040E+03
        3        1        4     11.8177      0.8083      127.5338986695    0.6471084049E+01
        3        1        5     11.8177      0.8083      127.5338986695    0.6471084049E+01
        3        1        6     11.8177      0.8083      149.3988206014    0.1388013888E+03
        3        2        1     11.8177      9.7642       39.1989016653    0.5624116885E+02
        3        2        2     11.8177      9.7642       39.1989016653    0.5624116885E+02
        3        2        3     11.8177      9.7642      113.1252252009    0.6605675418E+02
        3        2        4     11.8177      9.7642      127.5338986695    0.2429993477E+03
        3        2        5     11.8177      9.7642      127.5338986695    0.2429993477E+03
        3        2        6     11.8177      9.7642      149.3988206014    0.2661248915E+03
        3        3        1     11.8177      9.7642       39.1989016653    0.5624116885E+02
        3        3        2     11.8177      9.7642       39.1989016653    0.5624116885E+02
        3        3        3     11.8177      9.7642      113.1252252009    0.6605675418E+02
        3        3        4     11.8177      9.7642      127.5338986695    0.2429993477E+03
        3        3        5     11.8177      9.7642      127.5338986695    0.2429993477E+03
        3        3        6     11.8177      9.7642      149.3988206014    0.2661248915E+03
     ------------------------------------------------------------------------------

      Electron-phonon vertex |g| (meV)

     iq =       4 coord.:    0.4651163   0.0000000   0.0000000
     ik =       1 coord.:    0.0000000   0.0000000   0.0000000
      ibnd     jbnd     imode   enk[eV]    enk+q[eV]  omega(q)[meV]   |g|[meV]
     ------------------------------------------------------------------------------
        1        1        1     11.8177      0.8817       39.1093298814    0.1128841410E+03
        1        1        2     11.8177      0.8817       39.1093298814    0.1128841410E+03
        1        1        3     11.8177      0.8817      112.7725770337    0.1872362973E+03
        1        1        4     11.8177      0.8817      127.6433622799    0.7590278143E+01
        1        1        5     11.8177      0.8817      127.6433622799    0.7590278143E+01
        1        1        6     11.8177      0.8817      149.6257190872    0.1357131193E+03
        1        2        1     11.8177      9.7779       39.1093298814    0.5578015998E+02
        1        2        2     11.8177      9.7779       39.1093298814    0.5578015998E+02
        1        2        3     11.8177      9.7779      112.7725770337    0.6762005833E+02
        1        2        4     11.8177      9.7779      127.6433622799    0.2429866798E+03
        1        2        5     11.8177      9.7779      127.6433622799    0.2429866798E+03
        1        2        6     11.8177      9.7779      149.6257190872    0.2649950012E+03
        1        3        1     11.8177      9.7779       39.1093298814    0.5578015998E+02
        1        3        2     11.8177      9.7779       39.1093298814    0.5578015998E+02
        1        3        3     11.8177      9.7779      112.7725770337    0.6762005833E+02
        1        3        4     11.8177      9.7779      127.6433622799    0.2429866798E+03
        1        3        5     11.8177      9.7779      127.6433622799    0.2429866798E+03
        1        3        6     11.8177      9.7779      149.6257190872    0.2649950012E+03
        2        1        1     11.8177      0.8817       39.1093298814    0.1128841410E+03
        2        1        2     11.8177      0.8817       39.1093298814    0.1128841410E+03
        2        1        3     11.8177      0.8817      112.7725770337    0.1872362973E+03
        2        1        4     11.8177      0.8817      127.6433622799    0.7590278143E+01
        2        1        5     11.8177      0.8817      127.6433622799    0.7590278143E+01
        2        1        6     11.8177      0.8817      149.6257190872    0.1357131193E+03
        2        2        1     11.8177      9.7779       39.1093298814    0.5578015998E+02
        2        2        2     11.8177      9.7779       39.1093298814    0.5578015998E+02
        2        2        3     11.8177      9.7779      112.7725770337    0.6762005833E+02
        2        2        4     11.8177      9.7779      127.6433622799    0.2429866798E+03
        2        2        5     11.8177      9.7779      127.6433622799    0.2429866798E+03
        2        2        6     11.8177      9.7779      149.6257190872    0.2649950012E+03
        2        3        1     11.8177      9.7779       39.1093298814    0.5578015998E+02
        2        3        2     11.8177      9.7779       39.1093298814    0.5578015998E+02
        2        3        3     11.8177      9.7779      112.7725770337    0.6762005833E+02
        2        3        4     11.8177      9.7779      127.6433622799    0.2429866798E+03
        2        3        5     11.8177      9.7779      127.6433622799    0.2429866798E+03
        2        3        6     11.8177      9.7779      149.6257190872    0.2649950012E+03
        3        1        1     11.8177      0.8817       39.1093298814    0.1128841410E+03
        3        1        2     11.8177      0.8817       39.1093298814    0.1128841410E+03
        3        1        3     11.8177      0.8817      112.7725770337    0.1872362973E+03
        3        1        4     11.8177      0.8817      127.6433622799    0.7590278143E+01
        3        1        5     11.8177      0.8817      127.6433622799    0.7590278143E+01
        3        1        6     11.8177      0.8817      149.6257190872    0.1357131193E+03
        3        2        1     11.8177      9.7779       39.1093298814    0.5578015998E+02
        3        2        2     11.8177      9.7779       39.1093298814    0.5578015998E+02
        3        2        3     11.8177      9.7779      112.7725770337    0.6762005833E+02
        3        2        4     11.8177      9.7779      127.6433622799    0.2429866798E+03
        3        2        5     11.8177      9.7779      127.6433622799    0.2429866798E+03
        3        2        6     11.8177      9.7779      149.6257190872    0.2649950012E+03
        3        3        1     11.8177      9.7779       39.1093298814    0.5578015998E+02
        3        3        2     11.8177      9.7779       39.1093298814    0.5578015998E+02
        3        3        3     11.8177      9.7779      112.7725770337    0.6762005833E+02
        3        3        4     11.8177      9.7779      127.6433622799    0.2429866798E+03
        3        3        5     11.8177      9.7779      127.6433622799    0.2429866798E+03
        3        3        6     11.8177      9.7779      149.6257190872    0.2649950012E+03
     ------------------------------------------------------------------------------

      Electron-phonon vertex |g| (meV)

     iq =       5 coord.:    0.4534884   0.0000000   0.0000000
     ik =       1 coord.:    0.0000000   0.0000000   0.0000000
      ibnd     jbnd     imode   enk[eV]    enk+q[eV]  omega(q)[meV]   |g|[meV]
     ------------------------------------------------------------------------------
        1        1        1     11.8177      0.9839       38.9829796736    0.1123941699E+03
        1        1        2     11.8177      0.9839       38.9829796736    0.1123941699E+03
        1        1        3     11.8177      0.9839      112.2783513513    0.1878324149E+03
        1        1        4     11.8177      0.9839      127.7960226984    0.9145254747E+01
        1        1        5     11.8177      0.9839      127.7960226984    0.9145254747E+01
        1        1        6     11.8177      0.9839      149.9422476676    0.1315149259E+03
        1        2        1     11.8177      9.7970       38.9829796736    0.5514206437E+02
        1        2        2     11.8177      9.7970       38.9829796736    0.5514206437E+02
        1        2        3     11.8177      9.7970      112.2783513513    0.6963905918E+02
        1        2        4     11.8177      9.7970      127.7960226984    0.2429688074E+03
        1        2        5     11.8177      9.7970      127.7960226984    0.2429688074E+03
        1        2        6     11.8177      9.7970      149.9422476676    0.2634517932E+03
        1        3        1     11.8177      9.7970       38.9829796736    0.5514206437E+02
        1        3        2     11.8177      9.7970       38.9829796736    0.5514206437E+02
        1        3        3     11.8177      9.7970      112.2783513513    0.6963905918E+02
        1        3        4     11.8177      9.7970      127.7960226984    0.2429688074E+03
        1        3        5     11.8177      9.7970      127.7960226984    0.2429688074E+03
        1        3        6     11.8177      9.7970      149.9422476676    0.2634517932E+03
        2        1        1     11.8177      0.9839       38.9829796736    0.1123941699E+03
        2        1        2     11.8177      0.9839       38.9829796736    0.1123941699E+03
        2        1        3     11.8177      0.9839      112.2783513513    0.1878324149E+03
        2        1        4     11.8177      0.9839      127.7960226984    0.9145254747E+01
        2        1        5     11.8177      0.9839      127.7960226984    0.9145254747E+01
        2        1        6     11.8177      0.9839      149.9422476676    0.1315149259E+03
        2        2        1     11.8177      9.7970       38.9829796736    0.5514206437E+02
        2        2        2     11.8177      9.7970       38.9829796736    0.5514206437E+02
        2        2        3     11.8177      9.7970      112.2783513513    0.6963905918E+02
        2        2        4     11.8177      9.7970      127.7960226984    0.2429688074E+03
        2        2        5     11.8177      9.7970      127.7960226984    0.2429688074E+03
        2        2        6     11.8177      9.7970      149.9422476676    0.2634517932E+03
        2        3        1     11.8177      9.7970       38.9829796736    0.5514206437E+02
        2        3        2     11.8177      9.7970       38.9829796736    0.5514206437E+02
        2        3        3     11.8177      9.7970      112.2783513513    0.6963905918E+02
        2        3        4     11.8177      9.7970      127.7960226984    0.2429688074E+03
        2        3        5     11.8177      9.7970      127.7960226984    0.2429688074E+03
        2        3        6     11.8177      9.7970      149.9422476676    0.2634517932E+03
        3        1        1     11.8177      0.9839       38.9829796736    0.1123941699E+03
        3        1        2     11.8177      0.9839       38.9829796736    0.1123941699E+03
        3        1        3     11.8177      0.9839      112.2783513513    0.1878324149E+03
        3        1        4     11.8177      0.9839      127.7960226984    0.9145254747E+01
        3        1        5     11.8177      0.9839      127.7960226984    0.9145254747E+01
        3        1        6     11.8177      0.9839      149.9422476676    0.1315149259E+03
        3        2        1     11.8177      9.7970       38.9829796736    0.5514206437E+02
        3        2        2     11.8177      9.7970       38.9829796736    0.5514206437E+02
        3        2        3     11.8177      9.7970      112.2783513513    0.6963905918E+02
        3        2        4     11.8177      9.7970      127.7960226984    0.2429688074E+03
        3        2        5     11.8177      9.7970      127.7960226984    0.2429688074E+03
        3        2        6     11.8177      9.7970      149.9422476676    0.2634517932E+03
        3        3        1     11.8177      9.7970       38.9829796736    0.5514206437E+02
        3        3        2     11.8177      9.7970       38.9829796736    0.5514206437E+02
        3        3        3     11.8177      9.7970      112.2783513513    0.6963905918E+02
        3        3        4     11.8177      9.7970      127.7960226984    0.2429688074E+03
        3        3        5     11.8177      9.7970      127.7960226984    0.2429688074E+03
        3        3        6     11.8177      9.7970      149.9422476676    0.2634517932E+03
     ------------------------------------------------------------------------------

      Electron-phonon vertex |g| (meV)

     iq =       6 coord.:    0.4418605   0.0000000   0.0000000
     ik =       1 coord.:    0.0000000   0.0000000   0.0000000
      ibnd     jbnd     imode   enk[eV]    enk+q[eV]  omega(q)[meV]   |g|[meV]
     ------------------------------------------------------------------------------
        1        1        1     11.8177      1.1145       38.8189432607    0.1117556009E+03
        1        1        2     11.8177      1.1145       38.8189432607    0.1117556009E+03
        1        1        3     11.8177      1.1145      111.6421523169    0.1884616412E+03
        1        1        4     11.8177      1.1145      127.9912813749    0.1112429151E+02
        1        1        5     11.8177      1.1145      127.9912813749    0.1112429151E+02
        1        1        6     11.8177      1.1145      150.3471826536    0.1263341314E+03
        1        2        1     11.8177      9.8213       38.8189432607    0.5433397785E+02
        1        2        2     11.8177      9.8213       38.8189432607    0.5433397785E+02
        1        2        3     11.8177      9.8213      111.6421523169    0.7197885106E+02
        1        2        4     11.8177      9.8213      127.9912813749    0.2429456323E+03
        1        2        5     11.8177      9.8213      127.9912813749    0.2429456323E+03
        1        2        6     11.8177      9.8213      150.3471826536    0.2615320028E+03
        1        3        1     11.8177      9.8213       38.8189432607    0.5433397785E+02
        1        3        2     11.8177      9.8213       38.8189432607    0.5433397785E+02
        1        3        3     11.8177      9.8213      111.6421523169    0.7197885106E+02
        1        3        4     11.8177      9.8213      127.9912813749    0.2429456323E+03
        1        3        5     11.8177      9.8213      127.9912813749    0.2429456323E+03
        1        3        6     11.8177      9.8213      150.3471826536    0.2615320028E+03
        2        1        1     11.8177      1.1145       38.8189432607    0.1117556009E+03
        2        1        2     11.8177      1.1145       38.8189432607    0.1117556009E+03
        2        1        3     11.8177      1.1145      111.6421523169    0.1884616412E+03
        2        1        4     11.8177      1.1145      127.9912813749    0.1112429151E+02
        2        1        5     11.8177      1.1145      127.9912813749    0.1112429151E+02
        2        1        6     11.8177      1.1145      150.3471826536    0.1263341314E+03
        2        2        1     11.8177      9.8213       38.8189432607    0.5433397785E+02
        2        2        2     11.8177      9.8213       38.8189432607    0.5433397785E+02
        2        2        3     11.8177      9.8213      111.6421523169    0.7197885106E+02
        2        2        4     11.8177      9.8213      127.9912813749    0.2429456323E+03
        2        2        5     11.8177      9.8213      127.9912813749    0.2429456323E+03
        2        2        6     11.8177      9.8213      150.3471826536    0.2615320028E+03
        2        3        1     11.8177      9.8213       38.8189432607    0.5433397785E+02
        2        3        2     11.8177      9.8213       38.8189432607    0.5433397785E+02
        2        3        3     11.8177      9.8213      111.6421523169    0.7197885106E+02
        2        3        4     11.8177      9.8213      127.9912813749    0.2429456323E+03
        2        3        5     11.8177      9.8213      127.9912813749    0.2429456323E+03
        2        3        6     11.8177      9.8213      150.3471826536    0.2615320028E+03
        3        1        1     11.8177      1.1145       38.8189432607    0.1117556009E+03
        3        1        2     11.8177      1.1145       38.8189432607    0.1117556009E+03
        3        1        3     11.8177      1.1145      111.6421523169    0.1884616412E+03
        3        1        4     11.8177      1.1145      127.9912813749    0.1112429151E+02
        3        1        5     11.8177      1.1145      127.9912813749    0.1112429151E+02
        3        1        6     11.8177      1.1145      150.3471826536    0.1263341314E+03
        3        2        1     11.8177      9.8213       38.8189432607    0.5433397785E+02
        3        2        2     11.8177      9.8213       38.8189432607    0.5433397785E+02
        3        2        3     11.8177      9.8213      111.6421523169    0.7197885106E+02
        3        2        4     11.8177      9.8213      127.9912813749    0.2429456323E+03
        3        2        5     11.8177      9.8213      127.9912813749    0.2429456323E+03
        3        2        6     11.8177      9.8213      150.3471826536    0.2615320028E+03
        3        3        1     11.8177      9.8213       38.8189432607    0.5433397785E+02
        3        3        2     11.8177      9.8213       38.8189432607    0.5433397785E+02
        3        3        3     11.8177      9.8213      111.6421523169    0.7197885106E+02
        3        3        4     11.8177      9.8213      127.9912813749    0.2429456323E+03
        3        3        5     11.8177      9.8213      127.9912813749    0.2429456323E+03
        3        3        6     11.8177      9.8213      150.3471826536    0.2615320028E+03
     ------------------------------------------------------------------------------

      Electron-phonon vertex |g| (meV)

     iq =       7 coord.:    0.4302326   0.0000000   0.0000000
     ik =       1 coord.:    0.0000000   0.0000000   0.0000000
      ibnd     jbnd     imode   enk[eV]    enk+q[eV]  omega(q)[meV]   |g|[meV]
     ------------------------------------------------------------------------------
        1        1        1     11.8177      1.2726       38.6161111552    0.1109625713E+03
        1        1        2     11.8177      1.2726       38.6161111552    0.1109625713E+03
        1        1        3     11.8177      1.2726      110.8636226660    0.1890422728E+03
        1        1        4     11.8177      1.2726      128.2283555834    0.1351256530E+02
        1        1        5     11.8177      1.2726      128.2283555834    0.1351256530E+02
        1        1        6     11.8177      1.2726      150.8388383145    0.1203377287E+03
        1        2        1     11.8177      9.8508       38.6161111552    0.5336472022E+02
        1        2        2     11.8177      9.8508       38.6161111552    0.5336472022E+02
        1        2        3     11.8177      9.8508      110.8636226660    0.7450313746E+02
        1        2        4     11.8177      9.8508      128.2283555834    0.2429170795E+03
        1        2        5     11.8177      9.8508      128.2283555834    0.2429170795E+03
        1        2        6     11.8177      9.8508      150.8388383145    0.2592801265E+03
        1        3        1     11.8177      9.8508       38.6161111552    0.5336472022E+02
        1        3        2     11.8177      9.8508       38.6161111552    0.5336472022E+02
        1        3        3     11.8177      9.8508      110.8636226660    0.7450313746E+02
        1        3        4     11.8177      9.8508      128.2283555834    0.2429170795E+03
        1        3        5     11.8177      9.8508      128.2283555834    0.2429170795E+03
        1        3        6     11.8177      9.8508      150.8388383145    0.2592801265E+03
        2        1        1     11.8177      1.2726       38.6161111552    0.1109625713E+03
        2        1        2     11.8177      1.2726       38.6161111552    0.1109625713E+03
        2        1        3     11.8177      1.2726      110.8636226660    0.1890422728E+03
        2        1        4     11.8177      1.2726      128.2283555834    0.1351256530E+02
        2        1        5     11.8177      1.2726      128.2283555834    0.1351256530E+02
        2        1        6     11.8177      1.2726      150.8388383145    0.1203377287E+03
        2        2        1     11.8177      9.8508       38.6161111552    0.5336472022E+02
        2        2        2     11.8177      9.8508       38.6161111552    0.5336472022E+02
        2        2        3     11.8177      9.8508      110.8636226660    0.7450313746E+02
        2        2        4     11.8177      9.8508      128.2283555834    0.2429170795E+03
        2        2        5     11.8177      9.8508      128.2283555834    0.2429170795E+03
        2        2        6     11.8177      9.8508      150.8388383145    0.2592801265E+03
        2        3        1     11.8177      9.8508       38.6161111552    0.5336472022E+02
        2        3        2     11.8177      9.8508       38.6161111552    0.5336472022E+02
        2        3        3     11.8177      9.8508      110.8636226660    0.7450313746E+02
        2        3        4     11.8177      9.8508      128.2283555834    0.2429170795E+03
        2        3        5     11.8177      9.8508      128.2283555834    0.2429170795E+03
        2        3        6     11.8177      9.8508      150.8388383145    0.2592801265E+03
        3        1        1     11.8177      1.2726       38.6161111552    0.1109625713E+03
        3        1        2     11.8177      1.2726       38.6161111552    0.1109625713E+03
        3        1        3     11.8177      1.2726      110.8636226660    0.1890422728E+03
        3        1        4     11.8177      1.2726      128.2283555834    0.1351256530E+02
        3        1        5     11.8177      1.2726      128.2283555834    0.1351256530E+02
        3        1        6     11.8177      1.2726      150.8388383145    0.1203377287E+03
        3        2        1     11.8177      9.8508       38.6161111552    0.5336472022E+02
        3        2        2     11.8177      9.8508       38.6161111552    0.5336472022E+02
        3        2        3     11.8177      9.8508      110.8636226660    0.7450313746E+02
        3        2        4     11.8177      9.8508      128.2283555834    0.2429170795E+03
        3        2        5     11.8177      9.8508      128.2283555834    0.2429170795E+03
        3        2        6     11.8177      9.8508      150.8388383145    0.2592801265E+03
        3        3        1     11.8177      9.8508       38.6161111552    0.5336472022E+02
        3        3        2     11.8177      9.8508       38.6161111552    0.5336472022E+02
        3        3        3     11.8177      9.8508      110.8636226660    0.7450313746E+02
        3        3        4     11.8177      9.8508      128.2283555834    0.2429170795E+03
        3        3        5     11.8177      9.8508      128.2283555834    0.2429170795E+03
        3        3        6     11.8177      9.8508      150.8388383145    0.2592801265E+03
     ------------------------------------------------------------------------------

      Electron-phonon vertex |g| (meV)

     iq =       8 coord.:    0.4186047   0.0000000   0.0000000
     ik =       1 coord.:    0.0000000   0.0000000   0.0000000
      ibnd     jbnd     imode   enk[eV]    enk+q[eV]  omega(q)[meV]   |g|[meV]
     ------------------------------------------------------------------------------
        1        1        1     11.8177      1.4574       38.3732116570    0.1100085370E+03
        1        1        2     11.8177      1.4574       38.3732116570    0.1100085370E+03
        1        1        3     11.8177      1.4574      109.9425233422    0.1894933089E+03
        1        1        4     11.8177      1.4574      128.5062702223    0.1629233402E+02
        1        1        5     11.8177      1.4574      128.5062702223    0.1629233402E+02
        1        1        6     11.8177      1.4574      151.4150153588    0.1137379194E+03
        1        2        1     11.8177      9.8853       38.3732116570    0.5224462417E+02
        1        2        2     11.8177      9.8853       38.3732116570    0.5224462417E+02
        1        2        3     11.8177      9.8853      109.9425233422    0.7708654980E+02
        1        2        4     11.8177      9.8853      128.5062702223    0.2428831303E+03
        1        2        5     11.8177      9.8853      128.5062702223    0.2428831303E+03
        1        2        6     11.8177      9.8853      151.4150153588    0.2567468475E+03
        1        3        1     11.8177      9.8853       38.3732116570    0.5224462417E+02
        1        3        2     11.8177      9.8853       38.3732116570    0.5224462417E+02
        1        3        3     11.8177      9.8853      109.9425233422    0.7708654980E+02
        1        3        4     11.8177      9.8853      128.5062702223    0.2428831303E+03
        1        3        5     11.8177      9.8853      128.5062702223    0.2428831303E+03
        1        3        6     11.8177      9.8853      151.4150153588    0.2567468475E+03
        2        1        1     11.8177      1.4574       38.3732116570    0.1100085370E+03
        2        1        2     11.8177      1.4574       38.3732116570    0.1100085370E+03
        2        1        3     11.8177      1.4574      109.9425233422    0.1894933089E+03
        2        1        4     11.8177      1.4574      128.5062702223    0.1629233402E+02
        2        1        5     11.8177      1.4574      128.5062702223    0.1629233402E+02
        2        1        6     11.8177      1.4574      151.4150153588    0.1137379194E+03
        2        2        1     11.8177      9.8853       38.3732116570    0.5224462417E+02
        2        2        2     11.8177      9.8853       38.3732116570    0.5224462417E+02
        2        2        3     11.8177      9.8853      109.9425233422    0.7708654980E+02
        2        2        4     11.8177      9.8853      128.5062702223    0.2428831303E+03
        2        2        5     11.8177      9.8853      128.5062702223    0.2428831303E+03
        2        2        6     11.8177      9.8853      151.4150153588    0.2567468475E+03
        2        3        1     11.8177      9.8853       38.3732116570    0.5224462417E+02
        2        3        2     11.8177      9.8853       38.3732116570    0.5224462417E+02
        2        3        3     11.8177      9.8853      109.9425233422    0.7708654980E+02
        2        3        4     11.8177      9.8853      128.5062702223    0.2428831303E+03
        2        3        5     11.8177      9.8853      128.5062702223    0.2428831303E+03
        2        3        6     11.8177      9.8853      151.4150153588    0.2567468475E+03
        3        1        1     11.8177      1.4574       38.3732116570    0.1100085370E+03
        3        1        2     11.8177      1.4574       38.3732116570    0.1100085370E+03
        3        1        3     11.8177      1.4574      109.9425233422    0.1894933089E+03
        3        1        4     11.8177      1.4574      128.5062702223    0.1629233402E+02
        3        1        5     11.8177      1.4574      128.5062702223    0.1629233402E+02
        3        1        6     11.8177      1.4574      151.4150153588    0.1137379194E+03
        3        2        1     11.8177      9.8853       38.3732116570    0.5224462417E+02
        3        2        2     11.8177      9.8853       38.3732116570    0.5224462417E+02
        3        2        3     11.8177      9.8853      109.9425233422    0.7708654980E+02
        3        2        4     11.8177      9.8853      128.5062702223    0.2428831303E+03
        3        2        5     11.8177      9.8853      128.5062702223    0.2428831303E+03
        3        2        6     11.8177      9.8853      151.4150153588    0.2567468475E+03
        3        3        1     11.8177      9.8853       38.3732116570    0.5224462417E+02
        3        3        2     11.8177      9.8853       38.3732116570    0.5224462417E+02
        3        3        3     11.8177      9.8853      109.9425233422    0.7708654980E+02
        3        3        4     11.8177      9.8853      128.5062702223    0.2428831303E+03
        3        3        5     11.8177      9.8853      128.5062702223    0.2428831303E+03
        3        3        6     11.8177      9.8853      151.4150153588    0.2567468475E+03
     ------------------------------------------------------------------------------

      Electron-phonon vertex |g| (meV)

     iq =       9 coord.:    0.4069767   0.0000000   0.0000000
     ik =       1 coord.:    0.0000000   0.0000000   0.0000000
      ibnd     jbnd     imode   enk[eV]    enk+q[eV]  omega(q)[meV]   |g|[meV]
     ------------------------------------------------------------------------------
        1        1        1     11.8177      1.6680       38.0888552695    0.1088865983E+03
        1        1        2     11.8177      1.6680       38.0888552695    0.1088865983E+03
        1        1        3     11.8177      1.6680      108.8788034628    0.1897404311E+03
        1        1        4     11.8177      1.6680      128.8238494988    0.1944315377E+02
        1        1        5     11.8177      1.6680      128.8238494988    0.1944315377E+02
        1        1        6     11.8177      1.6680      152.0729639489    0.1068018837E+03
        1        2        1     11.8177      9.9246       38.0888552695    0.5098529431E+02
        1        2        2     11.8177      9.9246       38.0888552695    0.5098529431E+02
        1        2        3     11.8177      9.9246      108.8788034628    0.7962186267E+02
        1        2        4     11.8177      9.9246      128.8238494988    0.2428438538E+03
        1        2        5     11.8177      9.9246      128.8238494988    0.2428438538E+03
        1        2        6     11.8177      9.9246      152.0729639489    0.2539875578E+03
        1        3        1     11.8177      9.9246       38.0888552695    0.5098529431E+02
        1        3        2     11.8177      9.9246       38.0888552695    0.5098529431E+02
        1        3        3     11.8177      9.9246      108.8788034628    0.7962186267E+02
        1        3        4     11.8177      9.9246      128.8238494988    0.2428438538E+03
        1        3        5     11.8177      9.9246      128.8238494988    0.2428438538E+03
        1        3        6     11.8177      9.9246      152.0729639489    0.2539875578E+03
        2        1        1     11.8177      1.6680       38.0888552695    0.1088865983E+03
        2        1        2     11.8177      1.6680       38.0888552695    0.1088865983E+03
        2        1        3     11.8177      1.6680      108.8788034628    0.1897404311E+03
        2        1        4     11.8177      1.6680      128.8238494988    0.1944315377E+02
        2        1        5     11.8177      1.6680      128.8238494988    0.1944315377E+02
        2        1        6     11.8177      1.6680      152.0729639489    0.1068018837E+03
        2        2        1     11.8177      9.9246       38.0888552695    0.5098529431E+02
        2        2        2     11.8177      9.9246       38.0888552695    0.5098529431E+02
        2        2        3     11.8177      9.9246      108.8788034628    0.7962186267E+02
        2        2        4     11.8177      9.9246      128.8238494988    0.2428438538E+03
        2        2        5     11.8177      9.9246      128.8238494988    0.2428438538E+03
        2        2        6     11.8177      9.9246      152.0729639489    0.2539875578E+03
        2        3        1     11.8177      9.9246       38.0888552695    0.5098529431E+02
        2        3        2     11.8177      9.9246       38.0888552695    0.5098529431E+02
        2        3        3     11.8177      9.9246      108.8788034628    0.7962186267E+02
        2        3        4     11.8177      9.9246      128.8238494988    0.2428438538E+03
        2        3        5     11.8177      9.9246      128.8238494988    0.2428438538E+03
        2        3        6     11.8177      9.9246      152.0729639489    0.2539875578E+03
        3        1        1     11.8177      1.6680       38.0888552695    0.1088865983E+03
        3        1        2     11.8177      1.6680       38.0888552695    0.1088865983E+03
        3        1        3     11.8177      1.6680      108.8788034628    0.1897404311E+03
        3        1        4     11.8177      1.6680      128.8238494988    0.1944315377E+02
        3        1        5     11.8177      1.6680      128.8238494988    0.1944315377E+02
        3        1        6     11.8177      1.6680      152.0729639489    0.1068018837E+03
        3        2        1     11.8177      9.9246       38.0888552695    0.5098529431E+02
        3        2        2     11.8177      9.9246       38.0888552695    0.5098529431E+02
        3        2        3     11.8177      9.9246      108.8788034628    0.7962186267E+02
        3        2        4     11.8177      9.9246      128.8238494988    0.2428438538E+03
        3        2        5     11.8177      9.9246      128.8238494988    0.2428438538E+03
        3        2        6     11.8177      9.9246      152.0729639489    0.2539875578E+03
        3        3        1     11.8177      9.9246       38.0888552695    0.5098529431E+02
        3        3        2     11.8177      9.9246       38.0888552695    0.5098529431E+02
        3        3        3     11.8177      9.9246      108.8788034628    0.7962186267E+02
        3        3        4     11.8177      9.9246      128.8238494988    0.2428438538E+03
        3        3        5     11.8177      9.9246      128.8238494988    0.2428438538E+03
        3        3        6     11.8177      9.9246      152.0729639489    0.2539875578E+03
     ------------------------------------------------------------------------------

      Electron-phonon vertex |g| (meV)

     iq =      10 coord.:    0.3953488   0.0000000   0.0000000
     ik =       1 coord.:    0.0000000   0.0000000   0.0000000
      ibnd     jbnd     imode   enk[eV]    enk+q[eV]  omega(q)[meV]   |g|[meV]
     ------------------------------------------------------------------------------
        1        1        1     11.8177      1.9032       37.7615821355    0.1075898449E+03
        1        1        2     11.8177      1.9032       37.7615821355    0.1075898449E+03
        1        1        3     11.8177      1.9032      107.6727408807    0.1897201454E+03
        1        1        4     11.8177      1.9032      129.1797093213    0.2294212733E+02
        1        1        5     11.8177      1.9032      129.1797093213    0.2294212733E+02
        1        1        6     11.8177      1.9032      152.8093923793    0.9986663372E+02
        1        2        1     11.8177      9.9684       37.7615821355    0.4959934565E+02
        1        2        2     11.8177      9.9684       37.7615821355    0.4959934565E+02
        1        2        3     11.8177      9.9684      107.6727408807    0.8202282144E+02
        1        2        4     11.8177      9.9684      129.1797093213    0.2427994381E+03
        1        2        5     11.8177      9.9684      129.1797093213    0.2427994381E+03
        1        2        6     11.8177      9.9684      152.8093923793    0.2510612420E+03
        1        3        1     11.8177      9.9684       37.7615821355    0.4959934565E+02
        1        3        2     11.8177      9.9684       37.7615821355    0.4959934565E+02
        1        3        3     11.8177      9.9684      107.6727408807    0.8202282144E+02
        1        3        4     11.8177      9.9684      129.1797093213    0.2427994381E+03
        1        3        5     11.8177      9.9684      129.1797093213    0.2427994381E+03
        1        3        6     11.8177      9.9684      152.8093923793    0.2510612420E+03
        2        1        1     11.8177      1.9032       37.7615821355    0.1075898449E+03
        2        1        2     11.8177      1.9032       37.7615821355    0.1075898449E+03
        2        1        3     11.8177      1.9032      107.6727408807    0.1897201454E+03
        2        1        4     11.8177      1.9032      129.1797093213    0.2294212733E+02
        2        1        5     11.8177      1.9032      129.1797093213    0.2294212733E+02
        2        1        6     11.8177      1.9032      152.8093923793    0.9986663372E+02
        2        2        1     11.8177      9.9684       37.7615821355    0.4959934565E+02
        2        2        2     11.8177      9.9684       37.7615821355    0.4959934565E+02
        2        2        3     11.8177      9.9684      107.6727408807    0.8202282144E+02
        2        2        4     11.8177      9.9684      129.1797093213    0.2427994381E+03
        2        2        5     11.8177      9.9684      129.1797093213    0.2427994381E+03
        2        2        6     11.8177      9.9684      152.8093923793    0.2510612420E+03
        2        3        1     11.8177      9.9684       37.7615821355    0.4959934565E+02
        2        3        2     11.8177      9.9684       37.7615821355    0.4959934565E+02
        2        3        3     11.8177      9.9684      107.6727408807    0.8202282144E+02
        2        3        4     11.8177      9.9684      129.1797093213    0.2427994381E+03
        2        3        5     11.8177      9.9684      129.1797093213    0.2427994381E+03
        2        3        6     11.8177      9.9684      152.8093923793    0.2510612420E+03
        3        1        1     11.8177      1.9032       37.7615821355    0.1075898449E+03
        3        1        2     11.8177      1.9032       37.7615821355    0.1075898449E+03
        3        1        3     11.8177      1.9032      107.6727408807    0.1897201454E+03
        3        1        4     11.8177      1.9032      129.1797093213    0.2294212733E+02
        3        1        5     11.8177      1.9032      129.1797093213    0.2294212733E+02
        3        1        6     11.8177      1.9032      152.8093923793    0.9986663372E+02
        3        2        1     11.8177      9.9684       37.7615821355    0.4959934565E+02
        3        2        2     11.8177      9.9684       37.7615821355    0.4959934565E+02
        3        2        3     11.8177      9.9684      107.6727408807    0.8202282144E+02
        3        2        4     11.8177      9.9684      129.1797093213    0.2427994381E+03
        3        2        5     11.8177      9.9684      129.1797093213    0.2427994381E+03
        3        2        6     11.8177      9.9684      152.8093923793    0.2510612420E+03
        3        3        1     11.8177      9.9684       37.7615821355    0.4959934565E+02
        3        3        2     11.8177      9.9684       37.7615821355    0.4959934565E+02
        3        3        3     11.8177      9.9684      107.6727408807    0.8202282144E+02
        3        3        4     11.8177      9.9684      129.1797093213    0.2427994381E+03
        3        3        5     11.8177      9.9684      129.1797093213    0.2427994381E+03
        3        3        6     11.8177      9.9684      152.8093923793    0.2510612420E+03
     ------------------------------------------------------------------------------

      Electron-phonon vertex |g| (meV)

     iq =      11 coord.:    0.3837209   0.0000000   0.0000000
     ik =       1 coord.:    0.0000000   0.0000000   0.0000000
      ibnd     jbnd     imode   enk[eV]    enk+q[eV]  omega(q)[meV]   |g|[meV]
     ------------------------------------------------------------------------------
        1        1        1     11.8177      2.1618       37.3899105654    0.1061117068E+03
        1        1        2     11.8177      2.1618       37.3899105654    0.1061117068E+03
        1        1        3     11.8177      2.1618      106.3246578814    0.1893823999E+03
        1        1        4     11.8177      2.1618      129.5722512156    0.2676417966E+02
        1        1        5     11.8177      2.1618      129.5722512156    0.2676417966E+02
        1        1        6     11.8177      2.1618      153.6203725277    0.9335564147E+02
        1        2        1     11.8177     10.0167       37.3899105654    0.4810013072E+02
        1        2        2     11.8177     10.0167       37.3899105654    0.4810013072E+02
        1        2        3     11.8177     10.0167      106.3246578814    0.8422478274E+02
        1        2        4     11.8177     10.0167      129.5722512156    0.2427502149E+03
        1        2        5     11.8177     10.0167      129.5722512156    0.2427502149E+03
        1        2        6     11.8177     10.0167      153.6203725277    0.2480292317E+03
        1        3        1     11.8177     10.0167       37.3899105654    0.4810013072E+02
        1        3        2     11.8177     10.0167       37.3899105654    0.4810013072E+02
        1        3        3     11.8177     10.0167      106.3246578814    0.8422478274E+02
        1        3        4     11.8177     10.0167      129.5722512156    0.2427502149E+03
        1        3        5     11.8177     10.0167      129.5722512156    0.2427502149E+03
        1        3        6     11.8177     10.0167      153.6203725277    0.2480292317E+03
        2        1        1     11.8177      2.1618       37.3899105654    0.1061117068E+03
        2        1        2     11.8177      2.1618       37.3899105654    0.1061117068E+03
        2        1        3     11.8177      2.1618      106.3246578814    0.1893823999E+03
        2        1        4     11.8177      2.1618      129.5722512156    0.2676417966E+02
        2        1        5     11.8177      2.1618      129.5722512156    0.2676417966E+02
        2        1        6     11.8177      2.1618      153.6203725277    0.9335564147E+02
        2        2        1     11.8177     10.0167       37.3899105654    0.4810013072E+02
        2        2        2     11.8177     10.0167       37.3899105654    0.4810013072E+02
        2        2        3     11.8177     10.0167      106.3246578814    0.8422478274E+02
        2        2        4     11.8177     10.0167      129.5722512156    0.2427502149E+03
        2        2        5     11.8177     10.0167      129.5722512156    0.2427502149E+03
        2        2        6     11.8177     10.0167      153.6203725277    0.2480292317E+03
        2        3        1     11.8177     10.0167       37.3899105654    0.4810013072E+02
        2        3        2     11.8177     10.0167       37.3899105654    0.4810013072E+02
        2        3        3     11.8177     10.0167      106.3246578814    0.8422478274E+02
        2        3        4     11.8177     10.0167      129.5722512156    0.2427502149E+03
        2        3        5     11.8177     10.0167      129.5722512156    0.2427502149E+03
        2        3        6     11.8177     10.0167      153.6203725277    0.2480292317E+03
        3        1        1     11.8177      2.1618       37.3899105654    0.1061117068E+03
        3        1        2     11.8177      2.1618       37.3899105654    0.1061117068E+03
        3        1        3     11.8177      2.1618      106.3246578814    0.1893823999E+03
        3        1        4     11.8177      2.1618      129.5722512156    0.2676417966E+02
        3        1        5     11.8177      2.1618      129.5722512156    0.2676417966E+02
        3        1        6     11.8177      2.1618      153.6203725277    0.9335564147E+02
        3        2        1     11.8177     10.0167       37.3899105654    0.4810013072E+02
        3        2        2     11.8177     10.0167       37.3899105654    0.4810013072E+02
        3        2        3     11.8177     10.0167      106.3246578814    0.8422478274E+02
        3        2        4     11.8177     10.0167      129.5722512156    0.2427502149E+03
        3        2        5     11.8177     10.0167      129.5722512156    0.2427502149E+03
        3        2        6     11.8177     10.0167      153.6203725277    0.2480292317E+03
        3        3        1     11.8177     10.0167       37.3899105654    0.4810013072E+02
        3        3        2     11.8177     10.0167       37.3899105654    0.4810013072E+02
        3        3        3     11.8177     10.0167      106.3246578814    0.8422478274E+02
        3        3        4     11.8177     10.0167      129.5722512156    0.2427502149E+03
        3        3        5     11.8177     10.0167      129.5722512156    0.2427502149E+03
        3        3        6     11.8177     10.0167      153.6203725277    0.2480292317E+03
     ------------------------------------------------------------------------------

      Electron-phonon vertex |g| (meV)

     iq =      12 coord.:    0.3720930   0.0000000   0.0000000
     ik =       1 coord.:    0.0000000   0.0000000   0.0000000
      ibnd     jbnd     imode   enk[eV]    enk+q[eV]  omega(q)[meV]   |g|[meV]
     ------------------------------------------------------------------------------
        1        1        1     11.8177      2.4424       36.9724861583    0.1044461591E+03
        1        1        2     11.8177      2.4424       36.9724861583    0.1044461591E+03
        1        1        3     11.8177      2.4424      104.8354752650    0.1886909166E+03
        1        1        4     11.8177      2.4424      129.9996616406    0.3088234642E+02
        1        1        5     11.8177      2.4424      129.9996616406    0.3088234642E+02
        1        1        6     11.8177      2.4424      154.5015205117    0.8779203563E+02
        1        2        1     11.8177     10.0690       36.9724861583    0.4650146332E+02
        1        2        2     11.8177     10.0690       36.9724861583    0.4650146332E+02
        1        2        3     11.8177     10.0690      104.8354752650    0.8618205303E+02
        1        2        4     11.8177     10.0690      129.9996616406    0.2426966701E+03
        1        2        5     11.8177     10.0690      129.9996616406    0.2426966701E+03
        1        2        6     11.8177     10.0690      154.5015205117    0.2449554688E+03
        1        3        1     11.8177     10.0690       36.9724861583    0.4650146332E+02
        1        3        2     11.8177     10.0690       36.9724861583    0.4650146332E+02
        1        3        3     11.8177     10.0690      104.8354752650    0.8618205303E+02
        1        3        4     11.8177     10.0690      129.9996616406    0.2426966701E+03
        1        3        5     11.8177     10.0690      129.9996616406    0.2426966701E+03
        1        3        6     11.8177     10.0690      154.5015205117    0.2449554688E+03
        2        1        1     11.8177      2.4424       36.9724861583    0.1044461591E+03
        2        1        2     11.8177      2.4424       36.9724861583    0.1044461591E+03
        2        1        3     11.8177      2.4424      104.8354752650    0.1886909166E+03
        2        1        4     11.8177      2.4424      129.9996616406    0.3088234642E+02
        2        1        5     11.8177      2.4424      129.9996616406    0.3088234642E+02
        2        1        6     11.8177      2.4424      154.5015205117    0.8779203563E+02
        2        2        1     11.8177     10.0690       36.9724861583    0.4650146332E+02
        2        2        2     11.8177     10.0690       36.9724861583    0.4650146332E+02
        2        2        3     11.8177     10.0690      104.8354752650    0.8618205303E+02
        2        2        4     11.8177     10.0690      129.9996616406    0.2426966701E+03
        2        2        5     11.8177     10.0690      129.9996616406    0.2426966701E+03
        2        2        6     11.8177     10.0690      154.5015205117    0.2449554688E+03
        2        3        1     11.8177     10.0690       36.9724861583    0.4650146332E+02
        2        3        2     11.8177     10.0690       36.9724861583    0.4650146332E+02
        2        3        3     11.8177     10.0690      104.8354752650    0.8618205303E+02
        2        3        4     11.8177     10.0690      129.9996616406    0.2426966701E+03
        2        3        5     11.8177     10.0690      129.9996616406    0.2426966701E+03
        2        3        6     11.8177     10.0690      154.5015205117    0.2449554688E+03
        3        1        1     11.8177      2.4424       36.9724861583    0.1044461591E+03
        3        1        2     11.8177      2.4424       36.9724861583    0.1044461591E+03
        3        1        3     11.8177      2.4424      104.8354752650    0.1886909166E+03
        3        1        4     11.8177      2.4424      129.9996616406    0.3088234642E+02
        3        1        5     11.8177      2.4424      129.9996616406    0.3088234642E+02
        3        1        6     11.8177      2.4424      154.5015205117    0.8779203563E+02
        3        2        1     11.8177     10.0690       36.9724861583    0.4650146332E+02
        3        2        2     11.8177     10.0690       36.9724861583    0.4650146332E+02
        3        2        3     11.8177     10.0690      104.8354752650    0.8618205303E+02
        3        2        4     11.8177     10.0690      129.9996616406    0.2426966701E+03
        3        2        5     11.8177     10.0690      129.9996616406    0.2426966701E+03
        3        2        6     11.8177     10.0690      154.5015205117    0.2449554688E+03
        3        3        1     11.8177     10.0690       36.9724861583    0.4650146332E+02
        3        3        2     11.8177     10.0690       36.9724861583    0.4650146332E+02
        3        3        3     11.8177     10.0690      104.8354752650    0.8618205303E+02
        3        3        4     11.8177     10.0690      129.9996616406    0.2426966701E+03
        3        3        5     11.8177     10.0690      129.9996616406    0.2426966701E+03
        3        3        6     11.8177     10.0690      154.5015205117    0.2449554688E+03
     ------------------------------------------------------------------------------

      Electron-phonon vertex |g| (meV)

     iq =      13 coord.:    0.3604651   0.0000000   0.0000000
     ik =       1 coord.:    0.0000000   0.0000000   0.0000000
      ibnd     jbnd     imode   enk[eV]    enk+q[eV]  omega(q)[meV]   |g|[meV]
     ------------------------------------------------------------------------------
        1        1        1     11.8177      2.7434       36.5077437828    0.1025885536E+03
        1        1        2     11.8177      2.7434       36.5077437828    0.1025885536E+03
        1        1        3     11.8177      2.7434      103.2061230039    0.1876232791E+03
[...]
        2        3        5     11.8177     11.8026      144.4846570064    0.2655032750E+03
        2        3        6     11.8177     11.8026      183.1542577253    0.1207217147E+04
        3        1        1     11.8177     11.6782        2.9004911810    0.1831644144E+01
        3        1        2     11.8177     11.6782        5.7977937070    0.5876499329E+02
        3        1        3     11.8177     11.6782       11.2562713617    0.4207500695E+01
        3        1        4     11.8177     11.6782      144.4520193131    0.2626071785E+03
        3        1        5     11.8177     11.6782      144.4846570064    0.9321779975E+01
        3        1        6     11.8177     11.6782      183.1542577253    0.1220736159E+04
        3        2        1     11.8177     11.7617        2.9004911810    0.5436447261E+01
        3        2        2     11.8177     11.7617        5.7977937070    0.5733306869E+02
        3        2        3     11.8177     11.7617       11.2562713617    0.4273492769E+01
        3        2        4     11.8177     11.7617      144.4520193131    0.1089132730E+02
        3        2        5     11.8177     11.7617      144.4846570064    0.2648762407E+03
        3        2        6     11.8177     11.7617      183.1542577253    0.1225302657E+04
        3        3        1     11.8177     11.8026        2.9004911810    0.3264502944E+01
        3        3        2     11.8177     11.8026        5.7977937070    0.5526947107E+02
        3        3        3     11.8177     11.8026       11.2562713617    0.4524535916E+01
        3        3        4     11.8177     11.8026      144.4520193131    0.2667699336E+03
        3        3        5     11.8177     11.8026      144.4846570064    0.2655032750E+03
        3        3        6     11.8177     11.8026      183.1542577253    0.1207217147E+04
     ------------------------------------------------------------------------------

      Electron-phonon vertex |g| (meV)

     iq =     163 coord.:    0.0318396   0.0159198   0.0159198
     ik =       1 coord.:    0.0000000   0.0000000   0.0000000
      ibnd     jbnd     imode   enk[eV]    enk+q[eV]  omega(q)[meV]   |g|[meV]
     ------------------------------------------------------------------------------
        1        1        1     11.8177     11.7506        2.0046887711    0.1707706464E+01
        1        1        2     11.8177     11.7506        4.0080679721    0.6751613598E+02
        1        1        3     11.8177     11.7506        7.8021426856    0.3427334394E+01
        1        1        4     11.8177     11.7506      144.5706480164    0.2640938716E+03
        1        1        5     11.8177     11.7506      144.5864485558    0.9383497104E+01
        1        1        6     11.8177     11.7506      183.3240166395    0.1757017089E+04
        1        2        1     11.8177     11.7908        2.0046887711    0.3398231222E+01
        1        2        2     11.8177     11.7908        4.0080679721    0.6668163322E+02
        1        2        3     11.8177     11.7908        7.8021426856    0.3560755700E+01
        1        2        4     11.8177     11.7908      144.5706480164    0.1016530915E+02
        1        2        5     11.8177     11.7908      144.5864485558    0.2651833743E+03
        1        2        6     11.8177     11.7908      183.3240166395    0.1760204698E+04
        1        3        1     11.8177     11.8105        2.0046887711    0.2255984642E+01
        1        3        2     11.8177     11.8105        4.0080679721    0.6546738160E+02
        1        3        3     11.8177     11.8105        7.8021426856    0.3769953805E+01
        1        3        4     11.8177     11.8105      144.5706480164    0.2661796837E+03
        1        3        5     11.8177     11.8105      144.5864485558    0.2655713195E+03
        1        3        6     11.8177     11.8105      183.3240166395    0.1747604560E+04
        2        1        1     11.8177     11.7506        2.0046887711    0.1707706464E+01
        2        1        2     11.8177     11.7506        4.0080679721    0.6751613598E+02
        2        1        3     11.8177     11.7506        7.8021426856    0.3427334394E+01
        2        1        4     11.8177     11.7506      144.5706480164    0.2640938716E+03
        2        1        5     11.8177     11.7506      144.5864485558    0.9383497104E+01
        2        1        6     11.8177     11.7506      183.3240166395    0.1757017089E+04
        2        2        1     11.8177     11.7908        2.0046887711    0.3398231222E+01
        2        2        2     11.8177     11.7908        4.0080679721    0.6668163322E+02
        2        2        3     11.8177     11.7908        7.8021426856    0.3560755700E+01
        2        2        4     11.8177     11.7908      144.5706480164    0.1016530915E+02
        2        2        5     11.8177     11.7908      144.5864485558    0.2651833743E+03
        2        2        6     11.8177     11.7908      183.3240166395    0.1760204698E+04
        2        3        1     11.8177     11.8105        2.0046887711    0.2255984642E+01
        2        3        2     11.8177     11.8105        4.0080679721    0.6546738160E+02
        2        3        3     11.8177     11.8105        7.8021426856    0.3769953805E+01
        2        3        4     11.8177     11.8105      144.5706480164    0.2661796837E+03
        2        3        5     11.8177     11.8105      144.5864485558    0.2655713195E+03
        2        3        6     11.8177     11.8105      183.3240166395    0.1747604560E+04
        3        1        1     11.8177     11.7506        2.0046887711    0.1707706464E+01
        3        1        2     11.8177     11.7506        4.0080679721    0.6751613598E+02
        3        1        3     11.8177     11.7506        7.8021426856    0.3427334394E+01
        3        1        4     11.8177     11.7506      144.5706480164    0.2640938716E+03
        3        1        5     11.8177     11.7506      144.5864485558    0.9383497104E+01
        3        1        6     11.8177     11.7506      183.3240166395    0.1757017089E+04
        3        2        1     11.8177     11.7908        2.0046887711    0.3398231222E+01
        3        2        2     11.8177     11.7908        4.0080679721    0.6668163322E+02
        3        2        3     11.8177     11.7908        7.8021426856    0.3560755700E+01
        3        2        4     11.8177     11.7908      144.5706480164    0.1016530915E+02
        3        2        5     11.8177     11.7908      144.5864485558    0.2651833743E+03
        3        2        6     11.8177     11.7908      183.3240166395    0.1760204698E+04
        3        3        1     11.8177     11.8105        2.0046887711    0.2255984642E+01
        3        3        2     11.8177     11.8105        4.0080679721    0.6546738160E+02
        3        3        3     11.8177     11.8105        7.8021426856    0.3769953805E+01
        3        3        4     11.8177     11.8105      144.5706480164    0.2661796837E+03
        3        3        5     11.8177     11.8105      144.5864485558    0.2655713195E+03
        3        3        6     11.8177     11.8105      183.3240166395    0.1747604560E+04
     ------------------------------------------------------------------------------

      Electron-phonon vertex |g| (meV)

     iq =     164 coord.:    0.0176887   0.0088443   0.0088443
     ik =       1 coord.:    0.0000000   0.0000000   0.0000000
      ibnd     jbnd     imode   enk[eV]    enk+q[eV]  omega(q)[meV]   |g|[meV]
     ------------------------------------------------------------------------------
        1        1        1     11.8177     11.7970        1.1125320924    0.1864703853E+01
        1        1        2     11.8177     11.7970        2.2246463507    0.8790966800E+02
        1        1        3     11.8177     11.7970        4.3378285175    0.2519856151E+01
        1        1        4     11.8177     11.7970      144.6464786475    0.1875313433E+03
        1        1        5     11.8177     11.7970      144.6513863445    0.1875313433E+03
        1        1        6     11.8177     11.7970      183.4321083619    0.3155368635E+04
        1        2        1     11.8177     11.8094        1.1125320924    0.2209437095E+01
        1        2        2     11.8177     11.8094        2.2246463507    0.8753941553E+02
        1        2        3     11.8177     11.8094        4.3378285175    0.2656510086E+01
        1        2        4     11.8177     11.8094      144.6464786475    0.1877755426E+03
        1        2        5     11.8177     11.8094      144.6513863445    0.1877755426E+03
        1        2        6     11.8177     11.8094      183.4321083619    0.3157149016E+04
        1        3        1     11.8177     11.8155        1.1125320924    0.1911982962E+01
        1        3        2     11.8177     11.8155        2.2246463507    0.8700767114E+02
        1        3        3     11.8177     11.8155        4.3378285175    0.2812492389E+01
        1        3        4     11.8177     11.8155      144.6464786475    0.2657083545E+03
        1        3        5     11.8177     11.8155      144.6513863445    0.2657083545E+03
        1        3        6     11.8177     11.8155      183.4321083619    0.3150120598E+04
        2        1        1     11.8177     11.7970        1.1125320924    0.1864703853E+01
        2        1        2     11.8177     11.7970        2.2246463507    0.8790966800E+02
        2        1        3     11.8177     11.7970        4.3378285175    0.2519856151E+01
        2        1        4     11.8177     11.7970      144.6464786475    0.1875313433E+03
        2        1        5     11.8177     11.7970      144.6513863445    0.1875313433E+03
        2        1        6     11.8177     11.7970      183.4321083619    0.3155368635E+04
        2        2        1     11.8177     11.8094        1.1125320924    0.2209437095E+01
        2        2        2     11.8177     11.8094        2.2246463507    0.8753941553E+02
        2        2        3     11.8177     11.8094        4.3378285175    0.2656510086E+01
        2        2        4     11.8177     11.8094      144.6464786475    0.1877755426E+03
        2        2        5     11.8177     11.8094      144.6513863445    0.1877755426E+03
        2        2        6     11.8177     11.8094      183.4321083619    0.3157149016E+04
        2        3        1     11.8177     11.8155        1.1125320924    0.1911982962E+01
        2        3        2     11.8177     11.8155        2.2246463507    0.8700767114E+02
        2        3        3     11.8177     11.8155        4.3378285175    0.2812492389E+01
        2        3        4     11.8177     11.8155      144.6464786475    0.2657083545E+03
        2        3        5     11.8177     11.8155      144.6513863445    0.2657083545E+03
        2        3        6     11.8177     11.8155      183.4321083619    0.3150120598E+04
        3        1        1     11.8177     11.7970        1.1125320924    0.1864703853E+01
        3        1        2     11.8177     11.7970        2.2246463507    0.8790966800E+02
        3        1        3     11.8177     11.7970        4.3378285175    0.2519856151E+01
        3        1        4     11.8177     11.7970      144.6464786475    0.1875313433E+03
        3        1        5     11.8177     11.7970      144.6513863445    0.1875313433E+03
        3        1        6     11.8177     11.7970      183.4321083619    0.3155368635E+04
        3        2        1     11.8177     11.8094        1.1125320924    0.2209437095E+01
        3        2        2     11.8177     11.8094        2.2246463507    0.8753941553E+02
        3        2        3     11.8177     11.8094        4.3378285175    0.2656510086E+01
        3        2        4     11.8177     11.8094      144.6464786475    0.1877755426E+03
        3        2        5     11.8177     11.8094      144.6513863445    0.1877755426E+03
        3        2        6     11.8177     11.8094      183.4321083619    0.3157149016E+04
        3        3        1     11.8177     11.8155        1.1125320924    0.1911982962E+01
        3        3        2     11.8177     11.8155        2.2246463507    0.8700767114E+02
        3        3        3     11.8177     11.8155        4.3378285175    0.2812492389E+01
        3        3        4     11.8177     11.8155      144.6464786475    0.2657083545E+03
        3        3        5     11.8177     11.8155      144.6513863445    0.2657083545E+03
        3        3        6     11.8177     11.8155      183.4321083619    0.3150120598E+04
     ------------------------------------------------------------------------------

      Electron-phonon vertex |g| (meV)

     iq =     165 coord.:    0.0035377   0.0017689   0.0017689
     ik =       1 coord.:    0.0000000   0.0000000   0.0000000
      ibnd     jbnd     imode   enk[eV]    enk+q[eV]  omega(q)[meV]   |g|[meV]
     ------------------------------------------------------------------------------
        1        1        1     11.8177     11.8169        0.2224048561    0.3757933488E+01
        1        1        2     11.8177     11.8169        0.4447523190    0.1940008053E+03
        1        1        3     11.8177     11.8169        0.8678491145    0.1121783975E+01
        1        1        4     11.8177     11.8169      144.6790584995    0.1878192209E+03
        1        1        5     11.8177     11.8169      144.6792553389    0.1878192209E+03
        1        1        6     11.8177     11.8169      183.4784484444    0.1576118376E+05
        1        2        1     11.8177     11.8174        0.2224048561    0.3756672654E+01
        1        2        2     11.8177     11.8174        0.4447523190    0.1938873021E+03
        1        2        3     11.8177     11.8174        0.8678491145    0.1189937789E+01
        1        2        4     11.8177     11.8174      144.6790584995    0.1878289916E+03
        1        2        5     11.8177     11.8174      144.6792553389    0.1878289916E+03
        1        2        6     11.8177     11.8174      183.4784484444    0.1576154066E+05
        1        3        1     11.8177     11.8176        0.2224048561    0.3749622544E+01
        1        3        2     11.8177     11.8176        0.4447523190    0.1937592439E+03
        1        3        3     11.8177     11.8176        0.8678491145    0.1258272238E+01
        1        3        4     11.8177     11.8176      144.6790584995    0.2656364556E+03
        1        3        5     11.8177     11.8176      144.6792553389    0.2656364556E+03
        1        3        6     11.8177     11.8176      183.4784484444    0.1576013253E+05
        2        1        1     11.8177     11.8169        0.2224048561    0.3757933488E+01
        2        1        2     11.8177     11.8169        0.4447523190    0.1940008053E+03
        2        1        3     11.8177     11.8169        0.8678491145    0.1121783975E+01
        2        1        4     11.8177     11.8169      144.6790584995    0.1878192209E+03
        2        1        5     11.8177     11.8169      144.6792553389    0.1878192209E+03
        2        1        6     11.8177     11.8169      183.4784484444    0.1576118376E+05
        2        2        1     11.8177     11.8174        0.2224048561    0.3756672654E+01
        2        2        2     11.8177     11.8174        0.4447523190    0.1938873021E+03
        2        2        3     11.8177     11.8174        0.8678491145    0.1189937789E+01
        2        2        4     11.8177     11.8174      144.6790584995    0.1878289916E+03
        2        2        5     11.8177     11.8174      144.6792553389    0.1878289916E+03
        2        2        6     11.8177     11.8174      183.4784484444    0.1576154066E+05
        2        3        1     11.8177     11.8176        0.2224048561    0.3749622544E+01
        2        3        2     11.8177     11.8176        0.4447523190    0.1937592439E+03
        2        3        3     11.8177     11.8176        0.8678491145    0.1258272238E+01
        2        3        4     11.8177     11.8176      144.6790584995    0.2656364556E+03
        2        3        5     11.8177     11.8176      144.6792553389    0.2656364556E+03
        2        3        6     11.8177     11.8176      183.4784484444    0.1576013253E+05
        3        1        1     11.8177     11.8169        0.2224048561    0.3757933488E+01
        3        1        2     11.8177     11.8169        0.4447523190    0.1940008053E+03
        3        1        3     11.8177     11.8169        0.8678491145    0.1121783975E+01
        3        1        4     11.8177     11.8169      144.6790584995    0.1878192209E+03
        3        1        5     11.8177     11.8169      144.6792553389    0.1878192209E+03
        3        1        6     11.8177     11.8169      183.4784484444    0.1576118376E+05
        3        2        1     11.8177     11.8174        0.2224048561    0.3756672654E+01
        3        2        2     11.8177     11.8174        0.4447523190    0.1938873021E+03
        3        2        3     11.8177     11.8174        0.8678491145    0.1189937789E+01
        3        2        4     11.8177     11.8174      144.6790584995    0.1878289916E+03
        3        2        5     11.8177     11.8174      144.6792553389    0.1878289916E+03
        3        2        6     11.8177     11.8174      183.4784484444    0.1576154066E+05
        3        3        1     11.8177     11.8176        0.2224048561    0.3749622544E+01
        3        3        2     11.8177     11.8176        0.4447523190    0.1937592439E+03
        3        3        3     11.8177     11.8176        0.8678491145    0.1258272238E+01
        3        3        4     11.8177     11.8176      144.6790584995    0.2656364556E+03
        3        3        5     11.8177     11.8176      144.6792553389    0.2656364556E+03
        3        3        6     11.8177     11.8176      183.4784484444    0.1576013253E+05
     ------------------------------------------------------------------------------

     ===================================================================
     Memory usage:  VmHWM =        29Mb
                   VmPeak =       352Mb
     ===================================================================


     Unfolding on the coarse grid
     elphon_wrap  :      1.70s CPU      1.71s WALL (       1 calls)

     INITIALIZATION: 

     set_drhoc    :      0.77s CPU      0.77s WALL (       9 calls)
     init_vloc    :      0.00s CPU      0.00s WALL (       1 calls)
     init_us_1    :      0.02s CPU      0.02s WALL (       2 calls)



     Electron-Phonon interpolation
     ephwann      :      0.11s CPU      0.12s WALL (       1 calls)
     ep-interp    :      0.09s CPU      0.10s WALL (     165 calls)

     Ham: step 1  :      0.00s CPU      0.00s WALL (       1 calls)
     Ham: step 2  :      0.00s CPU      0.00s WALL (       1 calls)
     ep: step 1   :      0.00s CPU      0.00s WALL (      48 calls)
     ep: step 2   :      0.09s CPU      0.11s WALL (       1 calls)
     DynW2B       :      0.02s CPU      0.03s WALL (     165 calls)
     HamW2B       :      0.00s CPU      0.00s WALL (     498 calls)
     ephW2Bp      :      0.03s CPU      0.03s WALL (     165 calls)
     ephW2B       :      0.00s CPU      0.00s WALL (     165 calls)
     vmewan2bloch :      0.00s CPU      0.00s WALL (     330 calls)
     vmewan2bloch :      0.00s CPU      0.00s WALL (     330 calls)


     Total program execution
     EPW          :      2.45s CPU      2.47s WALL

     ===============================================================================
     The functionality-dependent EPW.bib file was created with suggested citations. 
     Please consider citing the papers listed in EPW.bib.                           
     ===============================================================================
                                                                                    
