                                                                                      
                                       ``:oss/                                        
                           `.+s+.     .+ys--yh+     `./ss+.                           
                          -sh//yy+`   +yy   +yy    -+h+-oyy                           
                          -yh- .oyy/.-sh.   .syo-.:sy-  /yh                           
                 `.-.`    `yh+   -oyyyo.     `/syys:    oys      `.`                  
               `/+ssys+-` `sh+      `                   oys`   .:osyo`                
               -yh- ./syyooyo`                          .sys+/oyo--yh/                
               `yy+    .-:-.                             `-/+/:`  -sh-                
                /yh.                                              oys                 
          ``..---hho---------`   .---------..`      `.-----.`    -hd+---.             
       `./osmNMMMMMMMMMMMMMMMs. +NNMMMMMMMMNNmh+.   yNMMMMMNm-  oNMMMMMNmo++:`        
       +sy--/sdMMMhyyyyyyyNMMh- .oyNMMmyyyyyhNMMm+` -yMMMdyyo:` .oyyNMMNhs+syy`       
       -yy/   /MMM+.`-+/``mMMy-   `mMMh:`````.dMMN:` `MMMy-`-dhhy```mMMy:``+hs        
        -yy+` /MMMo:-mMM+`-oo/.    mMMh:     `dMMN/`  dMMm:`dMMMMy..MMMo-.+yo`        
         .sys`/MMMMNNMMMs-         mMMmyooooymMMNo:   oMMM/sMMMMMM++MMN//oh:          
          `sh+/MMMhyyMMMs- `-`     mMMMMMMMMMNmy+-`   -MMMhMMMsmMMmdMMd/yy+           
    `-/+++oyy-/MMM+.`/hh/.`mNm:`   mMMd+/////:-.`      NMMMMMd/:NMMMMMy:/yyo/:.`      
   +os+//:-..-oMMMo:--:::-/MMMo. .-mMMd+---`           hMMMMN+. oMMMMMo. `-+osyso:`   
   syo     `mNMMMMMNNNNNNNNMMMo.oNNMMMMMNNNN:`         +MMMMs:`  dMMMN/`     ``:syo   
   /yh`     :syyyyyyyyyyyyyyyy+.`+syyyyyyyyo:`         .oyys:`   .oyys:`        +yh   
   -yh-        ````````````````    `````````              ``        ``          oys   
   -+h/------------------------::::::::://////++++++++++++++++++++++///////::::/yd:   
   shdddddddddddddddddddddddddddddhhhhhhhhyyyyyssssssssssssssssyyyyyyyhhhhhhhddddh`   
                                                                                      
  S. Ponce, E. R. Margine, C. Verdi, and F. Giustino,                                 
                                                Comput. Phys. Commun. 209, 116 (2016) 
                                                                                      

     Program EPW v.5.4b starts on  4Jun2021 at 18: 8:53 

     This program is part of the open-source Quantum ESPRESSO suite
     for quantum simulation of materials; please cite
         "P. Giannozzi et al., J. Phys.:Condens. Matter 21 395502 (2009);
         "P. Giannozzi et al., J. Phys.:Condens. Matter 29 465901 (2017);
         "P. Giannozzi et al., J. Chem. Phys. 152 154105 (2020);
          URL http://www.quantum-espresso.org", 
     in publications or presentations arising from this work. More details at
     http://www.quantum-espresso.org/quote

     Parallel version (MPI), running on     1 processors

     MPI processes distributed on     1 nodes
     Reading input from epw1.in

     WARNING: The specified dis_win_min is ignored.
              You should instead use bands_skipped = 'exclude_bands = ...'
              to control the lower bound of band manifold.

     Reading supplied temperature list.

     Reading xml data from directory:

     ./bn.save/

     IMPORTANT: XC functional enforced from input :
     Exchange-correlation= PBE
                           (   1   4   3   4   0   0   0)
     Any further DFT definition will be discarded
     Please, verify this is what you really want


     G-vector sticks info
     --------------------
     sticks:   dense  smooth     PW     G-vecs:    dense   smooth      PW
     Sum         253     253     85                 2733     2733     531

     Using Slab Decomposition


     Check: negative core charge=   -0.000052
     Reading collected, re-writing distributed wavefunctions

     --                                                                         

     bravais-lattice index     =            2
     lattice parameter (a_0)   =       6.8327  a.u.
     unit-cell volume          =      79.7469 (a.u.)^3
     number of atoms/cell      =            2
     number of atomic types    =            2
     kinetic-energy cut-off    =      40.0000  Ry
     charge density cut-off    =     160.0000  Ry
     Exchange-correlation= PBE
                           (   1   4   3   4   0   0   0)


     celldm(1)=    6.83268  celldm(2)=    0.00000  celldm(3)=    0.00000
     celldm(4)=    0.00000  celldm(5)=    0.00000  celldm(6)=    0.00000

     crystal axes: (cart. coord. in units of a_0)
               a(1) = ( -0.5000  0.0000  0.5000 )  
               a(2) = (  0.0000  0.5000  0.5000 )  
               a(3) = ( -0.5000  0.5000  0.0000 )  

     reciprocal axes: (cart. coord. in units 2 pi/a_0)
               b(1) = ( -1.0000 -1.0000  1.0000 )  
               b(2) = (  1.0000  1.0000  1.0000 )  
               b(3) = ( -1.0000  1.0000 -1.0000 )  


     Atoms inside the unit cell: 

   Cartesian axes

     site n.  atom      mass           positions (a_0 units)
        1        B   10.8110   tau( 1) = (    0.00000    0.00000    0.00000  )
        2        N   14.0067   tau( 2) = (    0.25000    0.25000    0.25000  )

     25 Sym.Ops. (with q -> -q+G )


     G cutoff =  189.2094  (   2733 G-vectors)     FFT grid: ( 20, 20, 20)
     number of k points=    8
                       cart. coord. in units 2pi/a_0
        k(    1) = (   0.0000000   0.0000000   0.0000000), wk =   0.2500000
        k(    2) = (  -0.5000000   0.5000000  -0.5000000), wk =   0.2500000
        k(    3) = (   0.5000000   0.5000000   0.5000000), wk =   0.2500000
        k(    4) = (   0.0000000   1.0000000   0.0000000), wk =   0.2500000
        k(    5) = (  -0.5000000  -0.5000000   0.5000000), wk =   0.2500000
        k(    6) = (  -1.0000000   0.0000000   0.0000000), wk =   0.2500000
        k(    7) = (   0.0000000   0.0000000   1.0000000), wk =   0.2500000
        k(    8) = (  -0.5000000   0.5000000   0.5000000), wk =   0.2500000

     PseudoPot. # 1 for B  read from file:
     ../../pseudo/B-PBE.upf
     MD5 check sum: 8d3529416d991d290d09c9d3752026a1
     Pseudo is Norm-conserving + core correction, Zval =  3.0
     Generated using ONCVPSP code by D. R. Hamann
     Using radial grid of 1534 points,  4 beta functions with: 
                l(1) =   0
                l(2) =   0
                l(3) =   1
                l(4) =   1

     PseudoPot. # 2 for N  read from file:
     ../../pseudo/N-PBE.upf
     MD5 check sum: ff7f9f91e4136e6855b4906c31c1cc72
     Pseudo is Norm-conserving + core correction, Zval =  5.0
     Generated using ONCVPSP code by D. R. Hamann
     Using radial grid of 1058 points,  4 beta functions with: 
                l(1) =   0
                l(2) =   0
                l(3) =   1
                l(4) =   1
     EPW          :      0.16s CPU      0.16s WALL

     EPW          :      0.31s CPU      0.31s WALL

     -------------------------------------------------------------------
     Wannierization on  2 x  2 x  2 electronic grid
     -------------------------------------------------------------------

     Spin CASE ( default = unpolarized )

     Initializing Wannier90


     Initial Wannier projections

     (  -0.25000   0.75000  -0.25000) :  l =   1 mr =   1
     (  -0.25000   0.75000  -0.25000) :  l =   1 mr =   2
     (  -0.25000   0.75000  -0.25000) :  l =   1 mr =   3

      - Number of bands is (  3)
      - Number of total bands is ( 20)
      - Number of excluded bands is ( 17)
      - Number of wannier functions is (  3)
      - All guiding functions are given 

  Reading data about k-point neighbours 

      - All neighbours are found 

     AMN
      k points =     8 in    1 pools
            1 of    8 on ionode
            2 of    8 on ionode
            3 of    8 on ionode
            4 of    8 on ionode
            5 of    8 on ionode
            6 of    8 on ionode
            7 of    8 on ionode
            8 of    8 on ionode

     AMN calculated

     MMN
      k points =     8 in    1 pools
            1 of    8 on ionode
            2 of    8 on ionode
            3 of    8 on ionode
            4 of    8 on ionode
            5 of    8 on ionode
            6 of    8 on ionode
            7 of    8 on ionode
            8 of    8 on ionode
     MMN calculated

     Running Wannier90

     Wannier Function centers (cartesian, alat) and spreads (ang):

     (   0.25000   0.25000   0.25000) :   0.65513
     (   0.25000   0.25000   0.25000) :   0.65513
     (   0.25000   0.25000   0.25000) :   0.65513

     -------------------------------------------------------------------
     WANNIER      :      0.35s CPU      0.36s WALL (       1 calls)
     -------------------------------------------------------------------

     Calculating kgmap

     Progress kgmap: ########################################
     kmaps        :      0.01s CPU      0.01s WALL (       1 calls)
     
     ------------------------------------ 
     Quadrupole tensor is correctly read: 
     ------------------------------------ 
     atom   dir        Qxx       Qyy      Qzz        Qyz       Qxz       Qxy
       1        x       0.00000   0.00000   0.00000   3.00000   0.00000   0.00000
       1        y       0.00000   0.00000   0.00000   0.00000   3.00000   0.00000
       1        z       0.00000   0.00000   0.00000   0.00000   0.00000   3.00000
       2        x       0.00000   0.00000   0.00000  -1.00000   0.00000   0.00000
       2        y       0.00000   0.00000   0.00000   0.00000  -1.00000   0.00000
       2        z       0.00000   0.00000   0.00000   0.00000   0.00000  -1.00000
     
     Symmetries of Bravais lattice:  48
     Symmetries of crystal:          24


     ===================================================================
     irreducible q point #    1
     ===================================================================

     Symmetries of small group of q: 24
          in addition sym. q -> -q+G:

     Number of q in the star =    1
     List of q in the star:
          1   0.000000000   0.000000000   0.000000000
     Read dielectric tensor and effective charges
     Imposing acoustic sum rule on the dynamical matrix

        q(    1 ) = (   0.0000000   0.0000000   0.0000000 )


     ===================================================================
     irreducible q point #    2
     ===================================================================

     Symmetries of small group of q:  6
          in addition sym. q -> -q+G:

     Number of q in the star =    4
     List of q in the star:
          1   0.500000000  -0.500000000   0.500000000
          2  -0.500000000   0.500000000   0.500000000
          3   0.500000000   0.500000000  -0.500000000
          4  -0.500000000  -0.500000000  -0.500000000

        q(    2 ) = (   0.5000000  -0.5000000   0.5000000 )
        q(    3 ) = (  -0.5000000   0.5000000   0.5000000 )
        q(    4 ) = (   0.5000000   0.5000000  -0.5000000 )
        q(    5 ) = (  -0.5000000  -0.5000000  -0.5000000 )


     ===================================================================
     irreducible q point #    3
     ===================================================================

     Symmetries of small group of q:  8
          in addition sym. q -> -q+G:

     Number of q in the star =    3
     List of q in the star:
          1   0.000000000  -1.000000000   0.000000000
          2   0.000000000   0.000000000  -1.000000000
          3  -1.000000000   0.000000000   0.000000000

        q(    6 ) = (   0.0000000  -1.0000000   0.0000000 )
        q(    7 ) = (   0.0000000   0.0000000  -1.0000000 )
        q(    8 ) = (  -1.0000000   0.0000000   0.0000000 )

     Writing epmatq on .epb files


     The .epb files have been correctly written


     Computes the analytic long-range interaction for polar materials [lpolar]
      
     Use zone-centred Wigner-Seitz cells 
     Number of WS vectors for electrons       19
     Number of WS vectors for phonons       19
     Number of WS vectors for electron-phonon       19
     Maximum number of cores for efficient parallelization      114
     Results may improve by using use_ws == .TRUE. 

     Velocity matrix elements calculated
 
 
     Bloch2wane:          1 /          8
     Bloch2wane:          2 /          8
     Bloch2wane:          3 /          8
     Bloch2wane:          4 /          8
     Bloch2wane:          5 /          8
     Bloch2wane:          6 /          8
     Bloch2wane:          7 /          8
     Bloch2wane:          8 /          8
 
     Bloch2wanp:          1 /         19
     Bloch2wanp:          2 /         19
     Bloch2wanp:          3 /         19
     Bloch2wanp:          4 /         19
     Bloch2wanp:          5 /         19
     Bloch2wanp:          6 /         19
     Bloch2wanp:          7 /         19
     Bloch2wanp:          8 /         19
     Bloch2wanp:          9 /         19
     Bloch2wanp:         10 /         19
     Bloch2wanp:         11 /         19
     Bloch2wanp:         12 /         19
     Bloch2wanp:         13 /         19
     Bloch2wanp:         14 /         19
     Bloch2wanp:         15 /         19
     Bloch2wanp:         16 /         19
     Bloch2wanp:         17 /         19
     Bloch2wanp:         18 /         19
     Bloch2wanp:         19 /         19

     Writing Hamiltonian, Dynamical matrix and EP vertex in Wann rep to file

     ===================================================================
     Memory usage:  VmHWM =        30Mb
                   VmPeak =       357Mb
     ===================================================================
     
     Using q-mesh file: ./LGXKG4.txt
     WARNING: q-point weigths do not add up to 1 [loadqmesh_serial]
     Size of q point mesh for interpolation:        165
     Using uniform k-mesh:    1   1   1
     Size of k point mesh for interpolation:          2
     Max number of k points per pool:                2

     Fermi energy coarse grid =  11.817696 eV

     Skipping the first    1 bands:

     The Fermi level will be determined with   6.00000 electrons

     Fermi energy is calculated from the fine k-mesh: Ef =  11.822747 eV

     ===================================================================

              ibndmin =     1  ebndmin =    11.818 eV
              ibndmax =     3  ebndmax =    11.818 eV


     Number of ep-matrix elements per pool :           54 ~=    0.42 Kb (@ 8 bytes/ DP)
     Number selected, total         100         100
     We only need to compute      165 q-points
      
      Electron-phonon vertex |g| (meV)

     iq =       1 coord.:    0.5000000   0.0000000   0.0000000
     ik =       1 coord.:    0.0000000   0.0000000   0.0000000
      ibnd     jbnd     imode   enk[eV]    enk+q[eV]  omega(q)[meV]   |g|[meV]
     ------------------------------------------------------------------------------
        1        1        1     11.8177      0.7493       39.2701439128    0.1135051260E+03
        1        1        2     11.8177      0.7493       39.2701439128    0.1135051260E+03
        1        1        3     11.8177      0.7493      113.4070963431    0.1863194789E+03
        1        1        4     11.8177      0.7493      127.4460774748    0.5570603460E+01
        1        1        5     11.8177      0.7493      127.4460774748    0.5570603460E+01
        1        1        6     11.8177      0.7493      149.2168377143    0.1413233456E+03
        1        2        1     11.8177      9.7532       39.2701439128    0.5661315907E+02
        1        2        2     11.8177      9.7532       39.2701439128    0.5661315907E+02
        1        2        3     11.8177      9.7532      113.4070963431    0.6472712887E+02
        1        2        4     11.8177      9.7532      127.4460774748    0.2430094151E+03
        1        2        5     11.8177      9.7532      127.4460774748    0.2430094151E+03
        1        2        6     11.8177      9.7532      149.2168377143    0.2670452392E+03
        1        3        1     11.8177      9.7532       39.2701439128    0.5661315907E+02
        1        3        2     11.8177      9.7532       39.2701439128    0.5661315907E+02
        1        3        3     11.8177      9.7532      113.4070963431    0.6472712887E+02
        1        3        4     11.8177      9.7532      127.4460774748    0.2430094151E+03
        1        3        5     11.8177      9.7532      127.4460774748    0.2430094151E+03
        1        3        6     11.8177      9.7532      149.2168377143    0.2670452392E+03
        2        1        1     11.8177      0.7493       39.2701439128    0.1135051260E+03
        2        1        2     11.8177      0.7493       39.2701439128    0.1135051260E+03
        2        1        3     11.8177      0.7493      113.4070963431    0.1863194789E+03
        2        1        4     11.8177      0.7493      127.4460774748    0.5570603460E+01
        2        1        5     11.8177      0.7493      127.4460774748    0.5570603460E+01
        2        1        6     11.8177      0.7493      149.2168377143    0.1413233456E+03
        2        2        1     11.8177      9.7532       39.2701439128    0.5661315907E+02
        2        2        2     11.8177      9.7532       39.2701439128    0.5661315907E+02
        2        2        3     11.8177      9.7532      113.4070963431    0.6472712887E+02
        2        2        4     11.8177      9.7532      127.4460774748    0.2430094151E+03
        2        2        5     11.8177      9.7532      127.4460774748    0.2430094151E+03
        2        2        6     11.8177      9.7532      149.2168377143    0.2670452392E+03
        2        3        1     11.8177      9.7532       39.2701439128    0.5661315907E+02
        2        3        2     11.8177      9.7532       39.2701439128    0.5661315907E+02
        2        3        3     11.8177      9.7532      113.4070963431    0.6472712887E+02
        2        3        4     11.8177      9.7532      127.4460774748    0.2430094151E+03
        2        3        5     11.8177      9.7532      127.4460774748    0.2430094151E+03
        2        3        6     11.8177      9.7532      149.2168377143    0.2670452392E+03
        3        1        1     11.8177      0.7493       39.2701439128    0.1135051260E+03
        3        1        2     11.8177      0.7493       39.2701439128    0.1135051260E+03
        3        1        3     11.8177      0.7493      113.4070963431    0.1863194789E+03
        3        1        4     11.8177      0.7493      127.4460774748    0.5570603460E+01
        3        1        5     11.8177      0.7493      127.4460774748    0.5570603460E+01
        3        1        6     11.8177      0.7493      149.2168377143    0.1413233456E+03
        3        2        1     11.8177      9.7532       39.2701439128    0.5661315907E+02
        3        2        2     11.8177      9.7532       39.2701439128    0.5661315907E+02
        3        2        3     11.8177      9.7532      113.4070963431    0.6472712887E+02
        3        2        4     11.8177      9.7532      127.4460774748    0.2430094151E+03
        3        2        5     11.8177      9.7532      127.4460774748    0.2430094151E+03
        3        2        6     11.8177      9.7532      149.2168377143    0.2670452392E+03
        3        3        1     11.8177      9.7532       39.2701439128    0.5661315907E+02
        3        3        2     11.8177      9.7532       39.2701439128    0.5661315907E+02
        3        3        3     11.8177      9.7532      113.4070963431    0.6472712887E+02
        3        3        4     11.8177      9.7532      127.4460774748    0.2430094151E+03
        3        3        5     11.8177      9.7532      127.4460774748    0.2430094151E+03
        3        3        6     11.8177      9.7532      149.2168377143    0.2670452392E+03
     ------------------------------------------------------------------------------

      Electron-phonon vertex |g| (meV)

     iq =       2 coord.:    0.4883721   0.0000000   0.0000000
     ik =       1 coord.:    0.0000000   0.0000000   0.0000000
      ibnd     jbnd     imode   enk[eV]    enk+q[eV]  omega(q)[meV]   |g|[meV]
     ------------------------------------------------------------------------------
        1        1        1     11.8177      0.7641       39.2523612228    0.1134366495E+03
        1        1        2     11.8177      0.7641       39.2523612228    0.1134366495E+03
        1        1        3     11.8177      0.7641      113.3375128420    0.1864284859E+03
        1        1        4     11.8177      0.7641      127.4680549578    0.5796151489E+01
        1        1        5     11.8177      0.7641      127.4680549578    0.5796151489E+01
        1        1        6     11.8177      0.7641      149.2616675106    0.1406845536E+03
        1        2        1     11.8177      9.7560       39.2523612228    0.5651988350E+02
        1        2        2     11.8177      9.7560       39.2523612228    0.5651988350E+02
        1        2        3     11.8177      9.7560      113.3375128420    0.6504515161E+02
        1        2        4     11.8177      9.7560      127.4680549578    0.2430069040E+03
        1        2        5     11.8177      9.7560      127.4680549578    0.2430069040E+03
        1        2        6     11.8177      9.7560      149.2616675106    0.2668177177E+03
        1        3        1     11.8177      9.7560       39.2523612228    0.5651988350E+02
        1        3        2     11.8177      9.7560       39.2523612228    0.5651988350E+02
        1        3        3     11.8177      9.7560      113.3375128420    0.6504515161E+02
        1        3        4     11.8177      9.7560      127.4680549578    0.2430069040E+03
        1        3        5     11.8177      9.7560      127.4680549578    0.2430069040E+03
        1        3        6     11.8177      9.7560      149.2616675106    0.2668177177E+03
        2        1        1     11.8177      0.7641       39.2523612228    0.1134366495E+03
        2        1        2     11.8177      0.7641       39.2523612228    0.1134366495E+03
        2        1        3     11.8177      0.7641      113.3375128420    0.1864284859E+03
        2        1        4     11.8177      0.7641      127.4680549578    0.5796151489E+01
        2        1        5     11.8177      0.7641      127.4680549578    0.5796151489E+01
        2        1        6     11.8177      0.7641      149.2616675106    0.1406845536E+03
        2        2        1     11.8177      9.7560       39.2523612228    0.5651988350E+02
        2        2        2     11.8177      9.7560       39.2523612228    0.5651988350E+02
        2        2        3     11.8177      9.7560      113.3375128420    0.6504515161E+02
        2        2        4     11.8177      9.7560      127.4680549578    0.2430069040E+03
        2        2        5     11.8177      9.7560      127.4680549578    0.2430069040E+03
        2        2        6     11.8177      9.7560      149.2616675106    0.2668177177E+03
        2        3        1     11.8177      9.7560       39.2523612228    0.5651988350E+02
        2        3        2     11.8177      9.7560       39.2523612228    0.5651988350E+02
        2        3        3     11.8177      9.7560      113.3375128420    0.6504515161E+02
        2        3        4     11.8177      9.7560      127.4680549578    0.2430069040E+03
        2        3        5     11.8177      9.7560      127.4680549578    0.2430069040E+03
        2        3        6     11.8177      9.7560      149.2616675106    0.2668177177E+03
        3        1        1     11.8177      0.7641       39.2523612228    0.1134366495E+03
        3        1        2     11.8177      0.7641       39.2523612228    0.1134366495E+03
        3        1        3     11.8177      0.7641      113.3375128420    0.1864284859E+03
        3        1        4     11.8177      0.7641      127.4680549578    0.5796151489E+01
        3        1        5     11.8177      0.7641      127.4680549578    0.5796151489E+01
        3        1        6     11.8177      0.7641      149.2616675106    0.1406845536E+03
        3        2        1     11.8177      9.7560       39.2523612228    0.5651988350E+02
        3        2        2     11.8177      9.7560       39.2523612228    0.5651988350E+02
        3        2        3     11.8177      9.7560      113.3375128420    0.6504515161E+02
        3        2        4     11.8177      9.7560      127.4680549578    0.2430069040E+03
        3        2        5     11.8177      9.7560      127.4680549578    0.2430069040E+03
        3        2        6     11.8177      9.7560      149.2616675106    0.2668177177E+03
        3        3        1     11.8177      9.7560       39.2523612228    0.5651988350E+02
        3        3        2     11.8177      9.7560       39.2523612228    0.5651988350E+02
        3        3        3     11.8177      9.7560      113.3375128420    0.6504515161E+02
        3        3        4     11.8177      9.7560      127.4680549578    0.2430069040E+03
        3        3        5     11.8177      9.7560      127.4680549578    0.2430069040E+03
        3        3        6     11.8177      9.7560      149.2616675106    0.2668177177E+03
     ------------------------------------------------------------------------------

      Electron-phonon vertex |g| (meV)

     iq =       3 coord.:    0.4767442   0.0000000   0.0000000
     ik =       1 coord.:    0.0000000   0.0000000   0.0000000
      ibnd     jbnd     imode   enk[eV]    enk+q[eV]  omega(q)[meV]   |g|[meV]
     ------------------------------------------------------------------------------
        1        1        1     11.8177      0.8083       39.1988734500    0.1132304443E+03
        1        1        2     11.8177      0.8083       39.1988734500    0.1132304443E+03
        1        1        3     11.8177      0.8083      113.1286193430    0.1867437637E+03
        1        1        4     11.8177      0.8083      127.5339042875    0.6471092063E+01
        1        1        5     11.8177      0.8083      127.5339042875    0.6471092063E+01
        1        1        6     11.8177      0.8083      149.3960566437    0.1387816901E+03
        1        2        1     11.8177      9.7642       39.1988734500    0.5624113428E+02
        1        2        2     11.8177      9.7642       39.1988734500    0.5624113428E+02
        1        2        3     11.8177      9.7642      113.1286193430    0.6597672800E+02
        1        2        4     11.8177      9.7642      127.5339042875    0.2429993463E+03
        1        2        5     11.8177      9.7642      127.5339042875    0.2429993463E+03
        1        2        6     11.8177      9.7642      149.3960566437    0.2661395464E+03
        1        3        1     11.8177      9.7642       39.1988734500    0.5624113428E+02
        1        3        2     11.8177      9.7642       39.1988734500    0.5624113428E+02
        1        3        3     11.8177      9.7642      113.1286193430    0.6597672800E+02
        1        3        4     11.8177      9.7642      127.5339042875    0.2429993463E+03
        1        3        5     11.8177      9.7642      127.5339042875    0.2429993463E+03
        1        3        6     11.8177      9.7642      149.3960566437    0.2661395464E+03
        2        1        1     11.8177      0.8083       39.1988734500    0.1132304443E+03
        2        1        2     11.8177      0.8083       39.1988734500    0.1132304443E+03
        2        1        3     11.8177      0.8083      113.1286193430    0.1867437637E+03
        2        1        4     11.8177      0.8083      127.5339042875    0.6471092063E+01
        2        1        5     11.8177      0.8083      127.5339042875    0.6471092063E+01
        2        1        6     11.8177      0.8083      149.3960566437    0.1387816901E+03
        2        2        1     11.8177      9.7642       39.1988734500    0.5624113428E+02
        2        2        2     11.8177      9.7642       39.1988734500    0.5624113428E+02
        2        2        3     11.8177      9.7642      113.1286193430    0.6597672800E+02
        2        2        4     11.8177      9.7642      127.5339042875    0.2429993463E+03
        2        2        5     11.8177      9.7642      127.5339042875    0.2429993463E+03
        2        2        6     11.8177      9.7642      149.3960566437    0.2661395464E+03
        2        3        1     11.8177      9.7642       39.1988734500    0.5624113428E+02
        2        3        2     11.8177      9.7642       39.1988734500    0.5624113428E+02
        2        3        3     11.8177      9.7642      113.1286193430    0.6597672800E+02
        2        3        4     11.8177      9.7642      127.5339042875    0.2429993463E+03
        2        3        5     11.8177      9.7642      127.5339042875    0.2429993463E+03
        2        3        6     11.8177      9.7642      149.3960566437    0.2661395464E+03
        3        1        1     11.8177      0.8083       39.1988734500    0.1132304443E+03
        3        1        2     11.8177      0.8083       39.1988734500    0.1132304443E+03
        3        1        3     11.8177      0.8083      113.1286193430    0.1867437637E+03
        3        1        4     11.8177      0.8083      127.5339042875    0.6471092063E+01
        3        1        5     11.8177      0.8083      127.5339042875    0.6471092063E+01
        3        1        6     11.8177      0.8083      149.3960566437    0.1387816901E+03
        3        2        1     11.8177      9.7642       39.1988734500    0.5624113428E+02
        3        2        2     11.8177      9.7642       39.1988734500    0.5624113428E+02
        3        2        3     11.8177      9.7642      113.1286193430    0.6597672800E+02
        3        2        4     11.8177      9.7642      127.5339042875    0.2429993463E+03
        3        2        5     11.8177      9.7642      127.5339042875    0.2429993463E+03
        3        2        6     11.8177      9.7642      149.3960566437    0.2661395464E+03
        3        3        1     11.8177      9.7642       39.1988734500    0.5624113428E+02
        3        3        2     11.8177      9.7642       39.1988734500    0.5624113428E+02
        3        3        3     11.8177      9.7642      113.1286193430    0.6597672800E+02
        3        3        4     11.8177      9.7642      127.5339042875    0.2429993463E+03
        3        3        5     11.8177      9.7642      127.5339042875    0.2429993463E+03
        3        3        6     11.8177      9.7642      149.3960566437    0.2661395464E+03
     ------------------------------------------------------------------------------

      Electron-phonon vertex |g| (meV)

     iq =       4 coord.:    0.4651163   0.0000000   0.0000000
     ik =       1 coord.:    0.0000000   0.0000000   0.0000000
      ibnd     jbnd     imode   enk[eV]    enk+q[eV]  omega(q)[meV]   |g|[meV]
     ------------------------------------------------------------------------------
        1        1        1     11.8177      0.8817       39.1092666542    0.1128842280E+03
        1        1        2     11.8177      0.8817       39.1092666542    0.1128842280E+03
        1        1        3     11.8177      0.8817      112.7800094483    0.1872254315E+03
        1        1        4     11.8177      0.8817      127.6433748468    0.7590296769E+01
        1        1        5     11.8177      0.8817      127.6433748468    0.7590296769E+01
        1        1        6     11.8177      0.8817      149.6196853583    0.1356683988E+03
        1        2        1     11.8177      9.7779       39.1092666542    0.5578008440E+02
        1        2        2     11.8177      9.7779       39.1092666542    0.5578008440E+02
        1        2        3     11.8177      9.7779      112.7800094483    0.6744963216E+02
        1        2        4     11.8177      9.7779      127.6433748468    0.2429866764E+03
        1        2        5     11.8177      9.7779      127.6433748468    0.2429866764E+03
        1        2        6     11.8177      9.7779      149.6196853583    0.2650267515E+03
        1        3        1     11.8177      9.7779       39.1092666542    0.5578008440E+02
        1        3        2     11.8177      9.7779       39.1092666542    0.5578008440E+02
        1        3        3     11.8177      9.7779      112.7800094483    0.6744963216E+02
        1        3        4     11.8177      9.7779      127.6433748468    0.2429866764E+03
        1        3        5     11.8177      9.7779      127.6433748468    0.2429866764E+03
        1        3        6     11.8177      9.7779      149.6196853583    0.2650267515E+03
        2        1        1     11.8177      0.8817       39.1092666542    0.1128842280E+03
        2        1        2     11.8177      0.8817       39.1092666542    0.1128842280E+03
        2        1        3     11.8177      0.8817      112.7800094483    0.1872254315E+03
        2        1        4     11.8177      0.8817      127.6433748468    0.7590296769E+01
        2        1        5     11.8177      0.8817      127.6433748468    0.7590296769E+01
        2        1        6     11.8177      0.8817      149.6196853583    0.1356683988E+03
        2        2        1     11.8177      9.7779       39.1092666542    0.5578008440E+02
        2        2        2     11.8177      9.7779       39.1092666542    0.5578008440E+02
        2        2        3     11.8177      9.7779      112.7800094483    0.6744963216E+02
        2        2        4     11.8177      9.7779      127.6433748468    0.2429866764E+03
        2        2        5     11.8177      9.7779      127.6433748468    0.2429866764E+03
        2        2        6     11.8177      9.7779      149.6196853583    0.2650267515E+03
        2        3        1     11.8177      9.7779       39.1092666542    0.5578008440E+02
        2        3        2     11.8177      9.7779       39.1092666542    0.5578008440E+02
        2        3        3     11.8177      9.7779      112.7800094483    0.6744963216E+02
        2        3        4     11.8177      9.7779      127.6433748468    0.2429866764E+03
        2        3        5     11.8177      9.7779      127.6433748468    0.2429866764E+03
        2        3        6     11.8177      9.7779      149.6196853583    0.2650267515E+03
        3        1        1     11.8177      0.8817       39.1092666542    0.1128842280E+03
        3        1        2     11.8177      0.8817       39.1092666542    0.1128842280E+03
        3        1        3     11.8177      0.8817      112.7800094483    0.1872254315E+03
        3        1        4     11.8177      0.8817      127.6433748468    0.7590296769E+01
        3        1        5     11.8177      0.8817      127.6433748468    0.7590296769E+01
        3        1        6     11.8177      0.8817      149.6196853583    0.1356683988E+03
        3        2        1     11.8177      9.7779       39.1092666542    0.5578008440E+02
        3        2        2     11.8177      9.7779       39.1092666542    0.5578008440E+02
        3        2        3     11.8177      9.7779      112.7800094483    0.6744963216E+02
        3        2        4     11.8177      9.7779      127.6433748468    0.2429866764E+03
        3        2        5     11.8177      9.7779      127.6433748468    0.2429866764E+03
        3        2        6     11.8177      9.7779      149.6196853583    0.2650267515E+03
        3        3        1     11.8177      9.7779       39.1092666542    0.5578008440E+02
        3        3        2     11.8177      9.7779       39.1092666542    0.5578008440E+02
        3        3        3     11.8177      9.7779      112.7800094483    0.6744963216E+02
        3        3        4     11.8177      9.7779      127.6433748468    0.2429866764E+03
        3        3        5     11.8177      9.7779      127.6433748468    0.2429866764E+03
        3        3        6     11.8177      9.7779      149.6196853583    0.2650267515E+03
     ------------------------------------------------------------------------------

      Electron-phonon vertex |g| (meV)

     iq =       5 coord.:    0.4534884   0.0000000   0.0000000
     ik =       1 coord.:    0.0000000   0.0000000   0.0000000
      ibnd     jbnd     imode   enk[eV]    enk+q[eV]  omega(q)[meV]   |g|[meV]
     ------------------------------------------------------------------------------
        1        1        1     11.8177      0.9839       38.9828679128    0.1123943221E+03
        1        1        2     11.8177      0.9839       38.9828679128    0.1123943221E+03
        1        1        3     11.8177      0.9839      112.2910771300    0.1878122314E+03
        1        1        4     11.8177      0.9839      127.7960448548    0.9145287422E+01
        1        1        5     11.8177      0.9839      127.7960448548    0.9145287422E+01
        1        1        6     11.8177      0.9839      149.9319613363    0.1314343521E+03
        1        2        1     11.8177      9.7970       38.9828679128    0.5514193373E+02
        1        2        2     11.8177      9.7970       38.9828679128    0.5514193373E+02
        1        2        3     11.8177      9.7970      112.2910771300    0.6935748786E+02
        1        2        4     11.8177      9.7970      127.7960448548    0.2429688009E+03
        1        2        5     11.8177      9.7970      127.7960448548    0.2429688009E+03
        1        2        6     11.8177      9.7970      149.9319613363    0.2635053645E+03
        1        3        1     11.8177      9.7970       38.9828679128    0.5514193373E+02
        1        3        2     11.8177      9.7970       38.9828679128    0.5514193373E+02
        1        3        3     11.8177      9.7970      112.2910771300    0.6935748786E+02
        1        3        4     11.8177      9.7970      127.7960448548    0.2429688009E+03
        1        3        5     11.8177      9.7970      127.7960448548    0.2429688009E+03
        1        3        6     11.8177      9.7970      149.9319613363    0.2635053645E+03
        2        1        1     11.8177      0.9839       38.9828679128    0.1123943221E+03
        2        1        2     11.8177      0.9839       38.9828679128    0.1123943221E+03
        2        1        3     11.8177      0.9839      112.2910771300    0.1878122314E+03
        2        1        4     11.8177      0.9839      127.7960448548    0.9145287422E+01
        2        1        5     11.8177      0.9839      127.7960448548    0.9145287422E+01
        2        1        6     11.8177      0.9839      149.9319613363    0.1314343521E+03
        2        2        1     11.8177      9.7970       38.9828679128    0.5514193373E+02
        2        2        2     11.8177      9.7970       38.9828679128    0.5514193373E+02
        2        2        3     11.8177      9.7970      112.2910771300    0.6935748786E+02
        2        2        4     11.8177      9.7970      127.7960448548    0.2429688009E+03
        2        2        5     11.8177      9.7970      127.7960448548    0.2429688009E+03
        2        2        6     11.8177      9.7970      149.9319613363    0.2635053645E+03
        2        3        1     11.8177      9.7970       38.9828679128    0.5514193373E+02
        2        3        2     11.8177      9.7970       38.9828679128    0.5514193373E+02
        2        3        3     11.8177      9.7970      112.2910771300    0.6935748786E+02
        2        3        4     11.8177      9.7970      127.7960448548    0.2429688009E+03
        2        3        5     11.8177      9.7970      127.7960448548    0.2429688009E+03
        2        3        6     11.8177      9.7970      149.9319613363    0.2635053645E+03
        3        1        1     11.8177      0.9839       38.9828679128    0.1123943221E+03
        3        1        2     11.8177      0.9839       38.9828679128    0.1123943221E+03
        3        1        3     11.8177      0.9839      112.2910771300    0.1878122314E+03
        3        1        4     11.8177      0.9839      127.7960448548    0.9145287422E+01
        3        1        5     11.8177      0.9839      127.7960448548    0.9145287422E+01
        3        1        6     11.8177      0.9839      149.9319613363    0.1314343521E+03
        3        2        1     11.8177      9.7970       38.9828679128    0.5514193373E+02
        3        2        2     11.8177      9.7970       38.9828679128    0.5514193373E+02
        3        2        3     11.8177      9.7970      112.2910771300    0.6935748786E+02
        3        2        4     11.8177      9.7970      127.7960448548    0.2429688009E+03
        3        2        5     11.8177      9.7970      127.7960448548    0.2429688009E+03
        3        2        6     11.8177      9.7970      149.9319613363    0.2635053645E+03
        3        3        1     11.8177      9.7970       38.9828679128    0.5514193373E+02
        3        3        2     11.8177      9.7970       38.9828679128    0.5514193373E+02
        3        3        3     11.8177      9.7970      112.2910771300    0.6935748786E+02
        3        3        4     11.8177      9.7970      127.7960448548    0.2429688009E+03
        3        3        5     11.8177      9.7970      127.7960448548    0.2429688009E+03
        3        3        6     11.8177      9.7970      149.9319613363    0.2635053645E+03
     ------------------------------------------------------------------------------

      Electron-phonon vertex |g| (meV)

     iq =       6 coord.:    0.4418605   0.0000000   0.0000000
     ik =       1 coord.:    0.0000000   0.0000000   0.0000000
      ibnd     jbnd     imode   enk[eV]    enk+q[eV]  omega(q)[meV]   |g|[meV]
     ------------------------------------------------------------------------------
        1        1        1     11.8177      1.1145       38.8187699335    0.1117558338E+03
        1        1        2     11.8177      1.1145       38.8187699335    0.1117558338E+03
        1        1        3     11.8177      1.1145      111.6611107666    0.1884283124E+03
        1        1        4     11.8177      1.1145      127.9913156198    0.1112434079E+02
        1        1        5     11.8177      1.1145      127.9913156198    0.1112434079E+02
        1        1        6     11.8177      1.1145      150.3319431916    0.1262062977E+03
        1        2        1     11.8177      9.8213       38.8187699335    0.5433378006E+02
        1        2        2     11.8177      9.8213       38.8187699335    0.5433378006E+02
        1        2        3     11.8177      9.8213      111.6611107666    0.7157566972E+02
        1        2        4     11.8177      9.8213      127.9913156198    0.2429456214E+03
        1        2        5     11.8177      9.8213      127.9913156198    0.2429456214E+03
        1        2        6     11.8177      9.8213      150.3319431916    0.2616104536E+03
        1        3        1     11.8177      9.8213       38.8187699335    0.5433378006E+02
        1        3        2     11.8177      9.8213       38.8187699335    0.5433378006E+02
        1        3        3     11.8177      9.8213      111.6611107666    0.7157566972E+02
        1        3        4     11.8177      9.8213      127.9913156198    0.2429456214E+03
        1        3        5     11.8177      9.8213      127.9913156198    0.2429456214E+03
        1        3        6     11.8177      9.8213      150.3319431916    0.2616104536E+03
        2        1        1     11.8177      1.1145       38.8187699335    0.1117558338E+03
        2        1        2     11.8177      1.1145       38.8187699335    0.1117558338E+03
        2        1        3     11.8177      1.1145      111.6611107666    0.1884283124E+03
        2        1        4     11.8177      1.1145      127.9913156198    0.1112434079E+02
        2        1        5     11.8177      1.1145      127.9913156198    0.1112434079E+02
        2        1        6     11.8177      1.1145      150.3319431916    0.1262062977E+03
        2        2        1     11.8177      9.8213       38.8187699335    0.5433378006E+02
        2        2        2     11.8177      9.8213       38.8187699335    0.5433378006E+02
        2        2        3     11.8177      9.8213      111.6611107666    0.7157566972E+02
        2        2        4     11.8177      9.8213      127.9913156198    0.2429456214E+03
        2        2        5     11.8177      9.8213      127.9913156198    0.2429456214E+03
        2        2        6     11.8177      9.8213      150.3319431916    0.2616104536E+03
        2        3        1     11.8177      9.8213       38.8187699335    0.5433378006E+02
        2        3        2     11.8177      9.8213       38.8187699335    0.5433378006E+02
        2        3        3     11.8177      9.8213      111.6611107666    0.7157566972E+02
        2        3        4     11.8177      9.8213      127.9913156198    0.2429456214E+03
        2        3        5     11.8177      9.8213      127.9913156198    0.2429456214E+03
        2        3        6     11.8177      9.8213      150.3319431916    0.2616104536E+03
        3        1        1     11.8177      1.1145       38.8187699335    0.1117558338E+03
        3        1        2     11.8177      1.1145       38.8187699335    0.1117558338E+03
        3        1        3     11.8177      1.1145      111.6611107666    0.1884283124E+03
        3        1        4     11.8177      1.1145      127.9913156198    0.1112434079E+02
        3        1        5     11.8177      1.1145      127.9913156198    0.1112434079E+02
        3        1        6     11.8177      1.1145      150.3319431916    0.1262062977E+03
        3        2        1     11.8177      9.8213       38.8187699335    0.5433378006E+02
        3        2        2     11.8177      9.8213       38.8187699335    0.5433378006E+02
        3        2        3     11.8177      9.8213      111.6611107666    0.7157566972E+02
        3        2        4     11.8177      9.8213      127.9913156198    0.2429456214E+03
        3        2        5     11.8177      9.8213      127.9913156198    0.2429456214E+03
        3        2        6     11.8177      9.8213      150.3319431916    0.2616104536E+03
        3        3        1     11.8177      9.8213       38.8187699335    0.5433378006E+02
        3        3        2     11.8177      9.8213       38.8187699335    0.5433378006E+02
        3        3        3     11.8177      9.8213      111.6611107666    0.7157566972E+02
        3        3        4     11.8177      9.8213      127.9913156198    0.2429456214E+03
        3        3        5     11.8177      9.8213      127.9913156198    0.2429456214E+03
        3        3        6     11.8177      9.8213      150.3319431916    0.2616104536E+03
     ------------------------------------------------------------------------------

      Electron-phonon vertex |g| (meV)

     iq =       7 coord.:    0.4302326   0.0000000   0.0000000
     ik =       1 coord.:    0.0000000   0.0000000   0.0000000
      ibnd     jbnd     imode   enk[eV]    enk+q[eV]  omega(q)[meV]   |g|[meV]
     ------------------------------------------------------------------------------
        1        1        1     11.8177      1.2726       38.6158638652    0.1109628983E+03
        1        1        2     11.8177      1.2726       38.6158638652    0.1109628983E+03
        1        1        3     11.8177      1.2726      110.8894024161    0.1889908902E+03
        1        1        4     11.8177      1.2726      128.2284042298    0.1351263281E+02
        1        1        5     11.8177      1.2726      128.2284042298    0.1351263281E+02
        1        1        6     11.8177      1.2726      150.8182550970    0.1201508113E+03
        1        2        1     11.8177      9.8508       38.6158638652    0.5336444559E+02
        1        2        2     11.8177      9.8508       38.6158638652    0.5336444559E+02
        1        2        3     11.8177      9.8508      110.8894024161    0.7397630350E+02
        1        2        4     11.8177      9.8508      128.2284042298    0.2429170629E+03
        1        2        5     11.8177      9.8508      128.2284042298    0.2429170629E+03
        1        2        6     11.8177      9.8508      150.8182550970    0.2593848931E+03
        1        3        1     11.8177      9.8508       38.6158638652    0.5336444559E+02
        1        3        2     11.8177      9.8508       38.6158638652    0.5336444559E+02
        1        3        3     11.8177      9.8508      110.8894024161    0.7397630350E+02
        1        3        4     11.8177      9.8508      128.2284042298    0.2429170629E+03
        1        3        5     11.8177      9.8508      128.2284042298    0.2429170629E+03
        1        3        6     11.8177      9.8508      150.8182550970    0.2593848931E+03
        2        1        1     11.8177      1.2726       38.6158638652    0.1109628983E+03
        2        1        2     11.8177      1.2726       38.6158638652    0.1109628983E+03
        2        1        3     11.8177      1.2726      110.8894024161    0.1889908902E+03
        2        1        4     11.8177      1.2726      128.2284042298    0.1351263281E+02
        2        1        5     11.8177      1.2726      128.2284042298    0.1351263281E+02
        2        1        6     11.8177      1.2726      150.8182550970    0.1201508113E+03
        2        2        1     11.8177      9.8508       38.6158638652    0.5336444559E+02
        2        2        2     11.8177      9.8508       38.6158638652    0.5336444559E+02
        2        2        3     11.8177      9.8508      110.8894024161    0.7397630350E+02
        2        2        4     11.8177      9.8508      128.2284042298    0.2429170629E+03
        2        2        5     11.8177      9.8508      128.2284042298    0.2429170629E+03
        2        2        6     11.8177      9.8508      150.8182550970    0.2593848931E+03
        2        3        1     11.8177      9.8508       38.6158638652    0.5336444559E+02
        2        3        2     11.8177      9.8508       38.6158638652    0.5336444559E+02
        2        3        3     11.8177      9.8508      110.8894024161    0.7397630350E+02
        2        3        4     11.8177      9.8508      128.2284042298    0.2429170629E+03
        2        3        5     11.8177      9.8508      128.2284042298    0.2429170629E+03
        2        3        6     11.8177      9.8508      150.8182550970    0.2593848931E+03
        3        1        1     11.8177      1.2726       38.6158638652    0.1109628983E+03
        3        1        2     11.8177      1.2726       38.6158638652    0.1109628983E+03
        3        1        3     11.8177      1.2726      110.8894024161    0.1889908902E+03
        3        1        4     11.8177      1.2726      128.2284042298    0.1351263281E+02
        3        1        5     11.8177      1.2726      128.2284042298    0.1351263281E+02
        3        1        6     11.8177      1.2726      150.8182550970    0.1201508113E+03
        3        2        1     11.8177      9.8508       38.6158638652    0.5336444559E+02
        3        2        2     11.8177      9.8508       38.6158638652    0.5336444559E+02
        3        2        3     11.8177      9.8508      110.8894024161    0.7397630350E+02
        3        2        4     11.8177      9.8508      128.2284042298    0.2429170629E+03
        3        2        5     11.8177      9.8508      128.2284042298    0.2429170629E+03
        3        2        6     11.8177      9.8508      150.8182550970    0.2593848931E+03
        3        3        1     11.8177      9.8508       38.6158638652    0.5336444559E+02
        3        3        2     11.8177      9.8508       38.6158638652    0.5336444559E+02
        3        3        3     11.8177      9.8508      110.8894024161    0.7397630350E+02
        3        3        4     11.8177      9.8508      128.2284042298    0.2429170629E+03
        3        3        5     11.8177      9.8508      128.2284042298    0.2429170629E+03
        3        3        6     11.8177      9.8508      150.8182550970    0.2593848931E+03
     ------------------------------------------------------------------------------

      Electron-phonon vertex |g| (meV)

     iq =       8 coord.:    0.4186047   0.0000000   0.0000000
     ik =       1 coord.:    0.0000000   0.0000000   0.0000000
      ibnd     jbnd     imode   enk[eV]    enk+q[eV]  omega(q)[meV]   |g|[meV]
     ------------------------------------------------------------------------------
        1        1        1     11.8177      1.4574       38.3728787948    0.1100089692E+03
        1        1        2     11.8177      1.4574       38.3728787948    0.1100089692E+03
        1        1        3     11.8177      1.4574      109.9753567703    0.1894175847E+03
        1        1        4     11.8177      1.4574      128.5063353524    0.1629242045E+02
        1        1        5     11.8177      1.4574      128.5063353524    0.1629242045E+02
        1        1        6     11.8177      1.4574      151.3890074932    0.1134799911E+03
        1        2        1     11.8177      9.8853       38.3728787948    0.5224426568E+02
        1        2        2     11.8177      9.8853       38.3728787948    0.5224426568E+02
        1        2        3     11.8177      9.8853      109.9753567703    0.7643972940E+02
        1        2        4     11.8177      9.8853      128.5063353524    0.2428831063E+03
        1        2        5     11.8177      9.8853      128.5063353524    0.2428831063E+03
        1        2        6     11.8177      9.8853      151.3890074932    0.2568779983E+03
        1        3        1     11.8177      9.8853       38.3728787948    0.5224426568E+02
        1        3        2     11.8177      9.8853       38.3728787948    0.5224426568E+02
        1        3        3     11.8177      9.8853      109.9753567703    0.7643972940E+02
        1        3        4     11.8177      9.8853      128.5063353524    0.2428831063E+03
        1        3        5     11.8177      9.8853      128.5063353524    0.2428831063E+03
        1        3        6     11.8177      9.8853      151.3890074932    0.2568779983E+03
        2        1        1     11.8177      1.4574       38.3728787948    0.1100089692E+03
        2        1        2     11.8177      1.4574       38.3728787948    0.1100089692E+03
        2        1        3     11.8177      1.4574      109.9753567703    0.1894175847E+03
        2        1        4     11.8177      1.4574      128.5063353524    0.1629242045E+02
        2        1        5     11.8177      1.4574      128.5063353524    0.1629242045E+02
        2        1        6     11.8177      1.4574      151.3890074932    0.1134799911E+03
        2        2        1     11.8177      9.8853       38.3728787948    0.5224426568E+02
        2        2        2     11.8177      9.8853       38.3728787948    0.5224426568E+02
        2        2        3     11.8177      9.8853      109.9753567703    0.7643972940E+02
        2        2        4     11.8177      9.8853      128.5063353524    0.2428831063E+03
        2        2        5     11.8177      9.8853      128.5063353524    0.2428831063E+03
        2        2        6     11.8177      9.8853      151.3890074932    0.2568779983E+03
        2        3        1     11.8177      9.8853       38.3728787948    0.5224426568E+02
        2        3        2     11.8177      9.8853       38.3728787948    0.5224426568E+02
        2        3        3     11.8177      9.8853      109.9753567703    0.7643972940E+02
        2        3        4     11.8177      9.8853      128.5063353524    0.2428831063E+03
        2        3        5     11.8177      9.8853      128.5063353524    0.2428831063E+03
        2        3        6     11.8177      9.8853      151.3890074932    0.2568779983E+03
        3        1        1     11.8177      1.4574       38.3728787948    0.1100089692E+03
        3        1        2     11.8177      1.4574       38.3728787948    0.1100089692E+03
        3        1        3     11.8177      1.4574      109.9753567703    0.1894175847E+03
        3        1        4     11.8177      1.4574      128.5063353524    0.1629242045E+02
        3        1        5     11.8177      1.4574      128.5063353524    0.1629242045E+02
        3        1        6     11.8177      1.4574      151.3890074932    0.1134799911E+03
        3        2        1     11.8177      9.8853       38.3728787948    0.5224426568E+02
        3        2        2     11.8177      9.8853       38.3728787948    0.5224426568E+02
        3        2        3     11.8177      9.8853      109.9753567703    0.7643972940E+02
        3        2        4     11.8177      9.8853      128.5063353524    0.2428831063E+03
        3        2        5     11.8177      9.8853      128.5063353524    0.2428831063E+03
        3        2        6     11.8177      9.8853      151.3890074932    0.2568779983E+03
        3        3        1     11.8177      9.8853       38.3728787948    0.5224426568E+02
        3        3        2     11.8177      9.8853       38.3728787948    0.5224426568E+02
        3        3        3     11.8177      9.8853      109.9753567703    0.7643972940E+02
        3        3        4     11.8177      9.8853      128.5063353524    0.2428831063E+03
        3        3        5     11.8177      9.8853      128.5063353524    0.2428831063E+03
        3        3        6     11.8177      9.8853      151.3890074932    0.2568779983E+03
     ------------------------------------------------------------------------------

      Electron-phonon vertex |g| (meV)

     iq =       9 coord.:    0.4069767   0.0000000   0.0000000
     ik =       1 coord.:    0.0000000   0.0000000   0.0000000
      ibnd     jbnd     imode   enk[eV]    enk+q[eV]  omega(q)[meV]   |g|[meV]
     ------------------------------------------------------------------------------
        1        1        1     11.8177      1.6680       38.0884261657    0.1088871444E+03
        1        1        2     11.8177      1.6680       38.0884261657    0.1088871444E+03
        1        1        3     11.8177      1.6680      108.9185868896    0.1896325206E+03
        1        1        4     11.8177      1.6680      128.8239329179    0.1944325882E+02
        1        1        5     11.8177      1.6680      128.8239329179    0.1944325882E+02
        1        1        6     11.8177      1.6680      152.0417360618    0.1064614395E+03
        1        2        1     11.8177      9.9246       38.0884261657    0.5098484786E+02
        1        2        2     11.8177      9.9246       38.0884261657    0.5098484786E+02
        1        2        3     11.8177      9.9246      108.9185868896    0.7886170992E+02
        1        2        4     11.8177      9.9246      128.8239329179    0.2428438207E+03
        1        2        5     11.8177      9.9246      128.8239329179    0.2428438207E+03
        1        2        6     11.8177      9.9246      152.0417360618    0.2541441791E+03
        1        3        1     11.8177      9.9246       38.0884261657    0.5098484786E+02
        1        3        2     11.8177      9.9246       38.0884261657    0.5098484786E+02
        1        3        3     11.8177      9.9246      108.9185868896    0.7886170992E+02
        1        3        4     11.8177      9.9246      128.8239329179    0.2428438207E+03
        1        3        5     11.8177      9.9246      128.8239329179    0.2428438207E+03
        1        3        6     11.8177      9.9246      152.0417360618    0.2541441791E+03
        2        1        1     11.8177      1.6680       38.0884261657    0.1088871444E+03
        2        1        2     11.8177      1.6680       38.0884261657    0.1088871444E+03
        2        1        3     11.8177      1.6680      108.9185868896    0.1896325206E+03
        2        1        4     11.8177      1.6680      128.8239329179    0.1944325882E+02
        2        1        5     11.8177      1.6680      128.8239329179    0.1944325882E+02
        2        1        6     11.8177      1.6680      152.0417360618    0.1064614395E+03
        2        2        1     11.8177      9.9246       38.0884261657    0.5098484786E+02
        2        2        2     11.8177      9.9246       38.0884261657    0.5098484786E+02
        2        2        3     11.8177      9.9246      108.9185868896    0.7886170992E+02
        2        2        4     11.8177      9.9246      128.8239329179    0.2428438207E+03
        2        2        5     11.8177      9.9246      128.8239329179    0.2428438207E+03
        2        2        6     11.8177      9.9246      152.0417360618    0.2541441791E+03
        2        3        1     11.8177      9.9246       38.0884261657    0.5098484786E+02
        2        3        2     11.8177      9.9246       38.0884261657    0.5098484786E+02
        2        3        3     11.8177      9.9246      108.9185868896    0.7886170992E+02
        2        3        4     11.8177      9.9246      128.8239329179    0.2428438207E+03
        2        3        5     11.8177      9.9246      128.8239329179    0.2428438207E+03
        2        3        6     11.8177      9.9246      152.0417360618    0.2541441791E+03
        3        1        1     11.8177      1.6680       38.0884261657    0.1088871444E+03
        3        1        2     11.8177      1.6680       38.0884261657    0.1088871444E+03
        3        1        3     11.8177      1.6680      108.9185868896    0.1896325206E+03
        3        1        4     11.8177      1.6680      128.8239329179    0.1944325882E+02
        3        1        5     11.8177      1.6680      128.8239329179    0.1944325882E+02
        3        1        6     11.8177      1.6680      152.0417360618    0.1064614395E+03
        3        2        1     11.8177      9.9246       38.0884261657    0.5098484786E+02
        3        2        2     11.8177      9.9246       38.0884261657    0.5098484786E+02
        3        2        3     11.8177      9.9246      108.9185868896    0.7886170992E+02
        3        2        4     11.8177      9.9246      128.8239329179    0.2428438207E+03
        3        2        5     11.8177      9.9246      128.8239329179    0.2428438207E+03
        3        2        6     11.8177      9.9246      152.0417360618    0.2541441791E+03
        3        3        1     11.8177      9.9246       38.0884261657    0.5098484786E+02
        3        3        2     11.8177      9.9246       38.0884261657    0.5098484786E+02
        3        3        3     11.8177      9.9246      108.9185868896    0.7886170992E+02
        3        3        4     11.8177      9.9246      128.8239329179    0.2428438207E+03
        3        3        5     11.8177      9.9246      128.8239329179    0.2428438207E+03
        3        3        6     11.8177      9.9246      152.0417360618    0.2541441791E+03
     ------------------------------------------------------------------------------

      Electron-phonon vertex |g| (meV)

     iq =      10 coord.:    0.3953488   0.0000000   0.0000000
     ik =       1 coord.:    0.0000000   0.0000000   0.0000000
      ibnd     jbnd     imode   enk[eV]    enk+q[eV]  omega(q)[meV]   |g|[meV]
     ------------------------------------------------------------------------------
        1        1        1     11.8177      1.9032       37.7610472141    0.1075905109E+03
        1        1        2     11.8177      1.9032       37.7610472141    0.1075905109E+03
        1        1        3     11.8177      1.9032      107.7190712550    0.1895706328E+03
        1        1        4     11.8177      1.9032      129.1798125131    0.2294224978E+02
        1        1        5     11.8177      1.9032      129.1798125131    0.2294224978E+02
        1        1        6     11.8177      1.9032      152.7733922503    0.9943350911E+02
        1        2        1     11.8177      9.9684       37.7610472141    0.4959881013E+02
        1        2        2     11.8177      9.9684       37.7610472141    0.4959881013E+02
        1        2        3     11.8177      9.9684      107.7190712550    0.8115677833E+02
        1        2        4     11.8177      9.9684      129.1798125131    0.2427993941E+03
        1        2        5     11.8177      9.9684      129.1798125131    0.2427993941E+03
        1        2        6     11.8177      9.9684      152.7733922503    0.2512418523E+03
        1        3        1     11.8177      9.9684       37.7610472141    0.4959881013E+02
        1        3        2     11.8177      9.9684       37.7610472141    0.4959881013E+02
        1        3        3     11.8177      9.9684      107.7190712550    0.8115677833E+02
        1        3        4     11.8177      9.9684      129.1798125131    0.2427993941E+03
        1        3        5     11.8177      9.9684      129.1798125131    0.2427993941E+03
        1        3        6     11.8177      9.9684      152.7733922503    0.2512418523E+03
        2        1        1     11.8177      1.9032       37.7610472141    0.1075905109E+03
        2        1        2     11.8177      1.9032       37.7610472141    0.1075905109E+03
        2        1        3     11.8177      1.9032      107.7190712550    0.1895706328E+03
        2        1        4     11.8177      1.9032      129.1798125131    0.2294224978E+02
        2        1        5     11.8177      1.9032      129.1798125131    0.2294224978E+02
        2        1        6     11.8177      1.9032      152.7733922503    0.9943350911E+02
        2        2        1     11.8177      9.9684       37.7610472141    0.4959881013E+02
        2        2        2     11.8177      9.9684       37.7610472141    0.4959881013E+02
        2        2        3     11.8177      9.9684      107.7190712550    0.8115677833E+02
        2        2        4     11.8177      9.9684      129.1798125131    0.2427993941E+03
        2        2        5     11.8177      9.9684      129.1798125131    0.2427993941E+03
        2        2        6     11.8177      9.9684      152.7733922503    0.2512418523E+03
        2        3        1     11.8177      9.9684       37.7610472141    0.4959881013E+02
        2        3        2     11.8177      9.9684       37.7610472141    0.4959881013E+02
        2        3        3     11.8177      9.9684      107.7190712550    0.8115677833E+02
        2        3        4     11.8177      9.9684      129.1798125131    0.2427993941E+03
        2        3        5     11.8177      9.9684      129.1798125131    0.2427993941E+03
        2        3        6     11.8177      9.9684      152.7733922503    0.2512418523E+03
        3        1        1     11.8177      1.9032       37.7610472141    0.1075905109E+03
        3        1        2     11.8177      1.9032       37.7610472141    0.1075905109E+03
        3        1        3     11.8177      1.9032      107.7190712550    0.1895706328E+03
        3        1        4     11.8177      1.9032      129.1798125131    0.2294224978E+02
        3        1        5     11.8177      1.9032      129.1798125131    0.2294224978E+02
        3        1        6     11.8177      1.9032      152.7733922503    0.9943350911E+02
        3        2        1     11.8177      9.9684       37.7610472141    0.4959881013E+02
        3        2        2     11.8177      9.9684       37.7610472141    0.4959881013E+02
        3        2        3     11.8177      9.9684      107.7190712550    0.8115677833E+02
        3        2        4     11.8177      9.9684      129.1798125131    0.2427993941E+03
        3        2        5     11.8177      9.9684      129.1798125131    0.2427993941E+03
        3        2        6     11.8177      9.9684      152.7733922503    0.2512418523E+03
        3        3        1     11.8177      9.9684       37.7610472141    0.4959881013E+02
        3        3        2     11.8177      9.9684       37.7610472141    0.4959881013E+02
        3        3        3     11.8177      9.9684      107.7190712550    0.8115677833E+02
        3        3        4     11.8177      9.9684      129.1798125131    0.2427993941E+03
        3        3        5     11.8177      9.9684      129.1798125131    0.2427993941E+03
        3        3        6     11.8177      9.9684      152.7733922503    0.2512418523E+03
     ------------------------------------------------------------------------------

      Electron-phonon vertex |g| (meV)

     iq =      11 coord.:    0.3837209   0.0000000   0.0000000
     ik =       1 coord.:    0.0000000   0.0000000   0.0000000
      ibnd     jbnd     imode   enk[eV]    enk+q[eV]  omega(q)[meV]   |g|[meV]
     ------------------------------------------------------------------------------
        1        1        1     11.8177      2.1618       37.3892614947    0.1061124962E+03
        1        1        2     11.8177      2.1618       37.3892614947    0.1061124962E+03
        1        1        3     11.8177      2.1618      106.3768943243    0.1891804097E+03
        1        1        4     11.8177      2.1618      129.5723752996    0.2676431740E+02
        1        1        5     11.8177      2.1618      129.5723752996    0.2676431740E+02
        1        1        6     11.8177      2.1618      153.5802386593    0.9282272223E+02
        1        2        1     11.8177     10.0167       37.3892614947    0.4809950800E+02
        1        2        2     11.8177     10.0167       37.3892614947    0.4809950800E+02
        1        2        3     11.8177     10.0167      106.3768943243    0.8325942639E+02
        1        2        4     11.8177     10.0167      129.5723752996    0.2427501582E+03
        1        2        5     11.8177     10.0167      129.5723752996    0.2427501582E+03
        1        2        6     11.8177     10.0167      153.5802386593    0.2482322193E+03
        1        3        1     11.8177     10.0167       37.3892614947    0.4809950800E+02
        1        3        2     11.8177     10.0167       37.3892614947    0.4809950800E+02
        1        3        3     11.8177     10.0167      106.3768943243    0.8325942639E+02
        1        3        4     11.8177     10.0167      129.5723752996    0.2427501582E+03
        1        3        5     11.8177     10.0167      129.5723752996    0.2427501582E+03
        1        3        6     11.8177     10.0167      153.5802386593    0.2482322193E+03
        2        1        1     11.8177      2.1618       37.3892614947    0.1061124962E+03
        2        1        2     11.8177      2.1618       37.3892614947    0.1061124962E+03
        2        1        3     11.8177      2.1618      106.3768943243    0.1891804097E+03
        2        1        4     11.8177      2.1618      129.5723752996    0.2676431740E+02
        2        1        5     11.8177      2.1618      129.5723752996    0.2676431740E+02
        2        1        6     11.8177      2.1618      153.5802386593    0.9282272223E+02
        2        2        1     11.8177     10.0167       37.3892614947    0.4809950800E+02
        2        2        2     11.8177     10.0167       37.3892614947    0.4809950800E+02
        2        2        3     11.8177     10.0167      106.3768943243    0.8325942639E+02
        2        2        4     11.8177     10.0167      129.5723752996    0.2427501582E+03
        2        2        5     11.8177     10.0167      129.5723752996    0.2427501582E+03
        2        2        6     11.8177     10.0167      153.5802386593    0.2482322193E+03
        2        3        1     11.8177     10.0167       37.3892614947    0.4809950800E+02
        2        3        2     11.8177     10.0167       37.3892614947    0.4809950800E+02
        2        3        3     11.8177     10.0167      106.3768943243    0.8325942639E+02
        2        3        4     11.8177     10.0167      129.5723752996    0.2427501582E+03
        2        3        5     11.8177     10.0167      129.5723752996    0.2427501582E+03
        2        3        6     11.8177     10.0167      153.5802386593    0.2482322193E+03
        3        1        1     11.8177      2.1618       37.3892614947    0.1061124962E+03
        3        1        2     11.8177      2.1618       37.3892614947    0.1061124962E+03
        3        1        3     11.8177      2.1618      106.3768943243    0.1891804097E+03
        3        1        4     11.8177      2.1618      129.5723752996    0.2676431740E+02
        3        1        5     11.8177      2.1618      129.5723752996    0.2676431740E+02
        3        1        6     11.8177      2.1618      153.5802386593    0.9282272223E+02
        3        2        1     11.8177     10.0167       37.3892614947    0.4809950800E+02
        3        2        2     11.8177     10.0167       37.3892614947    0.4809950800E+02
        3        2        3     11.8177     10.0167      106.3768943243    0.8325942639E+02
        3        2        4     11.8177     10.0167      129.5723752996    0.2427501582E+03
        3        2        5     11.8177     10.0167      129.5723752996    0.2427501582E+03
        3        2        6     11.8177     10.0167      153.5802386593    0.2482322193E+03
        3        3        1     11.8177     10.0167       37.3892614947    0.4809950800E+02
        3        3        2     11.8177     10.0167       37.3892614947    0.4809950800E+02
        3        3        3     11.8177     10.0167      106.3768943243    0.8325942639E+02
        3        3        4     11.8177     10.0167      129.5723752996    0.2427501582E+03
        3        3        5     11.8177     10.0167      129.5723752996    0.2427501582E+03
        3        3        6     11.8177     10.0167      153.5802386593    0.2482322193E+03
     ------------------------------------------------------------------------------

      Electron-phonon vertex |g| (meV)

     iq =      12 coord.:    0.3720930   0.0000000   0.0000000
     ik =       1 coord.:    0.0000000   0.0000000   0.0000000
      ibnd     jbnd     imode   enk[eV]    enk+q[eV]  omega(q)[meV]   |g|[meV]
     ------------------------------------------------------------------------------
        1        1        1     11.8177      2.4424       36.9717148039    0.1044470743E+03
        1        1        2     11.8177      2.4424       36.9717148039    0.1044470743E+03
        1        1        3     11.8177      2.4424      104.8927925918    0.1884243872E+03
        1        1        4     11.8177      2.4424      129.9998075523    0.3088249679E+02
        1        1        5     11.8177      2.4424      129.9998075523    0.3088249679E+02
        1        1        6     11.8177      2.4424      154.4580214056    0.8715813135E+02
        1        2        1     11.8177     10.0690       36.9717148039    0.4650075663E+02
        1        2        2     11.8177     10.0690       36.9717148039    0.4650075663E+02
        1        2        3     11.8177     10.0690      104.8927925918    0.8512225891E+02
        1        2        4     11.8177     10.0690      129.9998075523    0.2426965989E+03
        1        2        5     11.8177     10.0690      129.9998075523    0.2426965989E+03
        1        2        6     11.8177     10.0690      154.4580214056    0.2451793624E+03
        1        3        1     11.8177     10.0690       36.9717148039    0.4650075663E+02
        1        3        2     11.8177     10.0690       36.9717148039    0.4650075663E+02
        1        3        3     11.8177     10.0690      104.8927925918    0.8512225891E+02
        1        3        4     11.8177     10.0690      129.9998075523    0.2426965989E+03
        1        3        5     11.8177     10.0690      129.9998075523    0.2426965989E+03
        1        3        6     11.8177     10.0690      154.4580214056    0.2451793624E+03
        2        1        1     11.8177      2.4424       36.9717148039    0.1044470743E+03
        2        1        2     11.8177      2.4424       36.9717148039    0.1044470743E+03
        2        1        3     11.8177      2.4424      104.8927925918    0.1884243872E+03
        2        1        4     11.8177      2.4424      129.9998075523    0.3088249679E+02
        2        1        5     11.8177      2.4424      129.9998075523    0.3088249679E+02
        2        1        6     11.8177      2.4424      154.4580214056    0.8715813135E+02
        2        2        1     11.8177     10.0690       36.9717148039    0.4650075663E+02
        2        2        2     11.8177     10.0690       36.9717148039    0.4650075663E+02
        2        2        3     11.8177     10.0690      104.8927925918    0.8512225891E+02
        2        2        4     11.8177     10.0690      129.9998075523    0.2426965989E+03
        2        2        5     11.8177     10.0690      129.9998075523    0.2426965989E+03
        2        2        6     11.8177     10.0690      154.4580214056    0.2451793624E+03
        2        3        1     11.8177     10.0690       36.9717148039    0.4650075663E+02
        2        3        2     11.8177     10.0690       36.9717148039    0.4650075663E+02
        2        3        3     11.8177     10.0690      104.8927925918    0.8512225891E+02
        2        3        4     11.8177     10.0690      129.9998075523    0.2426965989E+03
        2        3        5     11.8177     10.0690      129.9998075523    0.2426965989E+03
        2        3        6     11.8177     10.0690      154.4580214056    0.2451793624E+03
        3        1        1     11.8177      2.4424       36.9717148039    0.1044470743E+03
        3        1        2     11.8177      2.4424       36.9717148039    0.1044470743E+03
        3        1        3     11.8177      2.4424      104.8927925918    0.1884243872E+03
        3        1        4     11.8177      2.4424      129.9998075523    0.3088249679E+02
        3        1        5     11.8177      2.4424      129.9998075523    0.3088249679E+02
        3        1        6     11.8177      2.4424      154.4580214056    0.8715813135E+02
        3        2        1     11.8177     10.0690       36.9717148039    0.4650075663E+02
        3        2        2     11.8177     10.0690       36.9717148039    0.4650075663E+02
        3        2        3     11.8177     10.0690      104.8927925918    0.8512225891E+02
        3        2        4     11.8177     10.0690      129.9998075523    0.2426965989E+03
        3        2        5     11.8177     10.0690      129.9998075523    0.2426965989E+03
        3        2        6     11.8177     10.0690      154.4580214056    0.2451793624E+03
        3        3        1     11.8177     10.0690       36.9717148039    0.4650075663E+02
        3        3        2     11.8177     10.0690       36.9717148039    0.4650075663E+02
        3        3        3     11.8177     10.0690      104.8927925918    0.8512225891E+02
        3        3        4     11.8177     10.0690      129.9998075523    0.2426965989E+03
        3        3        5     11.8177     10.0690      129.9998075523    0.2426965989E+03
        3        3        6     11.8177     10.0690      154.4580214056    0.2451793624E+03
     ------------------------------------------------------------------------------

      Electron-phonon vertex |g| (meV)

     iq =      13 coord.:    0.3604651   0.0000000   0.0000000
     ik =       1 coord.:    0.0000000   0.0000000   0.0000000
      ibnd     jbnd     imode   enk[eV]    enk+q[eV]  omega(q)[meV]   |g|[meV]
     ------------------------------------------------------------------------------
        1        1        1     11.8177      2.7434       36.5068457401    0.1025895919E+03
        1        1        2     11.8177      2.7434       36.5068457401    0.1025895919E+03
        1        1        3     11.8177      2.7434      103.2675663707    0.1872792820E+03
[...]
        2        3        5     11.8177     11.8026      144.4845499437    0.2655072223E+03
        2        3        6     11.8177     11.8026      183.1502999533    0.1207405771E+04
        3        1        1     11.8177     11.6782        2.8982423244    0.2312625436E+01
        3        1        2     11.8177     11.6782        5.8354089997    0.4657468216E+02
        3        1        3     11.8177     11.6782       11.3391953061    0.4235498775E+01
        3        1        4     11.8177     11.6782      144.4491049161    0.2623030845E+03
        3        1        5     11.8177     11.6782      144.4845499437    0.1568637846E+02
        3        1        6     11.8177     11.6782      183.1502999533    0.1220559319E+04
        3        2        1     11.8177     11.7617        2.8982423244    0.5579933417E+01
        3        2        2     11.8177     11.7617        5.8354089997    0.4515593066E+02
        3        2        3     11.8177     11.7617       11.3391953061    0.4310776218E+01
        3        2        4     11.8177     11.7617      144.4491049161    0.1687747864E+02
        3        2        5     11.8177     11.7617      144.4845499437    0.2645665891E+03
        3        2        6     11.8177     11.7617      183.1502999533    0.1225305655E+04
        3        3        1     11.8177     11.8026        2.8982423244    0.3470973419E+01
        3        3        2     11.8177     11.8026        5.8354089997    0.4319092075E+02
        3        3        3     11.8177     11.8026       11.3391953061    0.4574241050E+01
        3        3        4     11.8177     11.8026      144.4491049161    0.2667680917E+03
        3        3        5     11.8177     11.8026      144.4845499437    0.2655072223E+03
        3        3        6     11.8177     11.8026      183.1502999533    0.1207405771E+04
     ------------------------------------------------------------------------------

      Electron-phonon vertex |g| (meV)

     iq =     163 coord.:    0.0318396   0.0159198   0.0159198
     ik =       1 coord.:    0.0000000   0.0000000   0.0000000
      ibnd     jbnd     imode   enk[eV]    enk+q[eV]  omega(q)[meV]   |g|[meV]
     ------------------------------------------------------------------------------
        1        1        1     11.8177     11.7506        2.0031017542    0.2233182887E+01
        1        1        2     11.8177     11.7506        4.0342682790    0.5283291219E+02
        1        1        3     11.8177     11.7506        7.8597406487    0.3449621913E+01
        1        1        4     11.8177     11.7506      144.5692448275    0.2637905707E+03
        1        1        5     11.8177     11.7506      144.5863970442    0.1574588917E+02
        1        1        6     11.8177     11.7506      183.3221135757    0.1756892728E+04
        1        2        1     11.8177     11.7908        2.0031017542    0.3656855545E+01
        1        2        2     11.8177     11.7908        4.0342682790    0.5200643077E+02
        1        2        3     11.8177     11.7908        7.8597406487    0.3592342460E+01
        1        2        4     11.8177     11.7908      144.5692448275    0.1632801760E+02
        1        2        5     11.8177     11.7908      144.5863970442    0.2648774379E+03
        1        2        6     11.8177     11.7908      183.3221135757    0.1760207037E+04
        1        3        1     11.8177     11.8105        2.0031017542    0.2604958206E+01
        1        3        2     11.8177     11.8105        4.0342682790    0.5084993327E+02
        1        3        3     11.8177     11.8105        7.8597406487    0.3812078460E+01
        1        3        4     11.8177     11.8105      144.5692448275    0.2661788245E+03
        1        3        5     11.8177     11.8105      144.5863970442    0.2655731916E+03
        1        3        6     11.8177     11.8105      183.3221135757    0.1747735545E+04
        2        1        1     11.8177     11.7506        2.0031017542    0.2233182887E+01
        2        1        2     11.8177     11.7506        4.0342682790    0.5283291219E+02
        2        1        3     11.8177     11.7506        7.8597406487    0.3449621913E+01
        2        1        4     11.8177     11.7506      144.5692448275    0.2637905707E+03
        2        1        5     11.8177     11.7506      144.5863970442    0.1574588917E+02
        2        1        6     11.8177     11.7506      183.3221135757    0.1756892728E+04
        2        2        1     11.8177     11.7908        2.0031017542    0.3656855545E+01
        2        2        2     11.8177     11.7908        4.0342682790    0.5200643077E+02
        2        2        3     11.8177     11.7908        7.8597406487    0.3592342460E+01
        2        2        4     11.8177     11.7908      144.5692448275    0.1632801760E+02
        2        2        5     11.8177     11.7908      144.5863970442    0.2648774379E+03
        2        2        6     11.8177     11.7908      183.3221135757    0.1760207037E+04
        2        3        1     11.8177     11.8105        2.0031017542    0.2604958206E+01
        2        3        2     11.8177     11.8105        4.0342682790    0.5084993327E+02
        2        3        3     11.8177     11.8105        7.8597406487    0.3812078460E+01
        2        3        4     11.8177     11.8105      144.5692448275    0.2661788245E+03
        2        3        5     11.8177     11.8105      144.5863970442    0.2655731916E+03
        2        3        6     11.8177     11.8105      183.3221135757    0.1747735545E+04
        3        1        1     11.8177     11.7506        2.0031017542    0.2233182887E+01
        3        1        2     11.8177     11.7506        4.0342682790    0.5283291219E+02
        3        1        3     11.8177     11.7506        7.8597406487    0.3449621913E+01
        3        1        4     11.8177     11.7506      144.5692448275    0.2637905707E+03
        3        1        5     11.8177     11.7506      144.5863970442    0.1574588917E+02
        3        1        6     11.8177     11.7506      183.3221135757    0.1756892728E+04
        3        2        1     11.8177     11.7908        2.0031017542    0.3656855545E+01
        3        2        2     11.8177     11.7908        4.0342682790    0.5200643077E+02
        3        2        3     11.8177     11.7908        7.8597406487    0.3592342460E+01
        3        2        4     11.8177     11.7908      144.5692448275    0.1632801760E+02
        3        2        5     11.8177     11.7908      144.5863970442    0.2648774379E+03
        3        2        6     11.8177     11.7908      183.3221135757    0.1760207037E+04
        3        3        1     11.8177     11.8105        2.0031017542    0.2604958206E+01
        3        3        2     11.8177     11.8105        4.0342682790    0.5084993327E+02
        3        3        3     11.8177     11.8105        7.8597406487    0.3812078460E+01
        3        3        4     11.8177     11.8105      144.5692448275    0.2661788245E+03
        3        3        5     11.8177     11.8105      144.5863970442    0.2655731916E+03
        3        3        6     11.8177     11.8105      183.3221135757    0.1747735545E+04
     ------------------------------------------------------------------------------

      Electron-phonon vertex |g| (meV)

     iq =     164 coord.:    0.0176887   0.0088443   0.0088443
     ik =       1 coord.:    0.0000000   0.0000000   0.0000000
      ibnd     jbnd     imode   enk[eV]    enk+q[eV]  omega(q)[meV]   |g|[meV]
     ------------------------------------------------------------------------------
        1        1        1     11.8177     11.7970        1.1116396563    0.2524070460E+01
        1        1        2     11.8177     11.7970        2.2392586768    0.6818415768E+02
        1        1        3     11.8177     11.7970        4.3698943203    0.2535974776E+01
        1        1        4     11.8177     11.7970      144.6460443120    0.1875312490E+03
        1        1        5     11.8177     11.7970      144.6513704078    0.1875312490E+03
        1        1        6     11.8177     11.7970      183.4315197893    0.3155298850E+04
        1        2        1     11.8177     11.8094        1.1116396563    0.2765972944E+01
        1        2        2     11.8177     11.8094        2.2392586768    0.6781740492E+02
        1        2        3     11.8177     11.8094        4.3698943203    0.2680331962E+01
        1        2        4     11.8177     11.8094      144.6460443120    0.1877759997E+03
        1        2        5     11.8177     11.8094      144.6513704078    0.1877759997E+03
        1        2        6     11.8177     11.8094      183.4315197893    0.3157150411E+04
        1        3        1     11.8177     11.8155        1.1116396563    0.2520441840E+01
        1        3        2     11.8177     11.8155        2.2392586768    0.6730988636E+02
        1        3        3     11.8177     11.8155        4.3698943203    0.2844252994E+01
        1        3        4     11.8177     11.8155      144.6460443120    0.2657085110E+03
        1        3        5     11.8177     11.8155      144.6513704078    0.2657085110E+03
        1        3        6     11.8177     11.8155      183.4315197893    0.3150193509E+04
        2        1        1     11.8177     11.7970        1.1116396563    0.2524070460E+01
        2        1        2     11.8177     11.7970        2.2392586768    0.6818415768E+02
        2        1        3     11.8177     11.7970        4.3698943203    0.2535974776E+01
        2        1        4     11.8177     11.7970      144.6460443120    0.1875312490E+03
        2        1        5     11.8177     11.7970      144.6513704078    0.1875312490E+03
        2        1        6     11.8177     11.7970      183.4315197893    0.3155298850E+04
        2        2        1     11.8177     11.8094        1.1116396563    0.2765972944E+01
        2        2        2     11.8177     11.8094        2.2392586768    0.6781740492E+02
        2        2        3     11.8177     11.8094        4.3698943203    0.2680331962E+01
        2        2        4     11.8177     11.8094      144.6460443120    0.1877759997E+03
        2        2        5     11.8177     11.8094      144.6513704078    0.1877759997E+03
        2        2        6     11.8177     11.8094      183.4315197893    0.3157150411E+04
        2        3        1     11.8177     11.8155        1.1116396563    0.2520441840E+01
        2        3        2     11.8177     11.8155        2.2392586768    0.6730988636E+02
        2        3        3     11.8177     11.8155        4.3698943203    0.2844252994E+01
        2        3        4     11.8177     11.8155      144.6460443120    0.2657085110E+03
        2        3        5     11.8177     11.8155      144.6513704078    0.2657085110E+03
        2        3        6     11.8177     11.8155      183.4315197893    0.3150193509E+04
        3        1        1     11.8177     11.7970        1.1116396563    0.2524070460E+01
        3        1        2     11.8177     11.7970        2.2392586768    0.6818415768E+02
        3        1        3     11.8177     11.7970        4.3698943203    0.2535974776E+01
        3        1        4     11.8177     11.7970      144.6460443120    0.1875312490E+03
        3        1        5     11.8177     11.7970      144.6513704078    0.1875312490E+03
        3        1        6     11.8177     11.7970      183.4315197893    0.3155298850E+04
        3        2        1     11.8177     11.8094        1.1116396563    0.2765972944E+01
        3        2        2     11.8177     11.8094        2.2392586768    0.6781740492E+02
        3        2        3     11.8177     11.8094        4.3698943203    0.2680331962E+01
        3        2        4     11.8177     11.8094      144.6460443120    0.1877759997E+03
        3        2        5     11.8177     11.8094      144.6513704078    0.1877759997E+03
        3        2        6     11.8177     11.8094      183.4315197893    0.3157150411E+04
        3        3        1     11.8177     11.8155        1.1116396563    0.2520441840E+01
        3        3        2     11.8177     11.8155        2.2392586768    0.6730988636E+02
        3        3        3     11.8177     11.8155        4.3698943203    0.2844252994E+01
        3        3        4     11.8177     11.8155      144.6460443120    0.2657085110E+03
        3        3        5     11.8177     11.8155      144.6513704078    0.2657085110E+03
        3        3        6     11.8177     11.8155      183.4315197893    0.3150193509E+04
     ------------------------------------------------------------------------------

      Electron-phonon vertex |g| (meV)

     iq =     165 coord.:    0.0035377   0.0017689   0.0017689
     ik =       1 coord.:    0.0000000   0.0000000   0.0000000
      ibnd     jbnd     imode   enk[eV]    enk+q[eV]  omega(q)[meV]   |g|[meV]
     ------------------------------------------------------------------------------
        1        1        1     11.8177     11.8169        0.2222254411    0.5188187655E+01
        1        1        2     11.8177     11.8169        0.4476796551    0.1498691779E+03
        1        1        3     11.8177     11.8169        0.8742680165    0.1128875645E+01
        1        1        4     11.8177     11.8169      144.6790411046    0.1878192171E+03
        1        1        5     11.8177     11.8169      144.6792547008    0.1878192171E+03
        1        1        6     11.8177     11.8169      183.4784248808    0.1576116974E+05
        1        2        1     11.8177     11.8174        0.2222254411    0.5183344869E+01
        1        2        2     11.8177     11.8174        0.4476796551    0.1497562705E+03
        1        2        3     11.8177     11.8174        0.8742680165    0.1200622700E+01
        1        2        4     11.8177     11.8174      144.6790411046    0.1878290100E+03
        1        2        5     11.8177     11.8174      144.6792547008    0.1878290100E+03
        1        2        6     11.8177     11.8174      183.4784248808    0.1576154095E+05
        1        3        1     11.8177     11.8176        0.2222254411    0.5175229862E+01
        1        3        2     11.8177     11.8176        0.4476796551    0.1496306663E+03
        1        3        3     11.8177     11.8176        0.8742680165    0.1272545400E+01
        1        3        4     11.8177     11.8176      144.6790411046    0.2656364618E+03
        1        3        5     11.8177     11.8176      144.6792547008    0.2656364618E+03
        1        3        6     11.8177     11.8176      183.4784248808    0.1576014713E+05
        2        1        1     11.8177     11.8169        0.2222254411    0.5188187655E+01
        2        1        2     11.8177     11.8169        0.4476796551    0.1498691779E+03
        2        1        3     11.8177     11.8169        0.8742680165    0.1128875645E+01
        2        1        4     11.8177     11.8169      144.6790411046    0.1878192171E+03
        2        1        5     11.8177     11.8169      144.6792547008    0.1878192171E+03
        2        1        6     11.8177     11.8169      183.4784248808    0.1576116974E+05
        2        2        1     11.8177     11.8174        0.2222254411    0.5183344869E+01
        2        2        2     11.8177     11.8174        0.4476796551    0.1497562705E+03
        2        2        3     11.8177     11.8174        0.8742680165    0.1200622700E+01
        2        2        4     11.8177     11.8174      144.6790411046    0.1878290100E+03
        2        2        5     11.8177     11.8174      144.6792547008    0.1878290100E+03
        2        2        6     11.8177     11.8174      183.4784248808    0.1576154095E+05
        2        3        1     11.8177     11.8176        0.2222254411    0.5175229862E+01
        2        3        2     11.8177     11.8176        0.4476796551    0.1496306663E+03
        2        3        3     11.8177     11.8176        0.8742680165    0.1272545400E+01
        2        3        4     11.8177     11.8176      144.6790411046    0.2656364618E+03
        2        3        5     11.8177     11.8176      144.6792547008    0.2656364618E+03
        2        3        6     11.8177     11.8176      183.4784248808    0.1576014713E+05
        3        1        1     11.8177     11.8169        0.2222254411    0.5188187655E+01
        3        1        2     11.8177     11.8169        0.4476796551    0.1498691779E+03
        3        1        3     11.8177     11.8169        0.8742680165    0.1128875645E+01
        3        1        4     11.8177     11.8169      144.6790411046    0.1878192171E+03
        3        1        5     11.8177     11.8169      144.6792547008    0.1878192171E+03
        3        1        6     11.8177     11.8169      183.4784248808    0.1576116974E+05
        3        2        1     11.8177     11.8174        0.2222254411    0.5183344869E+01
        3        2        2     11.8177     11.8174        0.4476796551    0.1497562705E+03
        3        2        3     11.8177     11.8174        0.8742680165    0.1200622700E+01
        3        2        4     11.8177     11.8174      144.6790411046    0.1878290100E+03
        3        2        5     11.8177     11.8174      144.6792547008    0.1878290100E+03
        3        2        6     11.8177     11.8174      183.4784248808    0.1576154095E+05
        3        3        1     11.8177     11.8176        0.2222254411    0.5175229862E+01
        3        3        2     11.8177     11.8176        0.4476796551    0.1496306663E+03
        3        3        3     11.8177     11.8176        0.8742680165    0.1272545400E+01
        3        3        4     11.8177     11.8176      144.6790411046    0.2656364618E+03
        3        3        5     11.8177     11.8176      144.6792547008    0.2656364618E+03
        3        3        6     11.8177     11.8176      183.4784248808    0.1576014713E+05
     ------------------------------------------------------------------------------

     ===================================================================
     Memory usage:  VmHWM =        30Mb
                   VmPeak =       357Mb
     ===================================================================


     Unfolding on the coarse grid
     elphon_wrap  :      1.75s CPU      1.78s WALL (       1 calls)

     INITIALIZATION: 

     set_drhoc    :      0.72s CPU      0.72s WALL (       9 calls)
     init_vloc    :      0.00s CPU      0.00s WALL (       1 calls)
     init_us_1    :      0.02s CPU      0.02s WALL (       2 calls)



     Electron-Phonon interpolation
     ephwann      :      0.32s CPU      0.32s WALL (       1 calls)
     ep-interp    :      0.26s CPU      0.26s WALL (     165 calls)

     Ham: step 1  :      0.00s CPU      0.00s WALL (       1 calls)
     Ham: step 2  :      0.00s CPU      0.00s WALL (       1 calls)
     ep: step 1   :      0.00s CPU      0.00s WALL (      48 calls)
     ep: step 2   :      0.26s CPU      0.27s WALL (       1 calls)
     DynW2B       :      0.18s CPU      0.18s WALL (     165 calls)
     HamW2B       :      0.00s CPU      0.00s WALL (     498 calls)
     ephW2Bp      :      0.03s CPU      0.03s WALL (     165 calls)
     ephW2B       :      0.00s CPU      0.00s WALL (     165 calls)
     vmewan2bloch :      0.01s CPU      0.01s WALL (     330 calls)
     vmewan2bloch :      0.01s CPU      0.01s WALL (     330 calls)


     Total program execution
     EPW          :      2.73s CPU      2.77s WALL

     ===============================================================================
     The functionality-dependent EPW.bib file was created with suggested citations. 
     Please consider citing the papers listed in EPW.bib.                           
     ===============================================================================
                                                                                    
