
     Program PWSCF v.5.1.2 (svn rev. 11453) starts on 23Mar2015 at 13:30:45 

     This program is part of the open-source Quantum ESPRESSO suite
     for quantum simulation of materials; please cite
         "P. Giannozzi et al., J. Phys.:Condens. Matter 21 395502 (2009);
          URL http://www.quantum-espresso.org", 
     in publications or presentations arising from this work. More details at
     http://www.quantum-espresso.org/quote

     Parallel version (MPI), running on     1 processors
     Waiting for input...
     Reading input from standard input
     Message from routine read_cards :
     DEPRECATED: no units specified in ATOMIC_POSITIONS card
     Message from routine read_cards :
     ATOMIC_POSITIONS: units set to alat

     Current dimensions of program PWSCF are:
     Max number of different atomic species (ntypx) = 10
     Max number of k-points (npk) =  40000
     Max angular momentum in pseudopotentials (lmaxx) =  3

     Subspace diagonalization in iterative solution of the eigenvalue problem:
     a serial algorithm will be used

 
     G-vector sticks info
     --------------------
     sticks:   dense  smooth     PW     G-vecs:    dense   smooth      PW
     Sum         235     235     85                 2277     2277     531
 

     Title: 
     EELS                                                                       


     bravais-lattice index     =            2
     lattice parameter (alat)  =      10.2630  a.u.
     unit-cell volume          =     270.2521 (a.u.)^3
     number of atoms/cell      =            2
     number of atomic types    =            1
     number of electrons       =         8.00
     number of Kohn-Sham states=            4
     kinetic-energy cutoff     =      16.0000  Ry
     charge density cutoff     =      64.0000  Ry
     convergence threshold     =      1.0E-10
     mixing beta               =       0.7000
     number of iterations used =            8  plain     mixing
     Exchange-correlation      =  SLA  PW   PBE  PBE ( 1  4  3  4 0 0)

     celldm(1)=  10.263048  celldm(2)=   0.000000  celldm(3)=   0.000000
     celldm(4)=   0.000000  celldm(5)=   0.000000  celldm(6)=   0.000000

     crystal axes: (cart. coord. in units of alat)
               a(1) = (  -0.500000   0.000000   0.500000 )  
               a(2) = (   0.000000   0.500000   0.500000 )  
               a(3) = (  -0.500000   0.500000   0.000000 )  

     reciprocal axes: (cart. coord. in units 2 pi/alat)
               b(1) = ( -1.000000 -1.000000  1.000000 )  
               b(2) = (  1.000000  1.000000  1.000000 )  
               b(3) = ( -1.000000  1.000000 -1.000000 )  


     PseudoPot. # 1 for Si read from file:
     ../pseudo/Si.pbe-n-van.UPF
     MD5 check sum: 8a97496598b7338af554a5de8957bfee
     Pseudo is Ultrasoft + core correction, Zval =  4.0
     Generated by new atomic code, or converted to UPF format
     Using radial grid of  899 points,  6 beta functions with: 
                l(1) =   0
                l(2) =   0
                l(3) =   1
                l(4) =   1
                l(5) =   2
                l(6) =   2
     Q(r) pseudized with  8 coefficients,  rinner =    0.900   0.900   0.900
                                                       0.900   0.900

     atomic species   valence    mass     pseudopotential
        Si             4.00    28.08000     Si( 1.00)

     48 Sym. Ops., with inversion, found (24 have fractional translation)



   Cartesian axes

     site n.     atom                  positions (alat units)
         1           Si  tau(   1) = (   0.0000000   0.0000000   0.0000000  )
         2           Si  tau(   2) = (   0.2500000   0.2500000   0.2500000  )

     number of k points=     6
                       cart. coord. in units 2pi/alat
        k(    1) = (  -0.1666667   0.1666667   0.1666667), wk =   0.1481481
        k(    2) = (   0.5000000  -0.5000000   0.8333333), wk =   0.4444444
        k(    3) = (   0.1666667  -0.1666667   0.5000000), wk =   0.4444444
        k(    4) = (  -0.1666667  -1.1666667   0.1666667), wk =   0.4444444
        k(    5) = (  -0.5000000  -0.8333333  -0.1666667), wk =   0.4444444
        k(    6) = (   0.5000000  -0.5000000  -0.5000000), wk =   0.0740741

     Dense  grid:     2277 G-vectors     FFT dimensions: (  20,  20,  20)

     Largest allocated arrays     est. size (Mb)     dimensions
        Kohn-Sham Wavefunctions         0.02 Mb     (     295,    4)
        NL pseudopotentials             0.16 Mb     (     295,   36)
        Each V/rho on FFT grid          0.12 Mb     (    8000)
        Each G-vector array             0.02 Mb     (    2277)
        G-vector shells                 0.00 Mb     (      58)
     Largest temporary arrays     est. size (Mb)     dimensions
        Auxiliary wavefunctions         0.07 Mb     (     295,   16)
        Each subspace H/S matrix        0.00 Mb     (      16,   16)
        Each <psi_i|beta_j> matrix      0.00 Mb     (      36,    4)
        Arrays for rho mixing           0.98 Mb     (    8000,    8)

     Check: negative/imaginary core charge=   -0.000006    0.000000

     Initial potential from superposition of free atoms

     starting charge    7.99866, renormalised to    8.00000
     Starting wfc are    8 randomized atomic wfcs

     total cpu time spent up to now is        0.9 secs

     per-process dynamical memory:     6.2 Mb

     Self-consistent Calculation

     iteration #  1     ecut=    16.00 Ry     beta=0.70
     Davidson diagonalization with overlap
     ethr =  1.00E-02,  avg # of iterations =  2.0

     Threshold (ethr) on eigenvalues was too large:
     Diagonalizing with lowered threshold

     Davidson diagonalization with overlap
     ethr =  7.35E-04,  avg # of iterations =  1.0

     total cpu time spent up to now is        1.0 secs

     total energy              =     -19.19907460 Ry
     Harris-Foulkes estimate   =     -19.21306763 Ry
     estimated scf accuracy    <       0.05875946 Ry

     iteration #  2     ecut=    16.00 Ry     beta=0.70
     Davidson diagonalization with overlap
     ethr =  7.34E-04,  avg # of iterations =  1.0

     total cpu time spent up to now is        1.0 secs

     total energy              =     -19.20087828 Ry
     Harris-Foulkes estimate   =     -19.20114096 Ry
     estimated scf accuracy    <       0.00250175 Ry

     iteration #  3     ecut=    16.00 Ry     beta=0.70
     Davidson diagonalization with overlap
     ethr =  3.13E-05,  avg # of iterations =  2.0

     total cpu time spent up to now is        1.0 secs

     total energy              =     -19.20118288 Ry
     Harris-Foulkes estimate   =     -19.20120596 Ry
     estimated scf accuracy    <       0.00005807 Ry

     iteration #  4     ecut=    16.00 Ry     beta=0.70
     Davidson diagonalization with overlap
     ethr =  7.26E-07,  avg # of iterations =  2.2

     total cpu time spent up to now is        1.1 secs

     total energy              =     -19.20120172 Ry
     Harris-Foulkes estimate   =     -19.20120465 Ry
     estimated scf accuracy    <       0.00000677 Ry

     iteration #  5     ecut=    16.00 Ry     beta=0.70
     Davidson diagonalization with overlap
     ethr =  8.46E-08,  avg # of iterations =  2.0

     total cpu time spent up to now is        1.1 secs

     total energy              =     -19.20120288 Ry
     Harris-Foulkes estimate   =     -19.20120294 Ry
     estimated scf accuracy    <       0.00000013 Ry

     iteration #  6     ecut=    16.00 Ry     beta=0.70
     Davidson diagonalization with overlap
     ethr =  1.59E-09,  avg # of iterations =  2.5

     total cpu time spent up to now is        1.2 secs

     total energy              =     -19.20120293 Ry
     Harris-Foulkes estimate   =     -19.20120293 Ry
     estimated scf accuracy    <          2.3E-09 Ry

     iteration #  7     ecut=    16.00 Ry     beta=0.70
     Davidson diagonalization with overlap
     ethr =  2.93E-11,  avg # of iterations =  3.0

     total cpu time spent up to now is        1.2 secs

     End of self-consistent calculation

          k =-0.1667 0.1667 0.1667 (   295 PWs)   bands (ev):

    -5.3991   3.8108   5.7410   5.7410

          k = 0.5000-0.5000 0.8333 (   295 PWs)   bands (ev):

    -3.6607   0.1904   3.1553   4.8942

          k = 0.1667-0.1667 0.5000 (   294 PWs)   bands (ev):

    -4.4637   1.7548   4.2042   4.4502

          k =-0.1667-1.1667 0.1667 (   290 PWs)   bands (ev):

    -2.7005  -0.3776   2.5791   3.6446

          k =-0.5000-0.8333-0.1667 (   286 PWs)   bands (ev):

    -2.4974  -0.6508   2.2019   3.4441

          k = 0.5000-0.5000-0.5000 (   272 PWs)   bands (ev):

    -3.4368  -0.7612   4.9922   4.9922

     highest occupied level (ev):     5.7410

!    total energy              =     -19.20120293 Ry
     Harris-Foulkes estimate   =     -19.20120293 Ry
     estimated scf accuracy    <          1.3E-11 Ry

     The total energy is the sum of the following terms:

     one-electron contribution =       5.10511921 Ry
     hartree contribution      =       1.13247055 Ry
     xc contribution           =      -8.64285278 Ry
     ewald contribution        =     -16.79593991 Ry

     convergence has been achieved in   7 iterations

     Writing output data file Si.save
 
     init_run     :      0.33s CPU      0.44s WALL (       1 calls)
     electrons    :      0.34s CPU      0.35s WALL (       1 calls)

     Called by init_run:
     wfcinit      :      0.01s CPU      0.10s WALL (       1 calls)
     potinit      :      0.01s CPU      0.01s WALL (       1 calls)

     Called by electrons:
     c_bands      :      0.21s CPU      0.22s WALL (       8 calls)
     sum_band     :      0.06s CPU      0.07s WALL (       8 calls)
     v_of_rho     :      0.04s CPU      0.04s WALL (       8 calls)
     newd         :      0.03s CPU      0.03s WALL (       8 calls)
     mix_rho      :      0.00s CPU      0.00s WALL (       8 calls)

     Called by c_bands:
     init_us_2    :      0.01s CPU      0.01s WALL (     102 calls)
     cegterg      :      0.15s CPU      0.15s WALL (      48 calls)

     Called by sum_band:
     sum_band:bec :      0.00s CPU      0.00s WALL (      48 calls)
     addusdens    :      0.03s CPU      0.03s WALL (       8 calls)

     Called by *egterg:
     h_psi        :      0.13s CPU      0.14s WALL (     148 calls)
     s_psi        :      0.01s CPU      0.01s WALL (     148 calls)
     g_psi        :      0.00s CPU      0.00s WALL (      94 calls)
     cdiaghg      :      0.01s CPU      0.09s WALL (     136 calls)

     Called by h_psi:
     add_vuspsi   :      0.01s CPU      0.01s WALL (     148 calls)

     General routines
     calbec       :      0.01s CPU      0.01s WALL (     196 calls)
     fft          :      0.02s CPU      0.01s WALL (     106 calls)
     fftw         :      0.12s CPU      0.13s WALL (    1344 calls)
     davcio       :      0.00s CPU      0.00s WALL (       6 calls)
 
     Parallel routines
     fft_scatter  :      0.01s CPU      0.01s WALL (    1450 calls)
 
     PWSCF        :     0.79s CPU         1.30s WALL

 
   This run was terminated on:  13:30:47  23Mar2015            

=------------------------------------------------------------------------------=
   JOB DONE.
=------------------------------------------------------------------------------=
