
     Program PWSCF v.6.5 starts on 24Apr2020 at 16:30:48 

     This program is part of the open-source Quantum ESPRESSO suite
     for quantum simulation of materials; please cite
         "P. Giannozzi et al., J. Phys.:Condens. Matter 21 395502 (2009);
         "P. Giannozzi et al., J. Phys.:Condens. Matter 29 465901 (2017);
          URL http://www.quantum-espresso.org", 
     in publications or presentations arising from this work. More details at
     http://www.quantum-espresso.org/quote

     Parallel version (MPI), running on     1 processors

     MPI processes distributed on     1 nodes
     Fft bands division:     nmany     =       1
     Reading input from lda+U_background_two_channels.in

     Current dimensions of program PWSCF are:
     Max number of different atomic species (ntypx) = 10
     Max number of k-points (npk) =  40000
     Max angular momentum in pseudopotentials (lmaxx) =  3
     Message from routine volume:
     axis vectors are left-handed
               file O.pbe-rrkjus.UPF: wavefunction(s)  2S renormalized

     Subspace diagonalization in iterative solution of the eigenvalue problem:
     a serial algorithm will be used

     Message from routine setup:
     using ibrav=0 with symmetry is DISCOURAGED, use correct ibrav instead
 
     G-vector sticks info
     --------------------
     sticks:   dense  smooth     PW     G-vecs:    dense   smooth      PW
     Sum        1415     705    219                26597     9309    1545
 


     bravais-lattice index     =            0
     lattice parameter (alat)  =       8.1900  a.u.
     unit-cell volume          =     274.6766 (a.u.)^3
     number of atoms/cell      =            4
     number of atomic types    =            3
     number of electrons       =        44.00
     number of Kohn-Sham states=           26
     kinetic-energy cutoff     =      40.0000  Ry
     charge density cutoff     =     320.0000  Ry
     convergence threshold     =      1.0E-10
     mixing beta               =       0.3000
     number of iterations used =            8  plain     mixing
     Exchange-correlation= SLA PW PBE PBE
                           (   1   4   3   4   0   0   0)

     celldm(1)=   8.190000  celldm(2)=   0.000000  celldm(3)=   0.000000
     celldm(4)=   0.000000  celldm(5)=   0.000000  celldm(6)=   0.000000

     crystal axes: (cart. coord. in units of alat)
               a(1) = (   0.500000   0.500000   1.000000 )  
               a(2) = (   0.500000   1.000000   0.500000 )  
               a(3) = (   1.000000   0.500000   0.500000 )  

     reciprocal axes: (cart. coord. in units 2 pi/alat)
               b(1) = ( -0.500000 -0.500000  1.500000 )  
               b(2) = ( -0.500000  1.500000 -0.500000 )  
               b(3) = (  1.500000 -0.500000 -0.500000 )  


     PseudoPot. # 1 for Fe read from file:
     /scratch/timrov/WORK_Hubbard_UV/PORTING/q-e_v7/q-e/test-suite/..//pseudo/Fe.pbe-spn-rrkjus_psl.0.2.1.UPF
     MD5 check sum: f9af58635850a145d9bd408d58feeb93
     Pseudo is Ultrasoft + core correction, Zval = 16.0
     Generated using "atomic" code by A. Dal Corso v.5.0.2 svn rev. 9415
     Using radial grid of 1191 points,  6 beta functions with: 
                l(1) =   0
                l(2) =   0
                l(3) =   1
                l(4) =   1
                l(5) =   2
                l(6) =   2
     Q(r) pseudized with 0 coefficients 


     PseudoPot. # 2 for Fe read from file:
     /scratch/timrov/WORK_Hubbard_UV/PORTING/q-e_v7/q-e/test-suite/..//pseudo/Fe.pbe-spn-rrkjus_psl.0.2.1.UPF
     MD5 check sum: f9af58635850a145d9bd408d58feeb93
     Pseudo is Ultrasoft + core correction, Zval = 16.0
     Generated using "atomic" code by A. Dal Corso v.5.0.2 svn rev. 9415
     Using radial grid of 1191 points,  6 beta functions with: 
                l(1) =   0
                l(2) =   0
                l(3) =   1
                l(4) =   1
                l(5) =   2
                l(6) =   2
     Q(r) pseudized with 0 coefficients 


     PseudoPot. # 3 for O  read from file:
     /scratch/timrov/WORK_Hubbard_UV/PORTING/q-e_v7/q-e/test-suite/..//pseudo/O.pbe-rrkjus.UPF
     MD5 check sum: fadcf19ee70a498d3030e2e79cf929a4
     Pseudo is Ultrasoft, Zval =  6.0
     Generated by new atomic code, or converted to UPF format
     Using radial grid of 1269 points,  4 beta functions with: 
                l(1) =   0
                l(2) =   0
                l(3) =   1
                l(4) =   1
     Q(r) pseudized with 0 coefficients 


     atomic species   valence    mass     pseudopotential
        Fe1           16.00     1.00000     Fe( 1.00)
        Fe2           16.00     1.00000     Fe( 1.00)
        O              6.00     1.00000     O ( 1.00)

     Starting magnetic structure 
     atomic species   magnetization
        Fe1          0.000
        Fe2          0.500
        O           -0.500


     Simplified LDA+U calculation (l_max = 2) with parameters (eV):
     atomic species    L          U    alpha       J0     beta
        Fe1            2     5.0000   0.0000   0.0000   0.0000
        Fe2            2     5.0000   0.0000   0.0000   0.0000



     12 Sym. Ops., with inversion, found



   Cartesian axes

     site n.     atom                  positions (alat units)
         1           Fe1 tau(   1) = (   0.0000000   0.0000000   0.0000000  )
         2           Fe2 tau(   2) = (   1.0000000   1.0000000   1.0000000  )
         3           O   tau(   3) = (   0.5000000   0.5000000   0.5000000  )
         4           O   tau(   4) = (   1.5000000   1.5000000   1.5000000  )

     number of k points=     4  Gaussian smearing, width (Ry)=  0.0100
                       cart. coord. in units 2pi/alat
        k(    1) = (   0.0000000   0.0000000   0.0000000), wk =   0.1250000
        k(    2) = (  -0.7500000   0.2500000   0.2500000), wk =   0.3750000
        k(    3) = (  -0.5000000  -0.5000000   0.5000000), wk =   0.3750000
        k(    4) = (  -0.2500000  -0.2500000  -0.2500000), wk =   0.1250000

     Dense  grid:    26597 G-vectors     FFT dimensions: (  60,  60,  60)

     Smooth grid:     9309 G-vectors     FFT dimensions: (  45,  45,  45)

     Estimated max dynamical RAM per process >     138.57 MB

     Check: negative core charge=   -0.000219
     Generating pointlists ...
     new r_m :   0.2063 (alat units)  1.6892 (a.u.) for type    1
     new r_m :   0.2063 (alat units)  1.6892 (a.u.) for type    2
     new r_m :   0.2063 (alat units)  1.6892 (a.u.) for type    3

     Initial potential from superposition of free atoms

     starting charge   43.99912, renormalised to   44.00000
     Number of +U iterations with fixed ns =  0
     Starting occupations:
 --- enter write_ns ---
 LDA+U parameters:
U( 1)     =  5.00000000
U_back( 1)     =  2.00000000
U( 2)     =  5.00000000
U_back( 2)     =  2.00000000
atom    1   Tr[ns(na)] (up, down, total) =   3.00000  3.00000  6.00000
   spin  1
    eigenvalues: 
  0.600  0.600  0.600  0.600  0.600
    eigenvectors:
  1.000  0.000  0.000  0.000  0.000
  0.000  1.000  0.000  0.000  0.000
  0.000  0.000  1.000  0.000  0.000
  0.000  0.000  0.000  1.000  0.000
  0.000  0.000  0.000  0.000  1.000
    occupations:
  0.600  0.000  0.000  0.000  0.000
  0.000  0.600  0.000  0.000  0.000
  0.000  0.000  0.600  0.000  0.000
  0.000  0.000  0.000  0.600  0.000
  0.000  0.000  0.000  0.000  0.600
   spin  2
    eigenvalues: 
  0.600  0.600  0.600  0.600  0.600
    eigenvectors:
  1.000  0.000  0.000  0.000  0.000
  0.000  1.000  0.000  0.000  0.000
  0.000  0.000  1.000  0.000  0.000
  0.000  0.000  0.000  1.000  0.000
  0.000  0.000  0.000  0.000  1.000
    occupations:
  0.600  0.000  0.000  0.000  0.000
  0.000  0.600  0.000  0.000  0.000
  0.000  0.000  0.600  0.000  0.000
  0.000  0.000  0.000  0.600  0.000
  0.000  0.000  0.000  0.000  0.600
atomic mag. moment =   0.00000
atom    1   Tr[ns(na)] (up, down, total) =   1.00000  1.00000  2.00000
   spin  1
    eigenvalues: 
  0.033  0.033  0.033  0.900
    eigenvectors:
  0.000  0.000  0.000  1.000
  1.000  0.000  0.000  0.000
  0.000  1.000  0.000  0.000
  0.000  0.000  1.000  0.000
    occupations:
  0.900  0.000  0.000  0.000
  0.000  0.033  0.000  0.000
  0.000  0.000  0.033  0.000
  0.000  0.000  0.000  0.033
   spin  2
    eigenvalues: 
  0.033  0.033  0.033  0.900
    eigenvectors:
  0.000  0.000  0.000  1.000
  1.000  0.000  0.000  0.000
  0.000  1.000  0.000  0.000
  0.000  0.000  1.000  0.000
    occupations:
  0.900  0.000  0.000  0.000
  0.000  0.033  0.000  0.000
  0.000  0.000  0.033  0.000
  0.000  0.000  0.000  0.033
atomic mag. moment =   0.00000
atom    2   Tr[ns(na)] (up, down, total) =   5.00000  1.00000  6.00000
   spin  1
    eigenvalues: 
  1.000  1.000  1.000  1.000  1.000
    eigenvectors:
  1.000  0.000  0.000  0.000  0.000
  0.000  1.000  0.000  0.000  0.000
  0.000  0.000  1.000  0.000  0.000
  0.000  0.000  0.000  1.000  0.000
  0.000  0.000  0.000  0.000  1.000
    occupations:
  1.000  0.000  0.000  0.000  0.000
  0.000  1.000  0.000  0.000  0.000
  0.000  0.000  1.000  0.000  0.000
  0.000  0.000  0.000  1.000  0.000
  0.000  0.000  0.000  0.000  1.000
   spin  2
    eigenvalues: 
  0.200  0.200  0.200  0.200  0.200
    eigenvectors:
  1.000  0.000  0.000  0.000  0.000
  0.000  1.000  0.000  0.000  0.000
  0.000  0.000  1.000  0.000  0.000
  0.000  0.000  0.000  1.000  0.000
  0.000  0.000  0.000  0.000  1.000
    occupations:
  0.200  0.000  0.000  0.000  0.000
  0.000  0.200  0.000  0.000  0.000
  0.000  0.000  0.200  0.000  0.000
  0.000  0.000  0.000  0.200  0.000
  0.000  0.000  0.000  0.000  0.200
atomic mag. moment =   4.00000
atom    2   Tr[ns(na)] (up, down, total) =   1.00000  1.00000  2.00000
   spin  1
    eigenvalues: 
  0.033  0.033  0.033  0.900
    eigenvectors:
  0.000  0.000  0.000  1.000
  1.000  0.000  0.000  0.000
  0.000  1.000  0.000  0.000
  0.000  0.000  1.000  0.000
    occupations:
  0.900  0.000  0.000  0.000
  0.000  0.033  0.000  0.000
  0.000  0.000  0.033  0.000
  0.000  0.000  0.000  0.033
   spin  2
    eigenvalues: 
  0.033  0.033  0.033  0.900
    eigenvectors:
  0.000  0.000  0.000  1.000
  1.000  0.000  0.000  0.000
  0.000  1.000  0.000  0.000
  0.000  0.000  1.000  0.000
    occupations:
  0.900  0.000  0.000  0.000
  0.000  0.033  0.000  0.000
  0.000  0.000  0.033  0.000
  0.000  0.000  0.000  0.033
atomic mag. moment =   0.00000
N of occupied +U levels =   16.000000
 --- exit write_ns ---
 Atomic wfc used for LDA+U Projector are NOT orthogonalized
     Starting wfcs are   34 randomized atomic wfcs

     total cpu time spent up to now is        2.6 secs

     Self-consistent Calculation

     iteration #  1     ecut=    40.00 Ry     beta= 0.30
     Davidson diagonalization with overlap
     ethr =  1.00E-02,  avg # of iterations =  2.0
 --- enter write_ns ---
 LDA+U parameters:
U( 1)     =  5.00000000
U_back( 1)     =  2.00000000
U( 2)     =  5.00000000
U_back( 2)     =  2.00000000
atom    1   Tr[ns(na)] (up, down, total) =   4.03059  4.17636  8.20695
   spin  1
    eigenvalues: 
  0.550  0.550  0.975  0.978  0.978
    eigenvectors:
  0.016  0.984  0.000  0.000  0.000
  0.000  0.000  0.333  0.121  0.545
  0.000  0.000  0.333  0.216  0.450
  0.984  0.016  0.000  0.000  0.000
  0.000  0.000  0.333  0.662  0.005
    occupations:
  0.550  0.003  0.003  0.000  0.006
  0.003  0.977 -0.001  0.006  0.001
  0.003 -0.001  0.977 -0.006  0.001
  0.000  0.006 -0.006  0.550 -0.000
  0.006  0.001  0.001 -0.000  0.977
   spin  2
    eigenvalues: 
  0.602  0.602  0.988  0.992  0.992
    eigenvectors:
  0.106  0.891  0.000  0.003  0.000
  0.001  0.001  0.333  0.185  0.480
  0.002  0.000  0.333  0.148  0.517
  0.891  0.106  0.000  0.000  0.003
  0.000  0.002  0.333  0.664  0.001
    occupations:
  0.603  0.009  0.009  0.000  0.017
  0.009  0.990 -0.001  0.015  0.001
  0.009 -0.001  0.990 -0.015  0.001
  0.000  0.015 -0.015  0.603 -0.000
  0.017  0.001  0.001 -0.000  0.990
atomic mag. moment =  -0.14577
atom    1   Tr[ns(na)] (up, down, total) =   4.02668  4.02664  8.05332
   spin  1
    eigenvalues: 
  0.999  1.009  1.009  1.009
    eigenvectors:
  1.000  0.000  0.000  0.000
  0.000  0.518  0.148  0.333
  0.000  0.481  0.186  0.333
  0.000  0.001  0.666  0.333
    occupations:
  0.999 -0.000  0.000  0.000
 -0.000  1.009 -0.000 -0.000
  0.000 -0.000  1.009  0.000
  0.000 -0.000  0.000  1.009
   spin  2
    eigenvalues: 
  0.999  1.009  1.009  1.009
    eigenvectors:
  1.000  0.000  0.000  0.000
  0.000  0.530  0.136  0.333
  0.000  0.468  0.199  0.333
  0.000  0.002  0.665  0.333
    occupations:
  0.999 -0.000  0.000  0.000
 -0.000  1.009 -0.000 -0.000
  0.000 -0.000  1.009  0.000
  0.000 -0.000  0.000  1.009
atomic mag. moment =   0.00004
atom    2   Tr[ns(na)] (up, down, total) =   4.97822  0.29129  5.26951
   spin  1
    eigenvalues: 
  0.989  0.989  1.000  1.000  1.000
    eigenvectors:
  0.122  0.877  0.000  0.000  0.000
  0.000  0.000  0.164  0.502  0.333
  0.000  0.000  0.169  0.497  0.333
  0.877  0.122  0.000  0.000  0.000
  0.000  0.000  0.666  0.000  0.333
    occupations:
  0.989  0.000  0.000  0.000  0.000
  0.000  1.000  0.000  0.000 -0.000
  0.000  0.000  1.000 -0.000 -0.000
  0.000  0.000 -0.000  0.989 -0.000
  0.000 -0.000 -0.000 -0.000  1.000
   spin  2
    eigenvalues: 
  0.035  0.035  0.035  0.094  0.094
    eigenvectors:
  0.000  0.000  0.000  0.014  0.986
  0.191  0.476  0.333  0.000  0.000
  0.144  0.523  0.333  0.000  0.000
  0.000  0.000  0.000  0.986  0.014
  0.665  0.001  0.333  0.000  0.000
    occupations:
  0.094  0.000  0.000  0.000  0.001
  0.000  0.035  0.000  0.001 -0.000
  0.000  0.000  0.035 -0.001 -0.000
  0.000  0.001 -0.001  0.094 -0.000
  0.001 -0.000 -0.000 -0.000  0.035
atomic mag. moment =   4.68692
atom    2   Tr[ns(na)] (up, down, total) =   4.02678  4.02547  8.05225
   spin  1
    eigenvalues: 
  0.999  1.009  1.009  1.009
    eigenvectors:
  1.000  0.000  0.000  0.000
  0.000  0.445  0.221  0.333
  0.000  0.549  0.117  0.333
  0.000  0.005  0.661  0.333
    occupations:
  0.999 -0.000 -0.000 -0.000
 -0.000  1.009 -0.000 -0.000
 -0.000 -0.000  1.009  0.000
 -0.000 -0.000  0.000  1.009
   spin  2
    eigenvalues: 
  0.999  1.009  1.009  1.009
    eigenvectors:
  1.000  0.000  0.000  0.000
  0.000  0.565  0.102  0.333
  0.000  0.426  0.241  0.333
  0.000  0.010  0.657  0.333
    occupations:
  0.999  0.000 -0.000  0.000
  0.000  1.009 -0.000 -0.000
 -0.000 -0.000  1.009  0.000
  0.000 -0.000  0.000  1.009
atomic mag. moment =   0.00130
N of occupied +U levels =   29.582038
 --- exit write_ns ---

     total cpu time spent up to now is        4.2 secs

     total energy              =    -570.68299306 Ry
     estimated scf accuracy    <       2.85900225 Ry

     total magnetization       =     3.96 Bohr mag/cell
     absolute magnetization    =     6.66 Bohr mag/cell

     iteration #  2     ecut=    40.00 Ry     beta= 0.30
     Davidson diagonalization with overlap
     ethr =  6.50E-03,  avg # of iterations =  3.6

     total cpu time spent up to now is        6.1 secs

     total energy              =    -569.84850631 Ry
     estimated scf accuracy    <      34.46793935 Ry

     total magnetization       =    -0.01 Bohr mag/cell
     absolute magnetization    =     1.46 Bohr mag/cell

     iteration #  3     ecut=    40.00 Ry     beta= 0.30
     Davidson diagonalization with overlap
     ethr =  6.50E-03,  avg # of iterations =  3.4

     total cpu time spent up to now is        7.8 secs

     total energy              =    -571.57992586 Ry
     estimated scf accuracy    <       0.92282016 Ry

     total magnetization       =     4.23 Bohr mag/cell
     absolute magnetization    =     6.12 Bohr mag/cell

     iteration #  4     ecut=    40.00 Ry     beta= 0.30
     Davidson diagonalization with overlap
     ethr =  2.10E-03,  avg # of iterations =  2.0

     total cpu time spent up to now is        9.4 secs

     total energy              =    -571.80442450 Ry
     estimated scf accuracy    <       0.43305462 Ry

     total magnetization       =     4.00 Bohr mag/cell
     absolute magnetization    =     4.46 Bohr mag/cell

     iteration #  5     ecut=    40.00 Ry     beta= 0.30
     Davidson diagonalization with overlap
     ethr =  9.84E-04,  avg # of iterations =  1.1

     total cpu time spent up to now is       10.9 secs

     total energy              =    -571.90625040 Ry
     estimated scf accuracy    <       0.47770459 Ry

     total magnetization       =     4.00 Bohr mag/cell
     absolute magnetization    =     4.29 Bohr mag/cell

     iteration #  6     ecut=    40.00 Ry     beta= 0.30
     Davidson diagonalization with overlap
     ethr =  9.84E-04,  avg # of iterations =  1.2

     total cpu time spent up to now is       12.5 secs

     total energy              =    -571.93848864 Ry
     estimated scf accuracy    <       0.30171981 Ry

     total magnetization       =     4.00 Bohr mag/cell
     absolute magnetization    =     4.03 Bohr mag/cell

     iteration #  7     ecut=    40.00 Ry     beta= 0.30
     Davidson diagonalization with overlap
     ethr =  6.86E-04,  avg # of iterations =  1.0

     total cpu time spent up to now is       14.0 secs

     total energy              =    -571.93529871 Ry
     estimated scf accuracy    <       0.15098747 Ry

     total magnetization       =     4.00 Bohr mag/cell
     absolute magnetization    =     4.01 Bohr mag/cell

     iteration #  8     ecut=    40.00 Ry     beta= 0.30
     Davidson diagonalization with overlap
     ethr =  3.43E-04,  avg # of iterations =  1.8

     total cpu time spent up to now is       15.5 secs

     total energy              =    -571.94223756 Ry
     estimated scf accuracy    <       0.03756673 Ry

     total magnetization       =     4.00 Bohr mag/cell
     absolute magnetization    =     4.04 Bohr mag/cell

     iteration #  9     ecut=    40.00 Ry     beta= 0.30
     Davidson diagonalization with overlap
     ethr =  8.54E-05,  avg # of iterations =  2.4

     total cpu time spent up to now is       17.1 secs

     total energy              =    -571.94833322 Ry
     estimated scf accuracy    <       0.00928678 Ry

     total magnetization       =     4.00 Bohr mag/cell
     absolute magnetization    =     4.06 Bohr mag/cell

     iteration # 10     ecut=    40.00 Ry     beta= 0.30
     Davidson diagonalization with overlap
     ethr =  2.11E-05,  avg # of iterations =  2.9

     total cpu time spent up to now is       18.8 secs

     total energy              =    -571.95120101 Ry
     estimated scf accuracy    <       0.00146500 Ry

     total magnetization       =     4.00 Bohr mag/cell
     absolute magnetization    =     4.07 Bohr mag/cell

     iteration # 11     ecut=    40.00 Ry     beta= 0.30
     Davidson diagonalization with overlap
     ethr =  3.33E-06,  avg # of iterations =  2.0

     total cpu time spent up to now is       20.3 secs

     total energy              =    -571.95197486 Ry
     estimated scf accuracy    <       0.00095359 Ry

     total magnetization       =     4.00 Bohr mag/cell
     absolute magnetization    =     4.08 Bohr mag/cell

     iteration # 12     ecut=    40.00 Ry     beta= 0.30
     Davidson diagonalization with overlap
     ethr =  2.17E-06,  avg # of iterations =  2.0

     total cpu time spent up to now is       21.9 secs

     total energy              =    -571.95236036 Ry
     estimated scf accuracy    <       0.00025703 Ry

     total magnetization       =     4.00 Bohr mag/cell
     absolute magnetization    =     4.09 Bohr mag/cell

     iteration # 13     ecut=    40.00 Ry     beta= 0.30
     Davidson diagonalization with overlap
     ethr =  5.84E-07,  avg # of iterations =  2.5

     total cpu time spent up to now is       23.5 secs

     total energy              =    -571.95267484 Ry
     estimated scf accuracy    <       0.00008865 Ry

     total magnetization       =     4.00 Bohr mag/cell
     absolute magnetization    =     4.10 Bohr mag/cell

     iteration # 14     ecut=    40.00 Ry     beta= 0.30
     Davidson diagonalization with overlap
     ethr =  2.01E-07,  avg # of iterations =  2.0

     total cpu time spent up to now is       25.1 secs

     total energy              =    -571.95271437 Ry
     estimated scf accuracy    <       0.00009846 Ry

     total magnetization       =     4.00 Bohr mag/cell
     absolute magnetization    =     4.11 Bohr mag/cell

     iteration # 15     ecut=    40.00 Ry     beta= 0.30
     Davidson diagonalization with overlap
     ethr =  2.01E-07,  avg # of iterations =  1.5

     total cpu time spent up to now is       26.6 secs

     total energy              =    -571.95285018 Ry
     estimated scf accuracy    <       0.00009675 Ry

     total magnetization       =     4.00 Bohr mag/cell
     absolute magnetization    =     4.10 Bohr mag/cell

     iteration # 16     ecut=    40.00 Ry     beta= 0.30
     Davidson diagonalization with overlap
     ethr =  2.01E-07,  avg # of iterations =  1.5

     total cpu time spent up to now is       28.2 secs

     total energy              =    -571.95192459 Ry
     estimated scf accuracy    <       0.00010841 Ry

     total magnetization       =     4.00 Bohr mag/cell
     absolute magnetization    =     4.12 Bohr mag/cell

     iteration # 17     ecut=    40.00 Ry     beta= 0.30
     Davidson diagonalization with overlap
     ethr =  2.01E-07,  avg # of iterations =  2.4

     total cpu time spent up to now is       29.8 secs

     total energy              =    -571.94860842 Ry
     estimated scf accuracy    <       0.00007487 Ry

     total magnetization       =     4.00 Bohr mag/cell
     absolute magnetization    =     4.06 Bohr mag/cell

     iteration # 18     ecut=    40.00 Ry     beta= 0.30
     Davidson diagonalization with overlap
     ethr =  1.70E-07,  avg # of iterations =  2.8

     total cpu time spent up to now is       31.6 secs

     total energy              =    -571.95119576 Ry
     estimated scf accuracy    <       0.00003920 Ry

     total magnetization       =     4.00 Bohr mag/cell
     absolute magnetization    =     4.03 Bohr mag/cell

     iteration # 19     ecut=    40.00 Ry     beta= 0.30
     Davidson diagonalization with overlap
     ethr =  8.91E-08,  avg # of iterations =  1.8

     total cpu time spent up to now is       33.1 secs

     total energy              =    -571.95182320 Ry
     estimated scf accuracy    <       0.00003176 Ry

     total magnetization       =     4.00 Bohr mag/cell
     absolute magnetization    =     4.03 Bohr mag/cell

     iteration # 20     ecut=    40.00 Ry     beta= 0.30
     Davidson diagonalization with overlap
     ethr =  7.22E-08,  avg # of iterations =  1.5

     total cpu time spent up to now is       34.7 secs

     total energy              =    -571.94929117 Ry
     estimated scf accuracy    <       0.00001421 Ry

     total magnetization       =     4.00 Bohr mag/cell
     absolute magnetization    =     4.03 Bohr mag/cell

     iteration # 21     ecut=    40.00 Ry     beta= 0.30
     Davidson diagonalization with overlap
     ethr =  3.23E-08,  avg # of iterations =  3.6

     total cpu time spent up to now is       36.6 secs

     total energy              =    -571.95169073 Ry
     estimated scf accuracy    <       0.00005815 Ry

     total magnetization       =     4.00 Bohr mag/cell
     absolute magnetization    =     4.06 Bohr mag/cell

     iteration # 22     ecut=    40.00 Ry     beta= 0.30
     Davidson diagonalization with overlap
     ethr =  3.23E-08,  avg # of iterations =  2.6

     total cpu time spent up to now is       38.4 secs

     total energy              =    -571.95212350 Ry
     estimated scf accuracy    <       0.00000170 Ry

     total magnetization       =     4.00 Bohr mag/cell
     absolute magnetization    =     4.03 Bohr mag/cell

     iteration # 23     ecut=    40.00 Ry     beta= 0.30
     Davidson diagonalization with overlap
     ethr =  3.86E-09,  avg # of iterations =  2.5

     total cpu time spent up to now is       40.1 secs

     total energy              =    -571.95213652 Ry
     estimated scf accuracy    <       0.00000094 Ry

     total magnetization       =     4.00 Bohr mag/cell
     absolute magnetization    =     4.03 Bohr mag/cell

     iteration # 24     ecut=    40.00 Ry     beta= 0.30
     Davidson diagonalization with overlap
     ethr =  2.13E-09,  avg # of iterations =  3.6

     total cpu time spent up to now is       42.0 secs

     total energy              =    -571.95220400 Ry
     estimated scf accuracy    <       0.00000092 Ry

     total magnetization       =     4.00 Bohr mag/cell
     absolute magnetization    =     4.03 Bohr mag/cell

     iteration # 25     ecut=    40.00 Ry     beta= 0.30
     Davidson diagonalization with overlap
     ethr =  2.09E-09,  avg # of iterations =  2.1

     total cpu time spent up to now is       43.6 secs

     total energy              =    -571.95220418 Ry
     estimated scf accuracy    <       0.00000006 Ry

     total magnetization       =     4.00 Bohr mag/cell
     absolute magnetization    =     4.03 Bohr mag/cell

     iteration # 26     ecut=    40.00 Ry     beta= 0.30
     Davidson diagonalization with overlap
     ethr =  1.43E-10,  avg # of iterations =  3.1

     total cpu time spent up to now is       45.4 secs

     total energy              =    -571.95220705 Ry
     estimated scf accuracy    <       0.00000004 Ry

     total magnetization       =     4.00 Bohr mag/cell
     absolute magnetization    =     4.03 Bohr mag/cell

     iteration # 27     ecut=    40.00 Ry     beta= 0.30
     Davidson diagonalization with overlap
     ethr =  9.14E-11,  avg # of iterations =  2.4

     total cpu time spent up to now is       47.1 secs

     total energy              =    -571.95220630 Ry
     estimated scf accuracy    <       0.00000002 Ry

     total magnetization       =     4.00 Bohr mag/cell
     absolute magnetization    =     4.03 Bohr mag/cell

     iteration # 28     ecut=    40.00 Ry     beta= 0.30
     Davidson diagonalization with overlap
     ethr =  4.66E-11,  avg # of iterations =  3.5

     total cpu time spent up to now is       48.9 secs

     total energy              =    -571.95220792 Ry
     estimated scf accuracy    <          2.7E-09 Ry

     total magnetization       =     4.00 Bohr mag/cell
     absolute magnetization    =     4.03 Bohr mag/cell

     iteration # 29     ecut=    40.00 Ry     beta= 0.30
     Davidson diagonalization with overlap
     ethr =  6.25E-12,  avg # of iterations =  2.8

     total cpu time spent up to now is       50.6 secs

     total energy              =    -571.95220794 Ry
     estimated scf accuracy    <          1.4E-09 Ry

     total magnetization       =     4.00 Bohr mag/cell
     absolute magnetization    =     4.03 Bohr mag/cell

     iteration # 30     ecut=    40.00 Ry     beta= 0.30
     Davidson diagonalization with overlap
     ethr =  3.16E-12,  avg # of iterations =  2.2

     total cpu time spent up to now is       52.3 secs

     total energy              =    -571.95220795 Ry
     estimated scf accuracy    <          5.6E-10 Ry

     total magnetization       =     4.00 Bohr mag/cell
     absolute magnetization    =     4.03 Bohr mag/cell

     iteration # 31     ecut=    40.00 Ry     beta= 0.30
     Davidson diagonalization with overlap
     ethr =  1.28E-12,  avg # of iterations =  2.6

     total cpu time spent up to now is       54.0 secs

     total energy              =    -571.95220795 Ry
     estimated scf accuracy    <          1.2E-10 Ry

     total magnetization       =     4.00 Bohr mag/cell
     absolute magnetization    =     4.03 Bohr mag/cell

     iteration # 32     ecut=    40.00 Ry     beta= 0.30
     Davidson diagonalization with overlap
     ethr =  2.74E-13,  avg # of iterations =  3.0
 
     Magnetic moment per site:
     atom:    1    charge:   13.6433    magn:    0.1654    constr:    0.0000
     atom:    2    charge:   13.5655    magn:    3.4289    constr:    0.0000
     atom:    3    charge:    5.8696    magn:    0.0722    constr:    0.0000
     atom:    4    charge:    5.8696    magn:    0.0722    constr:    0.0000

     total cpu time spent up to now is       55.8 secs

     End of self-consistent calculation
 --- enter write_ns ---
 LDA+U parameters:
U( 1)     =  5.00000000
U_back( 1)     =  2.00000000
U( 2)     =  5.00000000
U_back( 2)     =  2.00000000
atom    1   Tr[ns(na)] (up, down, total) =   3.56443  3.36714  6.93158
   spin  1
    eigenvalues: 
  0.287  0.287  0.996  0.997  0.997
    eigenvectors:
  0.031  0.969  0.000  0.000  0.000
  0.000  0.000  0.333  0.146  0.520
  0.000  0.000  0.333  0.188  0.479
  0.969  0.031  0.000  0.000  0.000
  0.000  0.000  0.333  0.666  0.001
    occupations:
  0.287  0.003  0.003  0.000  0.007
  0.003  0.997 -0.000  0.006  0.000
  0.003 -0.000  0.997 -0.006  0.000
  0.000  0.006 -0.006  0.287 -0.000
  0.007  0.000  0.000 -0.000  0.997
   spin  2
    eigenvalues: 
  0.199  0.199  0.988  0.988  0.993
    eigenvectors:
  0.127  0.872  0.000  0.000  0.000
  0.000  0.000  0.147  0.520  0.333
  0.000  0.000  0.187  0.479  0.333
  0.872  0.127  0.000  0.000  0.000
  0.000  0.000  0.666  0.001  0.333
    occupations:
  0.199 -0.006 -0.006  0.000 -0.012
 -0.006  0.989  0.002 -0.010 -0.002
 -0.006  0.002  0.989  0.010 -0.002
  0.000 -0.010  0.010  0.199 -0.000
 -0.012 -0.002 -0.002 -0.000  0.989
atomic mag. moment =   0.19729
atom    1   Tr[ns(na)] (up, down, total) =   4.02616  4.02614  8.05230
   spin  1
    eigenvalues: 
  0.999  1.009  1.009  1.009
    eigenvectors:
  1.000  0.000  0.000  0.000
  0.000  0.500  0.167  0.333
  0.000  0.500  0.167  0.333
  0.000  0.000  0.667  0.333
    occupations:
  0.999  0.000 -0.000 -0.000
  0.000  1.009 -0.000 -0.000
 -0.000 -0.000  1.009  0.000
 -0.000 -0.000  0.000  1.009
   spin  2
    eigenvalues: 
  0.999  1.009  1.009  1.009
    eigenvectors:
  1.000  0.000  0.000  0.000
  0.000  0.470  0.197  0.333
  0.000  0.528  0.138  0.333
  0.000  0.002  0.665  0.333
    occupations:
  0.999 -0.000  0.000 -0.000
 -0.000  1.009 -0.000 -0.000
  0.000 -0.000  1.009  0.000
 -0.000 -0.000  0.000  1.009
atomic mag. moment =   0.00003
atom    2   Tr[ns(na)] (up, down, total) =   4.98892  1.58172  6.57064
   spin  1
    eigenvalues: 
  0.994  0.994  1.000  1.000  1.000
    eigenvectors:
  0.102  0.878  0.018  0.003  0.000
  0.006  0.008  0.404  0.249  0.333
  0.013  0.001  0.013  0.640  0.333
  0.878  0.102  0.003  0.018  0.000
  0.001  0.012  0.562  0.091  0.333
    occupations:
  0.994  0.000  0.000  0.000  0.001
  0.000  1.000  0.000  0.001 -0.000
  0.000  0.000  1.000 -0.001 -0.000
  0.000  0.001 -0.001  0.994 -0.000
  0.001 -0.000 -0.000 -0.000  1.000
   spin  2
    eigenvalues: 
  0.070  0.159  0.159  0.597  0.597
    eigenvectors:
  0.000  0.243  0.598  0.087  0.072
  0.333  0.106  0.000  0.025  0.535
  0.333  0.023  0.083  0.509  0.052
  0.000  0.598  0.243  0.072  0.087
  0.333  0.031  0.075  0.307  0.254
    occupations:
  0.228 -0.065 -0.065  0.000 -0.131
 -0.065  0.375 -0.152 -0.113  0.152
 -0.065 -0.152  0.375  0.113  0.152
  0.000 -0.113  0.113  0.228 -0.000
 -0.131  0.152  0.152 -0.000  0.375
atomic mag. moment =   3.40720
atom    2   Tr[ns(na)] (up, down, total) =   4.02645  4.02572  8.05217
   spin  1
    eigenvalues: 
  0.999  1.009  1.009  1.009
    eigenvectors:
  1.000  0.000  0.000  0.000
  0.000  0.520  0.146  0.333
  0.000  0.479  0.188  0.333
  0.000  0.001  0.666  0.333
    occupations:
  0.999  0.000 -0.000 -0.000
  0.000  1.009 -0.000 -0.000
 -0.000 -0.000  1.009  0.000
 -0.000 -0.000  0.000  1.009
   spin  2
    eigenvalues: 
  0.999  1.009  1.009  1.009
    eigenvectors:
  1.000  0.000  0.000  0.000
  0.000  0.592  0.074  0.333
  0.000  0.385  0.281  0.333
  0.000  0.022  0.645  0.333
    occupations:
  0.999  0.000  0.000  0.000
  0.000  1.009 -0.000 -0.000
  0.000 -0.000  1.009  0.000
  0.000 -0.000  0.000  1.009
atomic mag. moment =   0.00074
N of occupied +U levels =   29.606692
 --- exit write_ns ---

 ------ SPIN UP ------------


          k = 0.0000 0.0000 0.0000 (  1141 PWs)   bands (ev):

   -77.3135 -74.1921 -43.2875 -43.2875 -43.2659 -40.2093 -40.2093 -40.1837
    -6.2292  -5.0483   4.4264   6.1639   6.1639   8.0308   8.0308   8.0744
    10.0735  10.0735  10.5994  10.5994  10.6045  11.2488  11.3790  11.3790
    14.4991  15.3964

          k =-0.7500 0.2500 0.2500 (  1168 PWs)   bands (ev):

   -77.3084 -74.1846 -43.3295 -43.3076 -43.2738 -40.2585 -40.2307 -40.1921
    -5.4500  -4.9752   5.5383   6.0070   6.3592   6.5522   7.7871   7.9247
     8.4712   8.9853   9.6893  10.5599  11.2253  11.3362  11.6384  11.7169
    15.2036  15.2059

          k =-0.5000-0.5000 0.5000 (  1168 PWs)   bands (ev):

   -77.3109 -74.1892 -43.3268 -43.3069 -43.2774 -40.2539 -40.2292 -40.1937
    -5.3618  -5.0509   4.5574   6.3114   6.4634   7.1926   7.2302   8.4464
     8.7564   9.5051   9.5066  10.3217  10.7855  11.4653  11.6414  11.7172
    15.5204  15.6282

          k =-0.2500-0.2500-0.2500 (  1160 PWs)   bands (ev):

   -77.3107 -74.1893 -43.2941 -43.2941 -43.2816 -40.2156 -40.2156 -40.1991
    -5.7274  -5.6585   5.7306   6.2882   6.2882   7.1417   8.1483   8.1483
     9.1569   9.1569   9.4309  10.8788  10.8788  11.0963  11.9743  11.9743
    15.1225  15.1225

 ------ SPIN DOWN ----------


          k = 0.0000 0.0000 0.0000 (  1141 PWs)   bands (ev):

   -73.9718 -72.9644 -40.0286 -39.9679 -39.9679 -39.0169 -39.0169 -39.0124
    -6.0748  -4.9132   5.7937   9.0887   9.0887  10.7174  10.7202  10.7202
    10.7470  10.7470  11.0144  12.9381  12.9381  14.9237  15.0840  15.0840
    16.3528  17.3060

          k =-0.7500 0.2500 0.2500 (  1168 PWs)   bands (ev):

   -73.9698 -72.9577 -40.0321 -40.0114 -39.9883 -39.0684 -39.0378 -39.0180
    -4.7975  -4.7941   6.5083   7.0610   8.1646   8.9033   9.1808   9.2616
    10.6816  11.5550  11.7853  12.8582  13.8425  15.8567  15.8894  16.6161
    16.8054  16.8753

          k =-0.5000-0.5000 0.5000 (  1168 PWs)   bands (ev):

   -73.9702 -72.9603 -40.0375 -40.0127 -39.9877 -39.0658 -39.0370 -39.0204
    -4.9133  -4.6674   5.6117   7.3989   8.8208   8.8617   9.6523   9.6660
    10.0360  11.5174  11.6435  13.2114  13.7274  15.5742  15.7934  16.6664
    17.2620  17.3185

          k =-0.2500-0.2500-0.2500 (  1160 PWs)   bands (ev):

   -73.9748 -72.9609 -40.0409 -39.9737 -39.9737 -39.0268 -39.0229 -39.0229
    -5.5532  -5.5268   7.2612   8.2064   9.4452   9.4452  10.0045  10.0045
    11.0035  11.0035  11.2099  12.8244  12.8244  15.7688  15.7688  16.0266
    16.7405  16.7405

     the Fermi energy is    13.1715 ev

!    total energy              =    -571.95220796 Ry
     estimated scf accuracy    <          5.5E-11 Ry
     smearing contrib. (-TS)   =      -0.00101406 Ry
     internal energy E=F+TS    =    -571.95119390 Ry

     The total energy is F=E-TS. E is the sum of the following terms:
     one-electron contribution =    -270.78431867 Ry
     hartree contribution      =     160.36115997 Ry
     xc contribution           =     -83.78915446 Ry
     ewald contribution        =    -378.02403896 Ry
     Hubbard energy            =       0.28515822 Ry

     total magnetization       =     4.00 Bohr mag/cell
     absolute magnetization    =     4.03 Bohr mag/cell

     convergence has been achieved in  32 iterations

     Forces acting on atoms (cartesian axes, Ry/au):

     atom    1 type  1   force =     0.00000000    0.00000000    0.00000000
     atom    2 type  2   force =     0.00000000    0.00000000   -0.00000000
     atom    3 type  3   force =     0.02932960    0.02932960    0.02932960
     atom    4 type  3   force =    -0.02932960   -0.02932960   -0.02932960

     Total force =     0.071843     Total SCF correction =     0.000004


     Computing stress (Cartesian axis) and pressure

          total   stress  (Ry/bohr**3)                   (kbar)     P=     -311.59
  -0.00211814  -0.00029261  -0.00029261         -311.59      -43.04      -43.04
  -0.00029261  -0.00211814  -0.00029261          -43.04     -311.59      -43.04
  -0.00029261  -0.00029261  -0.00211814          -43.04      -43.04     -311.59


     Writing output data file ./pwscf.save/
 
     init_run     :      1.67s CPU      1.76s WALL (       1 calls)
     electrons    :     50.74s CPU     53.19s WALL (       1 calls)
     forces       :      0.50s CPU      0.52s WALL (       1 calls)
     stress       :      1.81s CPU      1.92s WALL (       1 calls)

     Called by init_run:
     wfcinit      :      0.51s CPU      0.52s WALL (       1 calls)
     potinit      :      0.21s CPU      0.24s WALL (       1 calls)
     hinit0       :      0.86s CPU      0.88s WALL (       1 calls)

     Called by electrons:
     c_bands      :     28.98s CPU     29.08s WALL (      32 calls)
     sum_band     :     12.39s CPU     13.53s WALL (      32 calls)
     v_of_rho     :      6.40s CPU      6.58s WALL (      33 calls)
     newd         :      2.58s CPU      3.66s WALL (      33 calls)
     mix_rho      :      0.36s CPU      0.38s WALL (      32 calls)

     Called by c_bands:
     init_us_2    :      0.30s CPU      0.32s WALL (     560 calls)
     cegterg      :     27.99s CPU     28.10s WALL (     256 calls)

     Called by *egterg:
     cdiaghg      :      0.64s CPU      0.72s WALL (     859 calls)
     h_psi        :     26.77s CPU     26.79s WALL (     867 calls)
     s_psi        :      0.19s CPU      0.22s WALL (     891 calls)
     g_psi        :      0.06s CPU      0.06s WALL (     603 calls)

     Called by h_psi:
     h_psi:calbec :      0.22s CPU      0.21s WALL (     867 calls)
     vloc_psi     :     26.07s CPU     26.08s WALL (     867 calls)
     add_vuspsi   :      0.24s CPU      0.21s WALL (     867 calls)
     vhpsi        :      0.22s CPU      0.25s WALL (     867 calls)

     General routines
     calbec       :      0.80s CPU      0.76s WALL (    5286 calls)
     fft          :      1.50s CPU      1.46s WALL (     863 calls)
     ffts         :      0.06s CPU      0.10s WALL (     130 calls)
     fftw         :     28.43s CPU     28.45s WALL (   37798 calls)
     interpolate  :      0.20s CPU      0.19s WALL (      66 calls)
     davcio       :      0.00s CPU      0.00s WALL (      16 calls)
 
     Parallel routines

     Hubbard U routines
     new_ns       :      0.11s CPU      0.07s WALL (      32 calls)
     new_nsb      :      0.10s CPU      0.11s WALL (      64 calls)
     new_ns       :      0.11s CPU      0.07s WALL (      32 calls)
     vhpsi        :      0.22s CPU      0.25s WALL (     867 calls)
     force_hub    :      0.10s CPU      0.10s WALL (       1 calls)
     stres_hub    :      0.75s CPU      0.75s WALL (       1 calls)
 
     PWSCF        :     55.58s CPU     58.27s WALL

 
   This run was terminated on:  16:31:46  24Apr2020            

=------------------------------------------------------------------------------=
   JOB DONE.
=------------------------------------------------------------------------------=
