
     Program PWSCF v.7.1 starts on 11Aug2022 at 12:10:42 

     This program is part of the open-source Quantum ESPRESSO suite
     for quantum simulation of materials; please cite
         "P. Giannozzi et al., J. Phys.:Condens. Matter 21 395502 (2009);
         "P. Giannozzi et al., J. Phys.:Condens. Matter 29 465901 (2017);
         "P. Giannozzi et al., J. Chem. Phys. 152 154105 (2020);
          URL http://www.quantum-espresso.org", 
     in publications or presentations arising from this work. More details at
     http://www.quantum-espresso.org/quote

     Parallel version (MPI), running on     8 processors

     MPI processes distributed on     1 nodes
     54933 MiB available memory on the printing compute node when the environment starts
 
     Reading input from lda+U_background_one_channel.in

     Current dimensions of program PWSCF are:
     Max number of different atomic species (ntypx) = 10
     Max number of k-points (npk) =  40000
     Max angular momentum in pseudopotentials (lmaxx) =  4
     Message from routine volume:
     axis vectors are left-handed
     file O.pbe-rrkjus.UPF: wavefunction(s)  2S renormalized
     Message from routine setup:
     using ibrav=0 with symmetry is DISCOURAGED, use correct ibrav instead
 
     R & G space division:  proc/nbgrp/npool/nimage =       8
     Subspace diagonalization in iterative solution of the eigenvalue problem:
     a serial algorithm will be used

 
     Parallelization info
     --------------------
     sticks:   dense  smooth     PW     G-vecs:    dense   smooth      PW
     Min         176      88     27                 3323     1163     193
     Max         177      89     28                 3325     1164     194
     Sum        1415     705    219                26597     9309    1545
 
     Using Slab Decomposition
 


     bravais-lattice index     =            0
     lattice parameter (alat)  =       8.1900  a.u.
     unit-cell volume          =     274.6766 (a.u.)^3
     number of atoms/cell      =            4
     number of atomic types    =            3
     number of electrons       =        44.00
     number of Kohn-Sham states=           26
     kinetic-energy cutoff     =      40.0000  Ry
     charge density cutoff     =     320.0000  Ry
     scf convergence threshold =      1.0E-10
     mixing beta               =       0.3000
     number of iterations used =            8  plain     mixing
     Exchange-correlation= SLA  PW   PBE  PBE
                           (   1   4   3   4   0   0   0)
     Hubbard projectors: atomic
     Hubbard parameters of DFT+U (Dudarev formulation) in eV:
     U(Fe1-3d) =  5.0000
     U(Fe1-3p) =  2.0000
     U(Fe2-3d) =  5.0000
     U(Fe2-3p) =  2.0000

     Internal variables: lda_plus_u = T, lda_plus_u_kind = 0

     celldm(1)=   8.190000  celldm(2)=   0.000000  celldm(3)=   0.000000
     celldm(4)=   0.000000  celldm(5)=   0.000000  celldm(6)=   0.000000

     crystal axes: (cart. coord. in units of alat)
               a(1) = (   0.500000   0.500000   1.000000 )  
               a(2) = (   0.500000   1.000000   0.500000 )  
               a(3) = (   1.000000   0.500000   0.500000 )  

     reciprocal axes: (cart. coord. in units 2 pi/alat)
               b(1) = ( -0.500000 -0.500000  1.500000 )  
               b(2) = ( -0.500000  1.500000 -0.500000 )  
               b(3) = (  1.500000 -0.500000 -0.500000 )  


     PseudoPot. # 1 for Fe read from file:
     /scratch/timrov/QE_gitlab/tmp2/q-e/test-suite/..//pseudo/Fe.pbe-spn-rrkjus_psl.0.2.1.UPF
     MD5 check sum: f9af58635850a145d9bd408d58feeb93
     Pseudo is Ultrasoft + core correction, Zval = 16.0
     Generated using "atomic" code by A. Dal Corso  v.5.0.2 svn rev. 9415
     Using radial grid of 1191 points,  6 beta functions with: 
                l(1) =   0
                l(2) =   0
                l(3) =   1
                l(4) =   1
                l(5) =   2
                l(6) =   2
     Q(r) pseudized with 0 coefficients 


     PseudoPot. # 2 for Fe read from file:
     /scratch/timrov/QE_gitlab/tmp2/q-e/test-suite/..//pseudo/Fe.pbe-spn-rrkjus_psl.0.2.1.UPF
     MD5 check sum: f9af58635850a145d9bd408d58feeb93
     Pseudo is Ultrasoft + core correction, Zval = 16.0
     Generated using "atomic" code by A. Dal Corso  v.5.0.2 svn rev. 9415
     Using radial grid of 1191 points,  6 beta functions with: 
                l(1) =   0
                l(2) =   0
                l(3) =   1
                l(4) =   1
                l(5) =   2
                l(6) =   2
     Q(r) pseudized with 0 coefficients 


     PseudoPot. # 3 for O  read from file:
     /scratch/timrov/QE_gitlab/tmp2/q-e/test-suite/..//pseudo/O.pbe-rrkjus.UPF
     MD5 check sum: fadcf19ee70a498d3030e2e79cf929a4
     Pseudo is Ultrasoft, Zval =  6.0
     Generated by new atomic code, or converted to UPF format
     Using radial grid of 1269 points,  4 beta functions with: 
                l(1) =   0
                l(2) =   0
                l(3) =   1
                l(4) =   1
     Q(r) pseudized with 0 coefficients 


     atomic species   valence    mass     pseudopotential
        Fe1           16.00     1.00000     Fe( 1.00)
        Fe2           16.00     1.00000     Fe( 1.00)
        O              6.00     1.00000     O ( 1.00)

     Starting magnetic structure 
     atomic species   magnetization
        Fe1          0.000
        Fe2          0.500
        O           -0.500

     12 Sym. Ops., with inversion, found



   Cartesian axes

     site n.     atom                  positions (alat units)
         1           Fe1 tau(   1) = (   0.0000000   0.0000000   0.0000000  )
         2           Fe2 tau(   2) = (   1.0000000   1.0000000   1.0000000  )
         3           O   tau(   3) = (   0.5000000   0.5000000   0.5000000  )
         4           O   tau(   4) = (   1.5000000   1.5000000   1.5000000  )

     number of k points=     4  Gaussian smearing, width (Ry)=  0.0100
                       cart. coord. in units 2pi/alat
        k(    1) = (   0.0000000   0.0000000   0.0000000), wk =   0.1250000
        k(    2) = (  -0.7500000   0.2500000   0.2500000), wk =   0.3750000
        k(    3) = (  -0.5000000  -0.5000000   0.5000000), wk =   0.3750000
        k(    4) = (  -0.2500000  -0.2500000  -0.2500000), wk =   0.1250000

     Dense  grid:    26597 G-vectors     FFT dimensions: (  60,  60,  60)

     Smooth grid:     9309 G-vectors     FFT dimensions: (  45,  45,  45)

     Estimated max dynamical RAM per process >      21.20 MB

     Estimated total dynamical RAM >     169.59 MB

     Check: negative core charge=   -0.000219
     Generating pointlists ...
     new r_m :   0.2063 (alat units)  1.6892 (a.u.) for type    1
     new r_m :   0.2063 (alat units)  1.6892 (a.u.) for type    2
     new r_m :   0.2063 (alat units)  1.6892 (a.u.) for type    3

     Initial potential from superposition of free atoms

     starting charge      43.9991, renormalised to      44.0000

     STARTING HUBBARD OCCUPATIONS:

     =================== HUBBARD OCCUPATIONS ===================
     ------------------------ ATOM    1 ------------------------
     Tr[ns(  1)] (up, down, total) =   3.00000  3.00000  6.00000
     Atomic magnetic moment for atom   1 =   0.00000
     SPIN  1
     eigenvalues:
       0.600  0.600  0.600  0.600  0.600
     eigenvectors (columns):
       1.000  0.000  0.000  0.000  0.000
       0.000  1.000  0.000  0.000  0.000
       0.000  0.000  1.000  0.000  0.000
       0.000  0.000  0.000  1.000  0.000
       0.000  0.000  0.000  0.000  1.000
     occupation matrix ns (before diag.):
       0.600  0.000  0.000  0.000  0.000
       0.000  0.600  0.000  0.000  0.000
       0.000  0.000  0.600  0.000  0.000
       0.000  0.000  0.000  0.600  0.000
       0.000  0.000  0.000  0.000  0.600
     SPIN  2
     eigenvalues:
       0.600  0.600  0.600  0.600  0.600
     eigenvectors (columns):
       1.000  0.000  0.000  0.000  0.000
       0.000  1.000  0.000  0.000  0.000
       0.000  0.000  1.000  0.000  0.000
       0.000  0.000  0.000  1.000  0.000
       0.000  0.000  0.000  0.000  1.000
     occupation matrix ns (before diag.):
       0.600  0.000  0.000  0.000  0.000
       0.000  0.600  0.000  0.000  0.000
       0.000  0.000  0.600  0.000  0.000
       0.000  0.000  0.000  0.600  0.000
       0.000  0.000  0.000  0.000  0.600
      Background part 
     Tr[ns(  1)] (up, down, total) =   3.00000  3.00000  6.00000
     Atomic magnetic moment for atom   1 =   0.00000
     SPIN  1
     eigenvalues:
       1.000  1.000  1.000
     eigenvectors (columns):
       1.000  0.000  0.000
       0.000  1.000  0.000
       0.000  0.000  1.000
     occupation matrix ns (before diag.):
       1.000  0.000  0.000
       0.000  1.000  0.000
       0.000  0.000  1.000
     SPIN  2
     eigenvalues:
       1.000  1.000  1.000
     eigenvectors (columns):
       1.000  0.000  0.000
       0.000  1.000  0.000
       0.000  0.000  1.000
     occupation matrix ns (before diag.):
       1.000  0.000  0.000
       0.000  1.000  0.000
       0.000  0.000  1.000
     ------------------------ ATOM    2 ------------------------
     Tr[ns(  2)] (up, down, total) =   5.00000  1.00000  6.00000
     Atomic magnetic moment for atom   2 =   4.00000
     SPIN  1
     eigenvalues:
       1.000  1.000  1.000  1.000  1.000
     eigenvectors (columns):
       1.000  0.000  0.000  0.000  0.000
       0.000  1.000  0.000  0.000  0.000
       0.000  0.000  1.000  0.000  0.000
       0.000  0.000  0.000  1.000  0.000
       0.000  0.000  0.000  0.000  1.000
     occupation matrix ns (before diag.):
       1.000  0.000  0.000  0.000  0.000
       0.000  1.000  0.000  0.000  0.000
       0.000  0.000  1.000  0.000  0.000
       0.000  0.000  0.000  1.000  0.000
       0.000  0.000  0.000  0.000  1.000
     SPIN  2
     eigenvalues:
       0.200  0.200  0.200  0.200  0.200
     eigenvectors (columns):
       1.000  0.000  0.000  0.000  0.000
       0.000  1.000  0.000  0.000  0.000
       0.000  0.000  1.000  0.000  0.000
       0.000  0.000  0.000  1.000  0.000
       0.000  0.000  0.000  0.000  1.000
     occupation matrix ns (before diag.):
       0.200  0.000  0.000  0.000  0.000
       0.000  0.200  0.000  0.000  0.000
       0.000  0.000  0.200  0.000  0.000
       0.000  0.000  0.000  0.200  0.000
       0.000  0.000  0.000  0.000  0.200
      Background part 
     Tr[ns(  2)] (up, down, total) =   3.00000  3.00000  6.00000
     Atomic magnetic moment for atom   2 =   0.00000
     SPIN  1
     eigenvalues:
       1.000  1.000  1.000
     eigenvectors (columns):
       1.000  0.000  0.000
       0.000  1.000  0.000
       0.000  0.000  1.000
     occupation matrix ns (before diag.):
       1.000  0.000  0.000
       0.000  1.000  0.000
       0.000  0.000  1.000
     SPIN  2
     eigenvalues:
       1.000  1.000  1.000
     eigenvectors (columns):
       1.000  0.000  0.000
       0.000  1.000  0.000
       0.000  0.000  1.000
     occupation matrix ns (before diag.):
       1.000  0.000  0.000
       0.000  1.000  0.000
       0.000  0.000  1.000

     Number of occupied Hubbard levels =   24.0000

     Atomic wfc used for Hubbard projectors are NOT orthogonalized

     Starting wfcs are   34 randomized atomic wfcs

     total cpu time spent up to now is        0.6 secs

     Self-consistent Calculation

     iteration #  1     ecut=    40.00 Ry     beta= 0.30
     Davidson diagonalization with overlap
     ethr =  1.00E-02,  avg # of iterations =  2.0

     =================== HUBBARD OCCUPATIONS ===================
     ------------------------ ATOM    1 ------------------------
     Tr[ns(  1)] (up, down, total) =   4.03008  4.17650  8.20657
     Atomic magnetic moment for atom   1 =  -0.14642
     SPIN  1
     eigenvalues:
       0.550  0.550  0.974  0.978  0.978
     eigenvectors (columns):
      -0.203  0.979 -0.000 -0.016 -0.008
      -0.011 -0.010  0.577 -0.054 -0.815
       0.014 -0.005  0.577 -0.679  0.454
       0.979  0.203  0.000  0.008 -0.016
       0.003 -0.015 -0.577 -0.732 -0.361
     occupation matrix ns (before diag.):
       0.550  0.003  0.003  0.000  0.006
       0.003  0.977 -0.001  0.006  0.001
       0.003 -0.001  0.977 -0.006  0.001
       0.000  0.006 -0.006  0.550 -0.000
       0.006  0.001  0.001 -0.000  0.977
     SPIN  2
     eigenvalues:
       0.602  0.602  0.988  0.992  0.992
     eigenvectors (columns):
      -0.262  0.964 -0.000 -0.052 -0.011
       0.042 -0.011  0.577 -0.249 -0.776
      -0.031 -0.031  0.577 -0.548  0.604
      -0.964 -0.262 -0.000  0.011 -0.052
       0.011 -0.042 -0.577 -0.797 -0.172
     occupation matrix ns (before diag.):
       0.603  0.009  0.009  0.000  0.017
       0.009  0.990 -0.001  0.015  0.001
       0.009 -0.001  0.990 -0.015  0.001
       0.000  0.015 -0.015  0.603 -0.000
       0.017  0.001  0.001 -0.000  0.990
      Background part 
     Tr[ns(  1)] (up, down, total) =   3.02724  3.02722  6.05447
     Atomic magnetic moment for atom   1 =   0.00002
     SPIN  1
     eigenvalues:
       1.009  1.009  1.009
     eigenvectors (columns):
       0.788 -0.213 -0.577
       0.578  0.576  0.577
       0.210 -0.789  0.577
     occupation matrix ns (before diag.):
       1.009 -0.000 -0.000
      -0.000  1.009  0.000
      -0.000  0.000  1.009
     SPIN  2
     eigenvalues:
       1.009  1.009  1.009
     eigenvectors (columns):
       0.749 -0.324 -0.577
       0.655  0.487  0.577
       0.094 -0.811  0.577
     occupation matrix ns (before diag.):
       1.009 -0.000 -0.000
      -0.000  1.009  0.000
      -0.000  0.000  1.009
     ------------------------ ATOM    2 ------------------------
     Tr[ns(  2)] (up, down, total) =   4.97821  0.29115  5.26935
     Atomic magnetic moment for atom   2 =   4.68706
     SPIN  1
     eigenvalues:
       0.989  0.989  1.000  1.000  1.000
     eigenvectors (columns):
      -0.246  0.969  0.019  0.011  0.000
      -0.013 -0.013 -0.011  0.816 -0.577
       0.018 -0.005  0.713 -0.398 -0.577
       0.969  0.246 -0.011  0.019 -0.000
       0.005 -0.018  0.701  0.418  0.577
     occupation matrix ns (before diag.):
       0.989  0.000  0.000  0.000  0.000
       0.000  1.000  0.000  0.000 -0.000
       0.000  0.000  1.000 -0.000 -0.000
       0.000  0.000 -0.000  0.989 -0.000
       0.000 -0.000 -0.000 -0.000  1.000
     SPIN  2
     eigenvalues:
       0.034  0.034  0.035  0.094  0.094
     eigenvectors (columns):
       0.012  0.013  0.000 -0.105 -0.994
       0.230 -0.783  0.577 -0.013 -0.006
      -0.793  0.192  0.577  0.012 -0.009
      -0.013  0.012 -0.000 -0.994  0.105
      -0.563 -0.591 -0.577 -0.002 -0.014
     occupation matrix ns (before diag.):
       0.094  0.000  0.000  0.000  0.001
       0.000  0.035  0.000  0.001 -0.000
       0.000  0.000  0.035 -0.001 -0.000
       0.000  0.001 -0.001  0.094 -0.000
       0.001 -0.000 -0.000 -0.000  0.035
      Background part 
     Tr[ns(  2)] (up, down, total) =   3.02736  3.02621  6.05356
     Atomic magnetic moment for atom   2 =   0.00115
     SPIN  1
     eigenvalues:
       1.009  1.009  1.009
     eigenvectors (columns):
       0.734 -0.359 -0.577
       0.677  0.456  0.577
       0.056 -0.815  0.577
     occupation matrix ns (before diag.):
       1.009 -0.000 -0.000
      -0.000  1.009  0.000
      -0.000  0.000  1.009
     SPIN  2
     eigenvalues:
       1.009  1.009  1.009
     eigenvectors (columns):
       0.750 -0.324 -0.577
       0.655  0.487  0.577
       0.094 -0.811  0.577
     occupation matrix ns (before diag.):
       1.009 -0.000 -0.000
      -0.000  1.009  0.000
      -0.000  0.000  1.009

     Number of occupied Hubbard levels =   25.5840

     negative rho (up, down):  0.000E+00 5.488E-05

     total cpu time spent up to now is        0.9 secs

     total energy              =    -570.68258838 Ry
     estimated scf accuracy    <       2.85982370 Ry

     total magnetization       =     3.96 Bohr mag/cell
     absolute magnetization    =     6.66 Bohr mag/cell

     iteration #  2     ecut=    40.00 Ry     beta= 0.30
     Davidson diagonalization with overlap
     ethr =  6.50E-03,  avg # of iterations =  3.6

     negative rho (up, down):  0.000E+00 5.836E-05

     total cpu time spent up to now is        1.2 secs

     total energy              =    -569.84905083 Ry
     estimated scf accuracy    <      34.47099731 Ry

     total magnetization       =    -0.01 Bohr mag/cell
     absolute magnetization    =     1.46 Bohr mag/cell

     iteration #  3     ecut=    40.00 Ry     beta= 0.30
     Davidson diagonalization with overlap
     ethr =  6.50E-03,  avg # of iterations =  3.4

     negative rho (up, down):  0.000E+00 1.319E-04

     total cpu time spent up to now is        1.5 secs

     total energy              =    -571.57993331 Ry
     estimated scf accuracy    <       0.92349486 Ry

     total magnetization       =     4.23 Bohr mag/cell
     absolute magnetization    =     6.12 Bohr mag/cell

     iteration #  4     ecut=    40.00 Ry     beta= 0.30
     Davidson diagonalization with overlap
     ethr =  2.10E-03,  avg # of iterations =  2.0

     negative rho (up, down):  0.000E+00 1.491E-04

     total cpu time spent up to now is        1.8 secs

     total energy              =    -571.80452460 Ry
     estimated scf accuracy    <       0.43332660 Ry

     total magnetization       =     4.00 Bohr mag/cell
     absolute magnetization    =     4.46 Bohr mag/cell

     iteration #  5     ecut=    40.00 Ry     beta= 0.30
     Davidson diagonalization with overlap
     ethr =  9.85E-04,  avg # of iterations =  1.1

     negative rho (up, down):  0.000E+00 3.316E-04

     total cpu time spent up to now is        2.0 secs

     total energy              =    -571.90632073 Ry
     estimated scf accuracy    <       0.47828647 Ry

     total magnetization       =     4.00 Bohr mag/cell
     absolute magnetization    =     4.29 Bohr mag/cell

     iteration #  6     ecut=    40.00 Ry     beta= 0.30
     Davidson diagonalization with overlap
     ethr =  9.85E-04,  avg # of iterations =  1.2

     negative rho (up, down):  0.000E+00 3.819E-04

     total cpu time spent up to now is        2.2 secs

     total energy              =    -571.93873653 Ry
     estimated scf accuracy    <       0.30112323 Ry

     total magnetization       =     4.00 Bohr mag/cell
     absolute magnetization    =     4.03 Bohr mag/cell

     iteration #  7     ecut=    40.00 Ry     beta= 0.30
     Davidson diagonalization with overlap
     ethr =  6.84E-04,  avg # of iterations =  1.0

     negative rho (up, down):  0.000E+00 2.627E-04

     total cpu time spent up to now is        2.4 secs

     total energy              =    -571.93554971 Ry
     estimated scf accuracy    <       0.15131177 Ry

     total magnetization       =     4.00 Bohr mag/cell
     absolute magnetization    =     4.01 Bohr mag/cell

     iteration #  8     ecut=    40.00 Ry     beta= 0.30
     Davidson diagonalization with overlap
     ethr =  3.44E-04,  avg # of iterations =  1.8

     negative rho (up, down):  0.000E+00 1.730E-04

     total cpu time spent up to now is        2.7 secs

     total energy              =    -571.94242254 Ry
     estimated scf accuracy    <       0.03787960 Ry

     total magnetization       =     4.00 Bohr mag/cell
     absolute magnetization    =     4.04 Bohr mag/cell

     iteration #  9     ecut=    40.00 Ry     beta= 0.30
     Davidson diagonalization with overlap
     ethr =  8.61E-05,  avg # of iterations =  2.4

     negative rho (up, down):  0.000E+00 1.594E-04

     total cpu time spent up to now is        2.9 secs

     total energy              =    -571.94848207 Ry
     estimated scf accuracy    <       0.00951305 Ry

     total magnetization       =     4.00 Bohr mag/cell
     absolute magnetization    =     4.06 Bohr mag/cell

     iteration # 10     ecut=    40.00 Ry     beta= 0.30
     Davidson diagonalization with overlap
     ethr =  2.16E-05,  avg # of iterations =  2.8

     negative rho (up, down):  0.000E+00 1.559E-04

     total cpu time spent up to now is        3.2 secs

     total energy              =    -571.95136536 Ry
     estimated scf accuracy    <       0.00151201 Ry

     total magnetization       =     4.00 Bohr mag/cell
     absolute magnetization    =     4.07 Bohr mag/cell

     iteration # 11     ecut=    40.00 Ry     beta= 0.30
     Davidson diagonalization with overlap
     ethr =  3.44E-06,  avg # of iterations =  1.9

     negative rho (up, down):  0.000E+00 1.518E-04

     total cpu time spent up to now is        3.4 secs

     total energy              =    -571.95213018 Ry
     estimated scf accuracy    <       0.00098141 Ry

     total magnetization       =     4.00 Bohr mag/cell
     absolute magnetization    =     4.08 Bohr mag/cell

     iteration # 12     ecut=    40.00 Ry     beta= 0.30
     Davidson diagonalization with overlap
     ethr =  2.23E-06,  avg # of iterations =  2.1

     negative rho (up, down):  0.000E+00 1.501E-04

     total cpu time spent up to now is        3.6 secs

     total energy              =    -571.95252231 Ry
     estimated scf accuracy    <       0.00025346 Ry

     total magnetization       =     4.00 Bohr mag/cell
     absolute magnetization    =     4.09 Bohr mag/cell

     iteration # 13     ecut=    40.00 Ry     beta= 0.30
     Davidson diagonalization with overlap
     ethr =  5.76E-07,  avg # of iterations =  2.4

     negative rho (up, down):  0.000E+00 1.499E-04

     total cpu time spent up to now is        3.9 secs

     total energy              =    -571.95283803 Ry
     estimated scf accuracy    <       0.00008843 Ry

     total magnetization       =     4.00 Bohr mag/cell
     absolute magnetization    =     4.10 Bohr mag/cell

     iteration # 14     ecut=    40.00 Ry     beta= 0.30
     Davidson diagonalization with overlap
     ethr =  2.01E-07,  avg # of iterations =  2.5

     negative rho (up, down):  0.000E+00 1.497E-04

     total cpu time spent up to now is        4.1 secs

     total energy              =    -571.95279688 Ry
     estimated scf accuracy    <       0.00010084 Ry

     total magnetization       =     4.00 Bohr mag/cell
     absolute magnetization    =     4.12 Bohr mag/cell

     iteration # 15     ecut=    40.00 Ry     beta= 0.30
     Davidson diagonalization with overlap
     ethr =  2.01E-07,  avg # of iterations =  1.5

     negative rho (up, down):  0.000E+00 1.495E-04

     total cpu time spent up to now is        4.3 secs

     total energy              =    -571.95295275 Ry
     estimated scf accuracy    <       0.00010150 Ry

     total magnetization       =     4.00 Bohr mag/cell
     absolute magnetization    =     4.10 Bohr mag/cell

     iteration # 16     ecut=    40.00 Ry     beta= 0.30
     Davidson diagonalization with overlap
     ethr =  2.01E-07,  avg # of iterations =  1.4

     negative rho (up, down):  0.000E+00 1.488E-04

     total cpu time spent up to now is        4.6 secs

     total energy              =    -571.95150890 Ry
     estimated scf accuracy    <       0.00010537 Ry

     total magnetization       =     4.00 Bohr mag/cell
     absolute magnetization    =     4.11 Bohr mag/cell

     iteration # 17     ecut=    40.00 Ry     beta= 0.30
     Davidson diagonalization with overlap
     ethr =  2.01E-07,  avg # of iterations =  2.5

     negative rho (up, down):  0.000E+00 1.479E-04

     total cpu time spent up to now is        4.8 secs

     total energy              =    -571.94945894 Ry
     estimated scf accuracy    <       0.00008352 Ry

     total magnetization       =     4.00 Bohr mag/cell
     absolute magnetization    =     4.04 Bohr mag/cell

     iteration # 18     ecut=    40.00 Ry     beta= 0.30
     Davidson diagonalization with overlap
     ethr =  1.90E-07,  avg # of iterations =  2.6

     negative rho (up, down):  0.000E+00 1.473E-04

     total cpu time spent up to now is        5.1 secs

     total energy              =    -571.95082051 Ry
     estimated scf accuracy    <       0.00003570 Ry

     total magnetization       =     4.00 Bohr mag/cell
     absolute magnetization    =     4.03 Bohr mag/cell

     iteration # 19     ecut=    40.00 Ry     beta= 0.30
     Davidson diagonalization with overlap
     ethr =  8.11E-08,  avg # of iterations =  2.6

     negative rho (up, down):  0.000E+00 1.476E-04

     total cpu time spent up to now is        5.4 secs

     total energy              =    -571.95173958 Ry
     estimated scf accuracy    <       0.00001371 Ry

     total magnetization       =     4.00 Bohr mag/cell
     absolute magnetization    =     4.03 Bohr mag/cell

     iteration # 20     ecut=    40.00 Ry     beta= 0.30
     Davidson diagonalization with overlap
     ethr =  3.12E-08,  avg # of iterations =  2.1

     negative rho (up, down):  0.000E+00 1.479E-04

     total cpu time spent up to now is        5.6 secs

     total energy              =    -571.95178865 Ry
     estimated scf accuracy    <       0.00000475 Ry

     total magnetization       =     4.00 Bohr mag/cell
     absolute magnetization    =     4.03 Bohr mag/cell

     iteration # 21     ecut=    40.00 Ry     beta= 0.30
     Davidson diagonalization with overlap
     ethr =  1.08E-08,  avg # of iterations =  3.1

     negative rho (up, down):  0.000E+00 1.483E-04

     total cpu time spent up to now is        6.0 secs

     total energy              =    -571.95215894 Ry
     estimated scf accuracy    <       0.00000377 Ry

     total magnetization       =     4.00 Bohr mag/cell
     absolute magnetization    =     4.04 Bohr mag/cell

     iteration # 22     ecut=    40.00 Ry     beta= 0.30
     Davidson diagonalization with overlap
     ethr =  8.57E-09,  avg # of iterations =  3.1

     negative rho (up, down):  0.000E+00 1.484E-04

     total cpu time spent up to now is        6.2 secs

     total energy              =    -571.95231565 Ry
     estimated scf accuracy    <       0.00000266 Ry

     total magnetization       =     4.00 Bohr mag/cell
     absolute magnetization    =     4.03 Bohr mag/cell

     iteration # 23     ecut=    40.00 Ry     beta= 0.30
     Davidson diagonalization with overlap
     ethr =  6.04E-09,  avg # of iterations =  2.2

     negative rho (up, down):  0.000E+00 1.485E-04

     total cpu time spent up to now is        6.5 secs

     total energy              =    -571.95232504 Ry
     estimated scf accuracy    <       0.00000018 Ry

     total magnetization       =     4.00 Bohr mag/cell
     absolute magnetization    =     4.03 Bohr mag/cell

     iteration # 24     ecut=    40.00 Ry     beta= 0.30
     Davidson diagonalization with overlap
     ethr =  4.03E-10,  avg # of iterations =  3.5

     negative rho (up, down):  0.000E+00 1.484E-04

     total cpu time spent up to now is        6.8 secs

     total energy              =    -571.95233965 Ry
     estimated scf accuracy    <       0.00000035 Ry

     total magnetization       =     4.00 Bohr mag/cell
     absolute magnetization    =     4.03 Bohr mag/cell

     iteration # 25     ecut=    40.00 Ry     beta= 0.30
     Davidson diagonalization with overlap
     ethr =  4.03E-10,  avg # of iterations =  3.5

     negative rho (up, down):  0.000E+00 1.484E-04

     total cpu time spent up to now is        7.1 secs

     total energy              =    -571.95236444 Ry
     estimated scf accuracy    <       0.00000014 Ry

     total magnetization       =     4.00 Bohr mag/cell
     absolute magnetization    =     4.03 Bohr mag/cell

     iteration # 26     ecut=    40.00 Ry     beta= 0.30
     Davidson diagonalization with overlap
     ethr =  3.17E-10,  avg # of iterations =  2.6

     negative rho (up, down):  0.000E+00 1.484E-04

     total cpu time spent up to now is        7.3 secs

     total energy              =    -571.95236800 Ry
     estimated scf accuracy    <       0.00000001 Ry

     total magnetization       =     4.00 Bohr mag/cell
     absolute magnetization    =     4.03 Bohr mag/cell

     iteration # 27     ecut=    40.00 Ry     beta= 0.30
     Davidson diagonalization with overlap
     ethr =  2.70E-11,  avg # of iterations =  3.5

     negative rho (up, down):  0.000E+00 1.484E-04

     total cpu time spent up to now is        7.6 secs

     total energy              =    -571.95236883 Ry
     estimated scf accuracy    <          1.8E-09 Ry

     total magnetization       =     4.00 Bohr mag/cell
     absolute magnetization    =     4.03 Bohr mag/cell

     iteration # 28     ecut=    40.00 Ry     beta= 0.30
     Davidson diagonalization with overlap
     ethr =  4.06E-12,  avg # of iterations =  3.0

     negative rho (up, down):  0.000E+00 1.484E-04

     total cpu time spent up to now is        7.9 secs

     total energy              =    -571.95236877 Ry
     estimated scf accuracy    <          1.3E-09 Ry

     total magnetization       =     4.00 Bohr mag/cell
     absolute magnetization    =     4.03 Bohr mag/cell

     iteration # 29     ecut=    40.00 Ry     beta= 0.30
     Davidson diagonalization with overlap
     ethr =  2.89E-12,  avg # of iterations =  3.5

     negative rho (up, down):  0.000E+00 1.484E-04

     total cpu time spent up to now is        8.2 secs

     total energy              =    -571.95236892 Ry
     estimated scf accuracy    <          5.8E-10 Ry

     total magnetization       =     4.00 Bohr mag/cell
     absolute magnetization    =     4.03 Bohr mag/cell

     iteration # 30     ecut=    40.00 Ry     beta= 0.30
     Davidson diagonalization with overlap
     ethr =  1.31E-12,  avg # of iterations =  2.8

     negative rho (up, down):  0.000E+00 1.484E-04

     total cpu time spent up to now is        8.5 secs

     total energy              =    -571.95236894 Ry
     estimated scf accuracy    <          2.6E-10 Ry

     total magnetization       =     4.00 Bohr mag/cell
     absolute magnetization    =     4.03 Bohr mag/cell

     iteration # 31     ecut=    40.00 Ry     beta= 0.30
     Davidson diagonalization with overlap
     ethr =  5.89E-13,  avg # of iterations =  2.9

     negative rho (up, down):  0.000E+00 1.484E-04
 
     Magnetic moment per site  (integrated on atomic sphere of radius R)
     atom   1 (R=0.206)  charge= 13.6433  magn=  0.1654
     atom   2 (R=0.206)  charge= 13.5655  magn=  3.4289
     atom   3 (R=0.206)  charge=  5.8696  magn=  0.0723
     atom   4 (R=0.206)  charge=  5.8696  magn=  0.0723

     total cpu time spent up to now is        8.8 secs

     End of self-consistent calculation

     =================== HUBBARD OCCUPATIONS ===================
     ------------------------ ATOM    1 ------------------------
     Tr[ns(  1)] (up, down, total) =   3.56443  3.36715  6.93158
     Atomic magnetic moment for atom   1 =   0.19729
     SPIN  1
     eigenvalues:
       0.287  0.287  0.996  0.997  0.997
     eigenvectors (columns):
       0.120  0.993 -0.000 -0.011  0.005
       0.008 -0.006  0.577 -0.062  0.814
      -0.009 -0.004  0.577 -0.674 -0.461
      -0.993  0.120 -0.000  0.005  0.011
      -0.001 -0.010 -0.577 -0.736  0.353
     occupation matrix ns (before diag.):
       0.287  0.004  0.004  0.000  0.007
       0.004  0.997 -0.000  0.006  0.000
       0.004 -0.000  0.997 -0.006  0.000
       0.000  0.006 -0.006  0.287 -0.000
       0.007  0.000  0.000 -0.000  0.997
     SPIN  2
     eigenvalues:
       0.199  0.199  0.988  0.988  0.993
     eigenvectors (columns):
      -0.115 -0.993 -0.018  0.006  0.000
      -0.014 -0.006  0.177 -0.797 -0.577
       0.012 -0.009  0.602  0.552 -0.577
      -0.993  0.115  0.006  0.018 -0.000
      -0.002 -0.015  0.779 -0.245  0.577
     occupation matrix ns (before diag.):
       0.199 -0.006 -0.006  0.000 -0.012
      -0.006  0.989  0.002 -0.010 -0.002
      -0.006  0.002  0.989  0.010 -0.002
       0.000 -0.010  0.010  0.199 -0.000
      -0.012 -0.002 -0.002 -0.000  0.989
      Background part 
     Tr[ns(  1)] (up, down, total) =   3.02671  3.02668  6.05339
     Atomic magnetic moment for atom   1 =   0.00003
     SPIN  1
     eigenvalues:
       1.009  1.009  1.009
     eigenvectors (columns):
       0.776 -0.255 -0.577
       0.608  0.544  0.577
       0.167 -0.799  0.577
     occupation matrix ns (before diag.):
       1.009 -0.000 -0.000
      -0.000  1.009  0.000
      -0.000  0.000  1.009
     SPIN  2
     eigenvalues:
       1.009  1.009  1.009
     eigenvectors (columns):
       0.747 -0.330 -0.577
       0.659  0.482  0.577
       0.088 -0.812  0.577
     occupation matrix ns (before diag.):
       1.009 -0.000 -0.000
      -0.000  1.009  0.000
      -0.000  0.000  1.009
     ------------------------ ATOM    2 ------------------------
     Tr[ns(  2)] (up, down, total) =   4.98892  1.58172  6.57065
     Atomic magnetic moment for atom   2 =   3.40720
     SPIN  1
     eigenvalues:
       0.994  0.994  1.000  1.000  1.000
     eigenvectors (columns):
      -0.387  0.911 -0.142  0.014  0.000
      -0.070 -0.093 -0.332  0.737 -0.577
       0.116 -0.014 -0.472 -0.656 -0.577
       0.911  0.387  0.014  0.142 -0.000
       0.046 -0.108 -0.804  0.081  0.577
     occupation matrix ns (before diag.):
       0.994  0.000  0.000  0.000  0.001
       0.000  1.000  0.000  0.001 -0.000
       0.000  0.000  1.000 -0.001 -0.000
       0.000  0.001 -0.001  0.994 -0.000
       0.001 -0.000 -0.000 -0.000  1.000
     SPIN  2
     eigenvalues:
       0.070  0.159  0.159  0.597  0.597
     eigenvectors (columns):
       0.000 -0.538 -0.743  0.279 -0.284
       0.577 -0.323  0.034  0.200  0.722
       0.577  0.133 -0.297 -0.725 -0.188
      -0.000 -0.743  0.538 -0.284 -0.279
      -0.577 -0.191 -0.263 -0.525  0.534
     occupation matrix ns (before diag.):
       0.228 -0.065 -0.065  0.000 -0.131
      -0.065  0.375 -0.152 -0.113  0.152
      -0.065 -0.152  0.375  0.113  0.152
       0.000 -0.113  0.113  0.228 -0.000
      -0.131  0.152  0.152 -0.000  0.375
      Background part 
     Tr[ns(  2)] (up, down, total) =   3.02699  3.02628  6.05328
     Atomic magnetic moment for atom   2 =   0.00071
     SPIN  1
     eigenvalues:
       1.009  1.009  1.009
     eigenvectors (columns):
       0.792 -0.199 -0.577
       0.569  0.586  0.577
       0.223 -0.785  0.577
     occupation matrix ns (before diag.):
       1.009 -0.000 -0.000
      -0.000  1.009  0.000
      -0.000  0.000  1.009
     SPIN  2
     eigenvalues:
       1.009  1.009  1.009
     eigenvectors (columns):
       0.787 -0.219 -0.577
       0.583  0.572  0.577
       0.204 -0.791  0.577
     occupation matrix ns (before diag.):
       1.009 -0.000 -0.000
      -0.000  1.009  0.000
      -0.000  0.000  1.009

     Number of occupied Hubbard levels =   25.6089

 ------ SPIN UP ------------


          k = 0.0000 0.0000 0.0000 (  1141 PWs)   bands (ev):

   -76.3151 -73.1937 -43.2875 -43.2875 -43.2659 -40.2095 -40.2095 -40.1837
    -6.2292  -5.0483   4.4264   6.1639   6.1639   8.0308   8.0308   8.0743
    10.0733  10.0733  10.5994  10.5994  10.6045  11.2487  11.3791  11.3791
    14.4991  15.3963

          k =-0.7500 0.2500 0.2500 (  1168 PWs)   bands (ev):

   -76.3101 -73.1864 -43.3296 -43.3077 -43.2738 -40.2586 -40.2308 -40.1921
    -5.4500  -4.9753   5.5383   6.0070   6.3592   6.5521   7.7871   7.9246
     8.4712   8.9853   9.6893  10.5599  11.2252  11.3361  11.6383  11.7168
    15.2036  15.2058

          k =-0.5000-0.5000 0.5000 (  1168 PWs)   bands (ev):

   -76.3126 -73.1910 -43.3269 -43.3069 -43.2774 -40.2540 -40.2294 -40.1936
    -5.3618  -5.0510   4.5574   6.3114   6.4634   7.1926   7.2302   8.4464
     8.7563   9.5051   9.5065  10.3216  10.7855  11.4654  11.6412  11.7171
    15.5204  15.6281

          k =-0.2500-0.2500-0.2500 (  1160 PWs)   bands (ev):

   -76.3123 -73.1909 -43.2942 -43.2942 -43.2817 -40.2158 -40.2158 -40.1990
    -5.7274  -5.6586   5.7306   6.2882   6.2882   7.1417   8.1482   8.1482
     9.1567   9.1567   9.4308  10.8789  10.8789  11.0963  11.9742  11.9742
    15.1224  15.1224

 ------ SPIN DOWN ----------


          k = 0.0000 0.0000 0.0000 (  1141 PWs)   bands (ev):

   -72.9734 -71.9660 -40.0288 -39.9680 -39.9680 -39.0170 -39.0170 -39.0125
    -6.0748  -4.9132   5.7937   9.0888   9.0888  10.7174  10.7201  10.7201
    10.7470  10.7470  11.0143  12.9380  12.9380  14.9237  15.0839  15.0839
    16.3527  17.3060

          k =-0.7500 0.2500 0.2500 (  1168 PWs)   bands (ev):

   -72.9716 -71.9595 -40.0323 -40.0114 -39.9884 -39.0684 -39.0378 -39.0181
    -4.7975  -4.7941   6.5083   7.0610   8.1647   8.9033   9.1807   9.2616
    10.6815  11.5551  11.7853  12.8581  13.8425  15.8566  15.8894  16.6161
    16.8053  16.8752

          k =-0.5000-0.5000 0.5000 (  1168 PWs)   bands (ev):

   -72.9720 -71.9621 -40.0377 -40.0127 -39.9877 -39.0658 -39.0370 -39.0205
    -4.9133  -4.6674   5.6117   7.3989   8.8209   8.8616   9.6523   9.6660
    10.0359  11.5175  11.6434  13.2114  13.7273  15.5742  15.7933  16.6664
    17.2619  17.3184

          k =-0.2500-0.2500-0.2500 (  1160 PWs)   bands (ev):

   -72.9764 -71.9625 -40.0411 -39.9737 -39.9737 -39.0268 -39.0229 -39.0229
    -5.5532  -5.5268   7.2612   8.2064   9.4453   9.4453  10.0045  10.0045
    11.0033  11.0033  11.2098  12.8244  12.8244  15.7688  15.7688  16.0265
    16.7404  16.7404

     the Fermi energy is    13.1715 ev

!    total energy              =    -571.95236895 Ry
     estimated scf accuracy    <          6.2E-11 Ry
     smearing contrib. (-TS)   =      -0.00101405 Ry
     internal energy E=F+TS    =    -571.95135490 Ry

     The total energy is F=E-TS. E is the sum of the following terms:
     one-electron contribution =    -270.78419177 Ry
     hartree contribution      =     160.36100493 Ry
     xc contribution           =     -83.78912596 Ry
     ewald contribution        =    -378.02403896 Ry
     Hubbard energy            =       0.28499685 Ry

     total magnetization       =     4.00 Bohr mag/cell
     absolute magnetization    =     4.03 Bohr mag/cell

     convergence has been achieved in  31 iterations

     negative rho (up, down):  0.000E+00 1.484E-04

     Forces acting on atoms (cartesian axes, Ry/au):

     atom    1 type  1   force =     0.00000000    0.00000000   -0.00000000
     atom    2 type  2   force =     0.00000000    0.00000000    0.00000000
     atom    3 type  3   force =     0.02932937    0.02932937    0.02932937
     atom    4 type  3   force =    -0.02932937   -0.02932937   -0.02932937

     Total force =     0.071842     Total SCF correction =     0.000005


     Computing stress (Cartesian axis) and pressure


     negative rho (up, down):  0.000E+00 1.484E-04
          total   stress  (Ry/bohr**3)                   (kbar)     P=     -311.67
  -0.00211870  -0.00029261  -0.00029261         -311.67      -43.04      -43.04
  -0.00029261  -0.00211870  -0.00029261          -43.04     -311.67      -43.04
  -0.00029261  -0.00029261  -0.00211870          -43.04      -43.04     -311.67


     Writing all to output data dir ./pwscf.save/
 
     init_run     :      0.36s CPU      0.44s WALL (       1 calls)
     electrons    :      7.80s CPU      8.16s WALL (       1 calls)
     forces       :      0.11s CPU      0.11s WALL (       1 calls)
     stress       :      0.29s CPU      0.30s WALL (       1 calls)

     Called by init_run:
     wfcinit      :      0.10s CPU      0.11s WALL (       1 calls)
     potinit      :      0.04s CPU      0.05s WALL (       1 calls)
     hinit0       :      0.18s CPU      0.23s WALL (       1 calls)

     Called by electrons:
     c_bands      :      4.42s CPU      4.72s WALL (      31 calls)
     sum_band     :      1.90s CPU      1.93s WALL (      31 calls)
     v_of_rho     :      0.85s CPU      0.87s WALL (      32 calls)
     newd         :      0.54s CPU      0.56s WALL (      32 calls)
     mix_rho      :      0.07s CPU      0.07s WALL (      31 calls)

     Called by c_bands:
     init_us_2    :      0.03s CPU      0.04s WALL (     544 calls)
     init_us_2:cp :      0.03s CPU      0.03s WALL (     544 calls)
     cegterg      :      4.30s CPU      4.59s WALL (     248 calls)

     Called by *egterg:
     cdiaghg      :      0.71s CPU      0.76s WALL (     861 calls)
     h_psi        :      3.46s CPU      3.70s WALL (     869 calls)
     s_psi        :      0.03s CPU      0.04s WALL (     893 calls)
     g_psi        :      0.01s CPU      0.01s WALL (     613 calls)

     Called by h_psi:
     h_psi:calbec :      0.05s CPU      0.06s WALL (     869 calls)
     vloc_psi     :      3.32s CPU      3.54s WALL (     869 calls)
     add_vuspsi   :      0.03s CPU      0.04s WALL (     869 calls)
     vhpsi        :      0.05s CPU      0.05s WALL (     869 calls)

     General routines
     calbec       :      0.21s CPU      0.22s WALL (    6026 calls)
     fft          :      0.29s CPU      0.34s WALL (     838 calls)
     ffts         :      0.02s CPU      0.02s WALL (     126 calls)
     fftw         :      3.67s CPU      3.89s WALL (   37252 calls)
     interpolate  :      0.03s CPU      0.04s WALL (      64 calls)
     davcio       :      0.00s CPU      0.00s WALL (       8 calls)
 
     Parallel routines

     Hubbard U routines
     new_ns       :      0.02s CPU      0.02s WALL (      31 calls)
     new_nsb      :      0.02s CPU      0.02s WALL (      62 calls)
     vhpsi        :      0.05s CPU      0.05s WALL (     869 calls)
     force_hub    :      0.03s CPU      0.03s WALL (       1 calls)
     stres_hub    :      0.10s CPU      0.10s WALL (       1 calls)
 
     PWSCF        :      8.72s CPU      9.21s WALL

 
   This run was terminated on:  12:10:51  11Aug2022            

=------------------------------------------------------------------------------=
   JOB DONE.
=------------------------------------------------------------------------------=
