
     Program PWSCF v.6.7GPU starts on 19May2021 at 22:22: 8 

     This program is part of the open-source Quantum ESPRESSO suite
     for quantum simulation of materials; please cite
         "P. Giannozzi et al., J. Phys.:Condens. Matter 21 395502 (2009);
         "P. Giannozzi et al., J. Phys.:Condens. Matter 29 465901 (2017);
         "P. Giannozzi et al., J. Chem. Phys. 152 154105 (2020);
          URL http://www.quantum-espresso.org", 
     in publications or presentations arising from this work. More details at
     http://www.quantum-espresso.org/quote

     Parallel version (MPI), running on     1 processors

     MPI processes distributed on     1 nodes
 Using CP units for velocities
     file H.pbe-vbc.UPF: wavefunction(s)  0S renormalized
     file O.pbe-mt.UPF: wavefunction(s)  4f renormalized
 Cannot open trajectory file. I can calculate only a single step from input file

     Subspace diagonalization in iterative solution of the eigenvalue problem:
     a serial algorithm will be used


     G-vector sticks info
     --------------------
     sticks:   dense  smooth     PW     G-vecs:    dense   smooth      PW
     Sum        1281    1281    325                34265    34265    4337

     Using Slab Decomposition



     bravais-lattice index     =            0
     lattice parameter (alat)  =      10.0000  a.u.
     unit-cell volume          =    1000.0000 (a.u.)^3
     number of atoms/cell      =            3
     number of atomic types    =            2
     number of electrons       =         8.00
     number of Kohn-Sham states=            4
     kinetic-energy cutoff     =      40.0000  Ry
     charge density cutoff     =     160.0000  Ry
     scf convergence threshold =      1.0E-11
     mixing beta               =       0.7000
     number of iterations used =            8  plain     mixing
     energy convergence thresh.=      0.0E+00
     force convergence thresh. =      0.0E+00
     Exchange-correlation= PBE
                           (   1   4   3   4   0   0   0)
     nstep                     =           50


     celldm(1)=  10.000000  celldm(2)=   0.000000  celldm(3)=   0.000000
     celldm(4)=   0.000000  celldm(5)=   0.000000  celldm(6)=   0.000000

     crystal axes: (cart. coord. in units of alat)
               a(1) = (  -0.562667   0.496057  -0.661312 )  
               a(2) = (  -0.122534   0.741076   0.660145 )  
               a(3) = (   0.817552   0.452475  -0.356195 )  

     reciprocal axes: (cart. coord. in units 2 pi/alat)
               b(1) = ( -0.562667  0.496057 -0.661312 )  
               b(2) = ( -0.122534  0.741076  0.660145 )  
               b(3) = (  0.817552  0.452475 -0.356195 )  


     PseudoPot. # 1 for H  read from file:
     ../../pseudo/H.pbe-vbc.UPF
     MD5 check sum: 65927ac6c32861be1224e6d13a099887
     Pseudo is Norm-conserving, Zval =  1.0
     Generated by new atomic code, or converted to UPF format
     Using radial grid of  325 points,  0 beta functions with: 

     PseudoPot. # 2 for O  read from file:
     ../../pseudo/O.pbe-mt.UPF
     MD5 check sum: 9f08e35405c7f04ae91f5f46c062ee95
     Pseudo is Norm-conserving, Zval =  6.0
     Generated using Fritz-Haber code, data in Abinit PP tables
     Using radial grid of  473 points,  3 beta functions with: 
                l(1) =   0
                l(2) =   1
                l(3) =   3

     atomic species   valence    mass     pseudopotential
        H              1.00     1.00000     H ( 1.00)
        O              6.00    16.00000     O ( 1.00)

     No symmetry found



   Cartesian axes

     site n.     atom                  positions (alat units)
         1           H   tau(   1) = (  -0.0000076   0.0000592   0.0001085  )
         2           H   tau(   2) = (  -0.0003859  -0.0001469  -0.0000065  )
         3           O   tau(   3) = (   0.0000246   0.0000055  -0.0000064  )

     number of k points=     1
                       cart. coord. in units 2pi/alat
        k(    1) = (   0.0000000   0.0000000   0.0000000), wk =   2.0000000

     Dense  grid:    17133 G-vectors     FFT dimensions: (  45,  45,  45)

     Estimated max dynamical RAM per process >      16.39 MB

     Initial potential from superposition of free atoms

     starting charge    7.99997, renormalised to    8.00000

     negative rho (up, down):  7.285E-04 0.000E+00
     Starting wfcs are   18 randomized atomic wfcs
     charge density from previous step

     negative rho (up, down):  7.285E-04 0.000E+00

     total cpu time spent up to now is        0.6 secs

     Self-consistent Calculation

     iteration #  1     ecut=    40.00 Ry     beta= 0.70
     Davidson diagonalization with overlap
     ethr =  1.00E-03,  avg # of iterations =  4.0

     negative rho (up, down):  8.953E-05 0.000E+00

     total cpu time spent up to now is        0.7 secs

     total energy              =    4070.85166264 Ry
     estimated scf accuracy    <       6.28307906 Ry

     iteration #  2     ecut=    40.00 Ry     beta= 0.70
     Davidson diagonalization with overlap
     ethr =  1.00E-02,  avg # of iterations =  2.0

     negative rho (up, down):  2.369E-05 0.000E+00

     total cpu time spent up to now is        0.8 secs

     total energy              =    4069.45528855 Ry
     estimated scf accuracy    <       0.50462805 Ry

     iteration #  3     ecut=    40.00 Ry     beta= 0.70
     Davidson diagonalization with overlap
     ethr =  6.31E-03,  avg # of iterations =  2.0

     negative rho (up, down):  7.015E-05 0.000E+00

     total cpu time spent up to now is        0.9 secs

     total energy              =    4069.27328987 Ry
     estimated scf accuracy    <       0.02332905 Ry

     iteration #  4     ecut=    40.00 Ry     beta= 0.70
     Davidson diagonalization with overlap
     ethr =  2.92E-04,  avg # of iterations =  2.0

     negative rho (up, down):  4.078E-07 0.000E+00

     total cpu time spent up to now is        1.0 secs

     total energy              =    4069.33701491 Ry
     estimated scf accuracy    <       0.11519120 Ry

     iteration #  5     ecut=    40.00 Ry     beta= 0.70
     Davidson diagonalization with overlap
     ethr =  2.92E-04,  avg # of iterations =  2.0

     total cpu time spent up to now is        1.1 secs

     total energy              =    4069.31598945 Ry
     estimated scf accuracy    <       0.00014354 Ry

     iteration #  6     ecut=    40.00 Ry     beta= 0.70
     Davidson diagonalization with overlap
     ethr =  1.79E-06,  avg # of iterations =  2.0

     total cpu time spent up to now is        1.2 secs

     total energy              =    4069.31593064 Ry
     estimated scf accuracy    <       0.00004674 Ry

     iteration #  7     ecut=    40.00 Ry     beta= 0.70
     Davidson diagonalization with overlap
     ethr =  5.84E-07,  avg # of iterations =  2.0

     total cpu time spent up to now is        1.3 secs

     total energy              =    4069.31592596 Ry
     estimated scf accuracy    <       0.00000220 Ry

     iteration #  8     ecut=    40.00 Ry     beta= 0.70
     Davidson diagonalization with overlap
     ethr =  2.75E-08,  avg # of iterations =  2.0

     total cpu time spent up to now is        1.4 secs

     total energy              =    4069.31592579 Ry
     estimated scf accuracy    <       0.00000017 Ry

     iteration #  9     ecut=    40.00 Ry     beta= 0.70
     Davidson diagonalization with overlap
     ethr =  2.12E-09,  avg # of iterations =  2.0

     total cpu time spent up to now is        1.5 secs

     total energy              =    4069.31592577 Ry
     estimated scf accuracy    <          8.7E-09 Ry

     iteration # 10     ecut=    40.00 Ry     beta= 0.70
     Davidson diagonalization with overlap
     ethr =  1.09E-10,  avg # of iterations =  1.0

     total cpu time spent up to now is        1.6 secs

     total energy              =    4069.31592577 Ry
     estimated scf accuracy    <          4.7E-09 Ry

     iteration # 11     ecut=    40.00 Ry     beta= 0.70
     Davidson diagonalization with overlap
     ethr =  5.85E-11,  avg # of iterations =  2.0

     total cpu time spent up to now is        1.7 secs

     total energy              =    4069.31592577 Ry
     estimated scf accuracy    <          4.9E-10 Ry

     iteration # 12     ecut=    40.00 Ry     beta= 0.70
     Davidson diagonalization with overlap
     ethr =  6.09E-12,  avg # of iterations =  2.0

     total cpu time spent up to now is        1.8 secs

     total energy              =    4069.31592577 Ry
     estimated scf accuracy    <          4.2E-11 Ry

     iteration # 13     ecut=    40.00 Ry     beta= 0.70
     Davidson diagonalization with overlap
     ethr =  5.24E-13,  avg # of iterations =  1.0

     total cpu time spent up to now is        1.9 secs

     total energy              =    4069.31592577 Ry
     estimated scf accuracy    <          1.0E-11 Ry

     iteration # 14     ecut=    40.00 Ry     beta= 0.70
     Davidson diagonalization with overlap
     ethr =  1.27E-13,  avg # of iterations =  2.0

     total cpu time spent up to now is        2.0 secs

     End of self-consistent calculation

          k = 0.0000 0.0000 0.0000 (  2169 PWs)   bands (ev):

   -35.8975 -12.3588 -12.3559 -12.3558

     highest occupied level (ev):   -12.3558

!    total energy              =    4069.31592577 Ry
     estimated scf accuracy    <          2.8E-13 Ry

     convergence has been achieved in  14 iterations
     charge density from previous step

     total cpu time spent up to now is        2.1 secs

     Self-consistent Calculation

     iteration #  1     ecut=    40.00 Ry     beta= 0.70
     Davidson diagonalization with overlap
     ethr =  1.00E-07,  avg # of iterations =  4.0

     total cpu time spent up to now is        2.2 secs

     total energy              =   12294.76900386 Ry
     estimated scf accuracy    <       0.00041363 Ry

     iteration #  2     ecut=    40.00 Ry     beta= 0.70
     Davidson diagonalization with overlap
     ethr =  5.17E-06,  avg # of iterations =  2.0

     total cpu time spent up to now is        2.3 secs

     total energy              =   12294.76896252 Ry
     estimated scf accuracy    <       0.00000787 Ry

     iteration #  3     ecut=    40.00 Ry     beta= 0.70
     Davidson diagonalization with overlap
     ethr =  9.83E-08,  avg # of iterations =  1.0

     total cpu time spent up to now is        2.4 secs

     total energy              =   12294.76896225 Ry
     estimated scf accuracy    <       0.00000020 Ry

     iteration #  4     ecut=    40.00 Ry     beta= 0.70
     Davidson diagonalization with overlap
     ethr =  2.53E-09,  avg # of iterations =  2.0

     total cpu time spent up to now is        2.5 secs

     total energy              =   12294.76896223 Ry
     estimated scf accuracy    <          2.5E-09 Ry

     iteration #  5     ecut=    40.00 Ry     beta= 0.70
     Davidson diagonalization with overlap
     ethr =  3.09E-11,  avg # of iterations =  2.0

     total cpu time spent up to now is        2.6 secs

     total energy              =   12294.76896223 Ry
     estimated scf accuracy    <          2.6E-10 Ry

     iteration #  6     ecut=    40.00 Ry     beta= 0.70
     Davidson diagonalization with overlap
     ethr =  3.25E-12,  avg # of iterations =  2.0

     total cpu time spent up to now is        2.7 secs

     End of self-consistent calculation

          k = 0.0000 0.0000 0.0000 (  2169 PWs)   bands (ev):

   -35.8969 -12.3571 -12.3565 -12.3565

     highest occupied level (ev):   -12.3565

!    total energy              =   12294.76896223 Ry
     estimated scf accuracy    <          2.9E-12 Ry

     convergence has been achieved in   6 iterations
 ROUTINE_ZERO BEGINNING
 check_charge   3.9999999999999609     
     zero_current :      0.04s CPU      0.05s WALL (       1 calls)
 ZERO CURRENT CALCULATED
     routine_zero :      0.04s CPU      0.05s WALL (       1 calls)
     calcolo_i    :      0.00s CPU      0.00s WALL (       1 calls)
 IONIC CURRENT CALCULATED
     charge density from previous step

     total cpu time spent up to now is        2.8 secs

     Self-consistent Calculation

     iteration #  1     ecut=    40.00 Ry     beta= 0.70
     Davidson diagonalization with overlap
     ethr =  1.00E-07,  avg # of iterations =  4.0

     total cpu time spent up to now is        2.9 secs

     total energy              =    2116.76779260 Ry
     estimated scf accuracy    <       0.00041336 Ry

     iteration #  2     ecut=    40.00 Ry     beta= 0.70
     Davidson diagonalization with overlap
     ethr =  5.17E-06,  avg # of iterations =  2.0

     total cpu time spent up to now is        3.0 secs

     total energy              =    2116.76775137 Ry
     estimated scf accuracy    <       0.00000789 Ry

     iteration #  3     ecut=    40.00 Ry     beta= 0.70
     Davidson diagonalization with overlap
     ethr =  9.87E-08,  avg # of iterations =  2.0

     total cpu time spent up to now is        3.1 secs

     total energy              =    2116.76775108 Ry
     estimated scf accuracy    <       0.00000020 Ry

     iteration #  4     ecut=    40.00 Ry     beta= 0.70
     Davidson diagonalization with overlap
     ethr =  2.52E-09,  avg # of iterations =  2.0

     total cpu time spent up to now is        3.2 secs

     total energy              =    2116.76775107 Ry
     estimated scf accuracy    <          4.2E-09 Ry

     iteration #  5     ecut=    40.00 Ry     beta= 0.70
     Davidson diagonalization with overlap
     ethr =  5.28E-11,  avg # of iterations =  2.0

     total cpu time spent up to now is        3.3 secs

     total energy              =    2116.76775107 Ry
     estimated scf accuracy    <          5.2E-10 Ry

     iteration #  6     ecut=    40.00 Ry     beta= 0.70
     Davidson diagonalization with overlap
     ethr =  6.52E-12,  avg # of iterations =  2.0

     total cpu time spent up to now is        3.3 secs

     End of self-consistent calculation

          k = 0.0000 0.0000 0.0000 (  2169 PWs)   bands (ev):

   -35.9006 -12.3625 -12.3547 -12.3543

     highest occupied level (ev):   -12.3543

!    total energy              =    2116.76775107 Ry
     estimated scf accuracy    <          5.3E-12 Ry

     convergence has been achieved in   6 iterations
     charge density from previous step
 BEGIN: HARTREE & KOHN
 check_charge   4.0000000000000169     
 check_charge   4.0000000000000036     
 check_charge   3.9999999999999609     
     hartree_curr :      0.03s CPU      0.03s WALL (       1 calls)
 HARTREE CURRENT CALCULATED
     xc_current   :      0.02s CPU      0.02s WALL (       1 calls)
 X-C CURRENT CALCULATED
     charge density from previous step
     project      :      0.16s CPU      0.20s WALL (       1 calls)
     kohn-first   :      0.00s CPU      0.00s WALL (       1 calls)
     kohn-second  :      0.00s CPU      0.00s WALL (       1 calls)
  KOHN POLARIZATION   1 COMPLETED
     project      :      0.34s CPU      0.40s WALL (       2 calls)
     kohn-first   :      0.00s CPU      0.00s WALL (       2 calls)
     kohn-second  :      0.00s CPU      0.00s WALL (       2 calls)
  KOHN POLARIZATION   2 COMPLETED
     project      :      0.49s CPU      0.59s WALL (       3 calls)
     kohn-first   :      0.00s CPU      0.00s WALL (       3 calls)
     kohn-second  :      0.00s CPU      0.00s WALL (       3 calls)
  KOHN POLARIZATION   3 COMPLETED
     kohn_current :      0.55s CPU      0.67s WALL (       1 calls)
 KOHN CURRENT CALCULATED
total energy current:   0.435727396538E+02  0.609507959074E+02  0.653308742009E+01
center of mass velocity of type   1:  -0.655865195716E-02  0.388259909892E-02  0.309411879974E-02
center of mass velocity of type   2:   0.117835578422E-01 -0.709993756873E-02 -0.537011079675E-02
 Finished reading trajectory  at step            0

     init_run     :      0.18s CPU      0.26s WALL (       1 calls)
     electrons    :      2.11s CPU      2.59s WALL (       3 calls)
     update_pot   :      0.24s CPU      0.34s WALL (       5 calls)

     Called by init_run:
     wfcinit      :      0.04s CPU      0.08s WALL (       1 calls)
     potinit      :      0.08s CPU      0.11s WALL (       1 calls)
     hinit0       :      0.05s CPU      0.06s WALL (       1 calls)

     Called by electrons:
     c_bands      :      0.60s CPU      0.68s WALL (      26 calls)
     sum_band     :      0.25s CPU      0.26s WALL (      28 calls)
     v_of_rho     :      1.42s CPU      1.85s WALL (      32 calls)
     mix_rho      :      0.12s CPU      0.18s WALL (      26 calls)

     Called by c_bands:
     init_us_2    :      0.05s CPU      0.05s WALL (      58 calls)
     regterg      :      0.56s CPU      0.64s WALL (      26 calls)

     Called by *egterg:
     rdiaghg      :      0.00s CPU      0.00s WALL (      79 calls)
     h_psi        :      0.96s CPU      1.14s WALL (     160 calls)
     g_psi        :      0.00s CPU      0.00s WALL (      55 calls)

     Called by h_psi:
     h_psi:calbec :      0.04s CPU      0.05s WALL (     160 calls)
     vloc_psi     :      0.90s CPU      1.07s WALL (     160 calls)
     add_vuspsi   :      0.02s CPU      0.02s WALL (     160 calls)

     General routines
     calbec       :      0.06s CPU      0.07s WALL (     260 calls)
     fft          :      0.52s CPU      0.67s WALL (     255 calls)
     ffts         :      0.07s CPU      0.08s WALL (      35 calls)
     fftw         :      0.92s CPU      1.08s WALL (     680 calls)

     Parallel routines

     PWSCF        :      3.36s CPU      4.16s WALL


   This run was terminated on:  22:22:12  19May2021            

=------------------------------------------------------------------------------=
   JOB DONE.
=------------------------------------------------------------------------------=
