<PP_INFO>
Generated using Andrea Dal Corso code (rrkj3)
Author: Andrea Dal Corso   Generation date: unknown
Info:   Al PBE 3s2 3p1 RRKJ3 
    0        The Pseudo was generated with a Non-Relativistic Calculation
  2.70000000000E+00    Local Potential cutoff radius
nl pn  l   occ               Rcut            Rcut US             E pseu
3S  1  0  2.00      2.70000000000      0.00000000000      0.00000000000
3S  1  0  0.00      2.70000000000      0.00000000000      0.00000000000
3P  2  1  1.00      2.70000000000      0.00000000000      0.00000000000
3P  2  1  0.00      2.70000000000      0.00000000000      0.00000000000
3D  3  2 -1.00      2.70000000000      0.00000000000      0.00000000000
</PP_INFO>


<PP_HEADER>
   0                   Version Number
  Al                   Element
   NC                  Norm - Conserving pseudopotential
    F                  Nonlinear Core Correction
 SLA  PW   PBE  PBE    PBE  Exchange-Correlation functional
    3.00000000000      Z valence
   -3.86795506860      Total energy
  0.0000000  0.0000000 Suggested cutoff for wfc and rho
    2                  Max angular momentum component
  879                  Number of points in mesh
    2    4             Number of Wavefunctions, Number of Projectors
 Wavefunctions         nl  l   occ
                       3S  0  2.00
                       3P  1  1.00
</PP_HEADER>


<PP_MESH>
  <PP_R>
  1.90673244359E-04  1.93554901421E-04  1.96480109153E-04  1.99449525739E-04
  2.02463819309E-04  2.05523668092E-04  2.08629760568E-04  2.11782795620E-04
  2.14983482695E-04  2.18232541960E-04  2.21530704468E-04  2.24878712319E-04
  2.28277318829E-04  2.31727288699E-04  2.35229398186E-04  2.38784435281E-04
  2.42393199880E-04  2.46056503973E-04  2.49775171816E-04  2.53550040127E-04
  2.57381958267E-04  2.61271788433E-04  2.65220405854E-04  2.69228698985E-04
  2.73297569709E-04  2.77427933540E-04  2.81620719825E-04  2.85876871961E-04
  2.90197347599E-04  2.94583118865E-04  2.99035172575E-04  3.03554510461E-04
  3.08142149392E-04  3.12799121606E-04  3.17526474943E-04  3.22325273076E-04
  3.27196595755E-04  3.32141539049E-04  3.37161215590E-04  3.42256754827E-04
  3.47429303278E-04  3.52680024788E-04  3.58010100791E-04  3.63420730577E-04
  3.68913131561E-04  3.74488539556E-04  3.80148209052E-04  3.85893413499E-04
  3.91725445592E-04  3.97645617563E-04  4.03655261475E-04  4.09755729525E-04
  4.15948394342E-04  4.22234649302E-04  4.28615908840E-04  4.35093608766E-04
  4.41669206589E-04  4.48344181847E-04  4.55120036437E-04  4.61998294956E-04
  4.68980505040E-04  4.76068237716E-04  4.83263087754E-04  4.90566674026E-04
  4.97980639868E-04  5.05506653456E-04  5.13146408173E-04  5.20901622998E-04
  5.28774042884E-04  5.36765439162E-04  5.44877609927E-04  5.53112380454E-04
  5.61471603599E-04  5.69957160224E-04  5.78570959615E-04  5.87314939912E-04
  5.96191068549E-04  6.05201342691E-04  6.14347789689E-04  6.23632467531E-04
  6.33057465309E-04  6.42624903688E-04  6.52336935381E-04  6.62195745637E-04
  6.72203552729E-04  6.82362608456E-04  6.92675198649E-04  7.03143643684E-04
  7.13770299005E-04  7.24557555655E-04  7.35507840811E-04  7.46623618335E-04
  7.57907389322E-04  7.69361692670E-04  7.80989105644E-04  7.92792244462E-04
  8.04773764879E-04  8.16936362789E-04  8.29282774826E-04  8.41815778987E-04
  8.54538195249E-04  8.67452886211E-04  8.80562757731E-04  8.93870759587E-04
  9.07379886135E-04  9.21093176985E-04  9.35013717686E-04  9.49144640418E-04
  9.63489124698E-04  9.78050398096E-04  9.92831736960E-04  1.00783646715E-03
  1.02306796480E-03  1.03852965706E-03  1.05422502287E-03  1.07015759376E-03
  1.08633095463E-03  1.10274874454E-03  1.11941465757E-03  1.13633244362E-03
  1.15350590927E-03  1.17093891861E-03  1.18863539415E-03  1.20659931766E-03
  1.22483473112E-03  1.24334573755E-03  1.26213650202E-03  1.28121125253E-03
  1.30057428098E-03  1.32022994412E-03  1.34018266458E-03  1.36043693178E-03
  1.38099730304E-03  1.40186840451E-03  1.42305493229E-03  1.44456165344E-03
  1.46639340705E-03  1.48855510536E-03  1.51105173485E-03  1.53388835736E-03
  1.55707011122E-03  1.58060221242E-03  1.60448995579E-03  1.62873871616E-03
  1.65335394962E-03  1.67834119470E-03  1.70370607362E-03  1.72945429360E-03
  1.75559164808E-03  1.78212401810E-03  1.80905737354E-03  1.83639777452E-03
  1.86415137275E-03  1.89232441290E-03  1.92092323402E-03  1.94995427098E-03
  1.97942405587E-03  2.00933921953E-03  2.03970649299E-03  2.07053270902E-03
  2.10182480364E-03  2.13358981771E-03  2.16583489848E-03  2.19856730125E-03
  2.23179439094E-03  2.26552364378E-03  2.29976264899E-03  2.33451911051E-03
  2.36980084867E-03  2.40561580203E-03  2.44197202908E-03  2.47887771015E-03
  2.51634114916E-03  2.55437077554E-03  2.59297514612E-03  2.63216294705E-03
  2.67194299575E-03  2.71232424289E-03  2.75331577444E-03  2.79492681364E-03
  2.83716672317E-03  2.88004500719E-03  2.92357131347E-03  2.96775543564E-03
  3.01260731531E-03  3.05813704432E-03  3.10435486708E-03  3.15127118278E-03
  3.19889654778E-03  3.24724167801E-03  3.29631745131E-03  3.34613490995E-03
  3.39670526305E-03  3.44803988917E-03  3.50015033882E-03  3.55304833705E-03
  3.60674578615E-03  3.66125476827E-03  3.71658754816E-03  3.77275657592E-03
  3.82977448984E-03  3.88765411916E-03  3.94640848707E-03  4.00605081354E-03
  4.06659451833E-03  4.12805322406E-03  4.19044075917E-03  4.25377116113E-03
  4.31805867955E-03  4.38331777939E-03  4.44956314422E-03  4.51680967953E-03
  4.58507251607E-03  4.65436701328E-03  4.72470876269E-03  4.79611359151E-03
  4.86859756613E-03  4.94217699573E-03  5.01686843601E-03  5.09268869285E-03
  5.16965482613E-03  5.24778415356E-03  5.32709425457E-03  5.40760297425E-03
  5.48932842741E-03  5.57228900263E-03  5.65650336639E-03  5.74199046726E-03
  5.82876954022E-03  5.91686011091E-03  6.00628200009E-03  6.09705532806E-03
  6.18920051919E-03  6.28273830656E-03  6.37768973655E-03  6.47407617364E-03
  6.57191930518E-03  6.67124114629E-03  6.77206404480E-03  6.87441068629E-03
  6.97830409919E-03  7.08376765994E-03  7.19082509831E-03  7.29950050266E-03
  7.40981832542E-03  7.52180338857E-03  7.63548088920E-03  7.75087640525E-03
  7.86801590120E-03  7.98692573391E-03  8.10763265860E-03  8.23016383485E-03
  8.35454683269E-03  8.48080963881E-03  8.60898066287E-03  8.73908874390E-03
  8.87116315677E-03  9.00523361878E-03  9.14133029634E-03  9.27948381178E-03
  9.41972525023E-03  9.56208616660E-03  9.70659859270E-03  9.85329504443E-03
  1.00022085291E-02  1.01533725529E-02  1.03068211284E-02  1.04625887821E-02
  1.06207105624E-02  1.07812220474E-02  1.09441593528E-02  1.11095591403E-02
  1.12774586254E-02  1.14478955863E-02  1.16209083720E-02  1.17965359111E-02
  1.19748177206E-02  1.21557939146E-02  1.23395052135E-02  1.25259929531E-02
  1.27152990940E-02  1.29074662308E-02  1.31025376020E-02  1.33005570994E-02
  1.35015692782E-02  1.37056193671E-02  1.39127532782E-02  1.41230176175E-02
  1.43364596953E-02  1.45531275371E-02  1.47730698939E-02  1.49963362538E-02
  1.52229768526E-02  1.54530426854E-02  1.56865855180E-02  1.59236578986E-02
  1.61643131693E-02  1.64086054787E-02  1.66565897935E-02  1.69083219114E-02
  1.71638584730E-02  1.74232569751E-02  1.76865757836E-02  1.79538741462E-02
  1.82252122063E-02  1.85006510160E-02  1.87802525503E-02  1.90640797206E-02
  1.93521963892E-02  1.96446673837E-02  1.99415585112E-02  2.02429365735E-02
  2.05488693820E-02  2.08594257727E-02  2.11746756223E-02  2.14946898632E-02
  2.18195405000E-02  2.21493006254E-02  2.24840444370E-02  2.28238472534E-02
  2.31687855317E-02  2.35189368845E-02  2.38743800973E-02  2.42351951464E-02
  2.46014632166E-02  2.49732667199E-02  2.53506893135E-02  2.57338159191E-02
  2.61227327419E-02  2.65175272898E-02  2.69182883932E-02  2.73251062250E-02
  2.77380723210E-02  2.81572796003E-02  2.85828223863E-02  2.90147964279E-02
  2.94532989212E-02  2.98984285309E-02  3.03502854132E-02  3.08089712378E-02
  3.12745892108E-02  3.17472440984E-02  3.22270422498E-02  3.27140916217E-02
  3.32085018022E-02  3.37103840358E-02  3.42198512479E-02  3.47370180710E-02
  3.52620008696E-02  3.57949177673E-02  3.63358886724E-02  3.68850353058E-02
  3.74424812277E-02  3.80083518659E-02  3.85827745435E-02  3.91658785083E-02
  3.97577949609E-02  4.03586570851E-02  4.09686000775E-02  4.15877611776E-02
  4.22162796995E-02  4.28542970625E-02  4.35019568230E-02  4.41594047074E-02
  4.48267886442E-02  4.55042587974E-02  4.61919676009E-02  4.68900697920E-02
  4.75987224466E-02  4.83180850146E-02  4.90483193555E-02  4.97895897752E-02
  5.05420630627E-02  5.13059085276E-02  5.20812980383E-02  5.28684060608E-02
  5.36674096978E-02  5.44784887283E-02  5.53018256486E-02  5.61376057130E-02
  5.69860169755E-02  5.78472503323E-02  5.87214995644E-02  5.96089613816E-02
  6.05098354667E-02  6.14243245200E-02  6.23526343054E-02  6.32949736966E-02
  6.42515547239E-02  6.52225926221E-02  6.62083058789E-02  6.72089162837E-02
  6.82246489782E-02  6.92557325066E-02  7.03023988670E-02  7.13648835637E-02
  7.24434256603E-02  7.35382678333E-02  7.46496564268E-02  7.57778415079E-02
  7.69230769231E-02  7.80856203551E-02  7.92657333810E-02  8.04636815314E-02
  8.16797343496E-02  8.29141654527E-02  8.41672525927E-02  8.54392777197E-02
  8.67305270446E-02  8.80412911039E-02  8.93718648253E-02  9.07225475932E-02
  9.20936433171E-02  9.34854604992E-02  9.48983123044E-02  9.63325166301E-02
  9.77883961786E-02  9.92662785287E-02  1.00766496210E-01  1.02289386779E-01
  1.03835292890E-01  1.05404562381E-01  1.06997548343E-01  1.08614609205E-01
  1.10256108812E-01  1.11922416509E-01  1.13613907222E-01  1.15330961543E-01
  1.17073965817E-01  1.18843312227E-01  1.20639398884E-01  1.22462629914E-01
  1.24313415553E-01  1.26192172235E-01  1.28099322688E-01  1.30035296029E-01
  1.32000527860E-01  1.33995460367E-01  1.36020542418E-01  1.38076229665E-01
  1.40162984645E-01  1.42281276889E-01  1.44431583020E-01  1.46614386867E-01
  1.48830179569E-01  1.51079459690E-01  1.53362733326E-01  1.55680514225E-01
  1.58033323896E-01  1.60421691731E-01  1.62846155124E-01  1.65307259589E-01
  1.67805558884E-01  1.70341615139E-01  1.72915998975E-01  1.75529289641E-01
  1.78182075137E-01  1.80874952352E-01  1.83608527194E-01  1.86383414730E-01
  1.89200239320E-01  1.92059634762E-01  1.94962244432E-01  1.97908721430E-01
  2.00899728725E-01  2.03935939306E-01  2.07018036335E-01  2.10146713294E-01
  2.13322674151E-01  2.16546633510E-01  2.19819316774E-01  2.23141460312E-01
  2.26513811620E-01  2.29937129492E-01  2.33412184187E-01  2.36939757609E-01
  2.40520643476E-01  2.44155647502E-01  2.47845587579E-01  2.51591293959E-01
  2.55393609441E-01  2.59253389563E-01  2.63171502792E-01  2.67148830718E-01
  2.71186268259E-01  2.75284723854E-01  2.79445119673E-01  2.83668391823E-01
  2.87955490559E-01  2.92307380494E-01  2.96725040823E-01  3.01209465538E-01
  3.05761663653E-01  3.10382659433E-01  3.15073492621E-01  3.19835218674E-01
  3.24668909000E-01  3.29575651200E-01  3.34556549313E-01  3.39612724060E-01
  3.44745313103E-01  3.49955471296E-01  3.55244370946E-01  3.60613202079E-01
  3.66063172703E-01  3.71595509085E-01  3.77211456025E-01  3.82912277134E-01
  3.88699255120E-01  3.94573692079E-01  4.00536909783E-01  4.06590249982E-01
  4.12735074702E-01  4.18972766555E-01  4.25304729048E-01  4.31732386899E-01
  4.38257186359E-01  4.44880595535E-01  4.51604104722E-01  4.58429226737E-01
  4.65357497263E-01  4.72390475188E-01  4.79529742963E-01  4.86776906954E-01
  4.94133597802E-01  5.01601470795E-01  5.09182206234E-01  5.16877509818E-01
  5.24689113022E-01  5.32618773491E-01  5.40668275430E-01  5.48839430012E-01
  5.57134075782E-01  5.65554079069E-01  5.74101334409E-01  5.82777764972E-01
  5.91585322991E-01  6.00525990203E-01  6.09601778296E-01  6.18814729361E-01
  6.28166916351E-01  6.37660443548E-01  6.47297447034E-01  6.57080095176E-01
  6.67010589113E-01  6.77091163245E-01  6.87324085746E-01  6.97711659066E-01
  7.08256220452E-01  7.18960142477E-01  7.29825833566E-01  7.40855738547E-01
  7.52052339195E-01  7.63418154791E-01  7.74955742693E-01  7.86667698907E-01
  7.98556658672E-01  8.10625297053E-01  8.22876329547E-01  8.35312512686E-01
  8.47936644665E-01  8.60751565966E-01  8.73760160000E-01  8.86965353757E-01
  9.00370118460E-01  9.13977470238E-01  9.27790470803E-01  9.41812228139E-01
  9.56045897198E-01  9.70494680618E-01  9.85161829436E-01  1.00005064382E+00
  1.01516447382E+00  1.03050672011E+00  1.04608083476E+00  1.06189032201E+00
  1.07793873906E+00  1.09422969687E+00  1.11076686098E+00  1.12755395233E+00
  1.14459474807E+00  1.16189308245E+00  1.17945284769E+00  1.19727799478E+00
  1.21537253448E+00  1.23374053813E+00  1.25238613860E+00  1.27131353124E+00
  1.29052697478E+00  1.31003079234E+00  1.32982937235E+00  1.34992716958E+00
  1.37032870612E+00  1.39103857240E+00  1.41206142823E+00  1.43340200384E+00
  1.45506510094E+00  1.47705559383E+00  1.49937843046E+00  1.52203863357E+00
  1.54504130178E+00  1.56839161081E+00  1.59209481457E+00  1.61615624638E+00
  1.64058132016E+00  1.66537553165E+00  1.69054445967E+00  1.71609376733E+00
  1.74202920332E+00  1.76835660323E+00  1.79508189084E+00  1.82221107945E+00
  1.84975027324E+00  1.87770566864E+00  1.90608355574E+00  1.93489031968E+00
  1.96413244210E+00  1.99381650262E+00  2.02394918025E+00  2.05453725499E+00
  2.08558760928E+00  2.11710722958E+00  2.14910320794E+00  2.18158274359E+00
  2.21455314456E+00  2.24802182933E+00  2.28199632849E+00  2.31648428646E+00
  2.35149346316E+00  2.38703173581E+00  2.42310710067E+00  2.45972767486E+00
  2.49690169814E+00  2.53463753485E+00  2.57294367569E+00  2.61182873971E+00
  2.65130147622E+00  2.69137076675E+00  2.73204562705E+00  2.77333520914E+00
  2.81524880336E+00  2.85779584043E+00  2.90098589363E+00  2.94482868089E+00
  2.98933406703E+00  3.03451206594E+00  3.08037284287E+00  3.12692671668E+00
  3.17418416220E+00  3.22215581255E+00  3.27085246154E+00  3.32028506614E+00
  3.37046474889E+00  3.42140280043E+00  3.47311068202E+00  3.52560002818E+00
  3.57888264921E+00  3.63297053394E+00  3.68787585237E+00  3.74361095842E+00
  3.80018839273E+00  3.85762088546E+00  3.91592135917E+00  3.97510293170E+00
  4.03517891916E+00  4.09616283890E+00  4.15806841256E+00  4.22090956916E+00
  4.28470044822E+00  4.34945540295E+00  4.41518900350E+00  4.48191604020E+00
  4.54965152691E+00  4.61841070442E+00  4.68820904382E+00  4.75906225003E+00
  4.83098626532E+00  4.90399727291E+00  4.97811170057E+00  5.05334622436E+00
  5.12971777238E+00  5.20724352853E+00  5.28594093645E+00  5.36582770338E+00
  5.44692180418E+00  5.52924148536E+00  5.61280526920E+00  5.69763195791E+00
  5.78374063785E+00  5.87115068383E+00  5.95988176348E+00  6.04995384168E+00
  6.14138718501E+00  6.23420236636E+00  6.32842026955E+00  6.42406209400E+00
  6.52114935953E+00  6.61970391116E+00  6.71974792411E+00  6.82130390869E+00
  6.92439471542E+00  7.02904354018E+00  7.13527392939E+00  7.24310978534E+00
  7.35257537154E+00  7.46369531823E+00  7.57649462784E+00  7.69099868071E+00
  7.80723324073E+00  7.92522446117E+00  8.04499889055E+00  8.16658347861E+00
  8.29000558242E+00  8.41529297245E+00  8.54247383890E+00  8.67157679801E+00
  8.80263089847E+00  8.93566562803E+00  9.07071092005E+00  9.20779716030E+00
  9.34695519375E+00  9.48821633155E+00  9.63161235806E+00  9.77717553798E+00
  9.92493862364E+00  1.00749348624E+01  1.02271980039E+01  1.03817623082E+01
  1.05386625528E+01  1.06979340409E+01  1.08596126093E+01  1.10237346364E+01
  1.11903370503E+01  1.13594573372E+01  1.15311335499E+01  1.17054043164E+01
  1.18823088481E+01  1.20618869496E+01  1.22441790264E+01  1.24292260952E+01
  1.26170697923E+01  1.28077523833E+01  1.30013167727E+01  1.31978065132E+01
  1.33972658158E+01  1.35997395597E+01  1.38052733024E+01  1.40139132899E+01
  1.42257064670E+01  1.44407004880E+01  1.46589437276E+01  1.48804852913E+01
  1.51053750271E+01  1.53336635359E+01  1.55654021837E+01  1.58006431127E+01
  1.60394392530E+01  1.62818443348E+01  1.65279129003E+01  1.67777003160E+01
  1.70312627849E+01  1.72886573599E+01  1.75499419557E+01  1.78151753625E+01
  1.80844172589E+01  1.83577282254E+01  1.86351697583E+01  1.89168042830E+01
  1.92026951684E+01  1.94929067413E+01  1.97875043004E+01  2.00865541315E+01
  2.03901235220E+01  2.06982807763E+01  2.10110952311E+01  2.13286372710E+01
  2.16509783443E+01  2.19781909790E+01  2.23103487994E+01  2.26475265424E+01
  2.29898000744E+01  2.33372464084E+01  2.36899437213E+01  2.40479713715E+01
  2.44114099168E+01  2.47803411322E+01  2.51548480289E+01  2.55350148726E+01
  2.59209272023E+01  2.63126718500E+01  2.67103369599E+01  2.71140120083E+01
  2.75237878238E+01  2.79397566076E+01  2.83620119546E+01  2.87906488739E+01
  2.92257638106E+01  2.96674546675E+01  3.01158208269E+01  3.05709631730E+01
  3.10329841148E+01  3.15019876090E+01  3.19780791832E+01  3.24613659602E+01
  3.29519566815E+01  3.34499617320E+01  3.39554931651E+01  3.44686647273E+01
  3.49895918846E+01  3.55183918476E+01  3.60551835986E+01  3.66000879181E+01
  3.71532274118E+01  3.77147265383E+01  3.82847116374E+01  3.88633109582E+01
  3.94506546879E+01  4.00468749813E+01  4.06521059906E+01  4.12664838952E+01
  4.18901469328E+01  4.25232354301E+01  4.31658918348E+01  4.38182607473E+01
  4.44804889534E+01  4.51527254571E+01  4.58351215145E+01  4.65278306676E+01
  4.72310087789E+01  4.79448140664E+01  4.86694071394E+01  4.94049510343E+01
  5.01516112516E+01  5.09095557931E+01  5.16789551993E+01  5.24599825885E+01
  5.32528136951E+01  5.40576269095E+01  5.48746033179E+01  5.57039267436E+01
  5.65457837878E+01  5.74003638720E+01  5.82678592801E+01  5.91484652025E+01
  6.00423797790E+01  6.09498041443E+01  6.18709424726E+01  6.28060020240E+01
  6.37551931909E+01  6.47187295452E+01  6.56968278866E+01  6.66897082915E+01
  6.76975941621E+01  6.87207122770E+01  6.97592928421E+01  7.08135695424E+01
  7.18837795946E+01  7.29701638004E+01  7.40729666009E+01  7.51924361314E+01
  7.63288242773E+01  7.74823867307E+01  7.86533830479E+01  7.98420767081E+01
  8.10487351725E+01  8.22736299442E+01  8.35170366297E+01  8.47792350008E+01
  8.60605090574E+01  8.73611470917E+01  8.86814417526E+01  9.00216901120E+01
  9.13821937315E+01  9.27632587301E+01  9.41651958532E+01  9.55883205427E+01
  9.70329530076E+01  9.84994182962E+01  9.99880463695E+01
  </PP_R>
  <PP_RAB>
  2.86009866538E-06  2.90332352132E-06  2.94720163730E-06  2.99174288608E-06
  3.03695728963E-06  3.08285502138E-06  3.12944640852E-06  3.17674193431E-06
  3.22475224043E-06  3.27348812941E-06  3.32296056702E-06  3.37318068479E-06
  3.42415978244E-06  3.47590933049E-06  3.52844097280E-06  3.58176652921E-06
  3.63589799821E-06  3.69084755959E-06  3.74662757724E-06  3.80325060191E-06
  3.86072937401E-06  3.91907682650E-06  3.97830608781E-06  4.03843048478E-06
  4.09946354564E-06  4.16141900310E-06  4.22431079738E-06  4.28815307942E-06
  4.35296021399E-06  4.41874678297E-06  4.48552758863E-06  4.55331765691E-06
  4.62213224087E-06  4.69198682409E-06  4.76289712414E-06  4.83487909614E-06
  4.90794893633E-06  4.98212308573E-06  5.05741823385E-06  5.13385132241E-06
  5.21143954917E-06  5.29020037182E-06  5.37015151187E-06  5.45131095866E-06
  5.53369697342E-06  5.61732809334E-06  5.70222313578E-06  5.78840120249E-06
  5.87588168388E-06  5.96468426345E-06  6.05482892213E-06  6.14633594287E-06
  6.23922591512E-06  6.33351973953E-06  6.42923863260E-06  6.52640413148E-06
  6.62503809883E-06  6.72516272770E-06  6.82680054656E-06  6.92997442433E-06
  7.03470757559E-06  7.14102356574E-06  7.24894631631E-06  7.35850011038E-06
  7.46970959803E-06  7.58259980184E-06  7.69719612260E-06  7.81352434496E-06
  7.93161064326E-06  8.05148158742E-06  8.17316414891E-06  8.29668570680E-06
  8.42207405399E-06  8.54935740336E-06  8.67856439422E-06  8.80972409868E-06
  8.94286602823E-06  9.07802014037E-06  9.21521684533E-06  9.35448701296E-06
  9.49586197964E-06  9.63937355532E-06  9.78505403072E-06  9.93293618455E-06
  1.00830532909E-05  1.02354391268E-05  1.03901279797E-05  1.05471546553E-05
  1.07065544851E-05  1.08683633348E-05  1.10326176122E-05  1.11993542750E-05
  1.13686108398E-05  1.15404253900E-05  1.17148365847E-05  1.18918836669E-05
  1.20716064732E-05  1.22540454418E-05  1.24392416224E-05  1.26272366848E-05
  1.28180729287E-05  1.30117932932E-05  1.32084413660E-05  1.34080613938E-05
  1.36106982920E-05  1.38163976548E-05  1.40252057653E-05  1.42371696063E-05
  1.44523368705E-05  1.46707559714E-05  1.48924760544E-05  1.51175470073E-05
  1.53460194721E-05  1.55779448559E-05  1.58133753431E-05  1.60523639065E-05
  1.62949643194E-05  1.65412311681E-05  1.67912198636E-05  1.70449866543E-05
  1.73025886390E-05  1.75640837791E-05  1.78295309122E-05  1.80989897649E-05
  1.83725209667E-05  1.86501860633E-05  1.89320475303E-05  1.92181687880E-05
  1.95086142147E-05  1.98034491618E-05  2.01027399686E-05  2.04065539767E-05
  2.07149595456E-05  2.10280260677E-05  2.13458239844E-05  2.16684248016E-05
  2.19959011057E-05  2.23283265804E-05  2.26657760228E-05  2.30083253604E-05
  2.33560516682E-05  2.37090331863E-05  2.40673493368E-05  2.44310807424E-05
  2.48003092443E-05  2.51751179204E-05  2.55555911043E-05  2.59418144039E-05
  2.63338747213E-05  2.67318602715E-05  2.71358606031E-05  2.75459666178E-05
  2.79622705912E-05  2.83848661934E-05  2.88138485103E-05  2.92493140647E-05
  2.96913608381E-05  3.01400882930E-05  3.05955973949E-05  3.10579906353E-05
  3.15273720546E-05  3.20038472656E-05  3.24875234773E-05  3.29785095188E-05
  3.34769158641E-05  3.39828546567E-05  3.44964397349E-05  3.50177866576E-05
  3.55470127301E-05  3.60842370304E-05  3.66295804362E-05  3.71831656522E-05
  3.77451172373E-05  3.83155616331E-05  3.88946271918E-05  3.94824442058E-05
  4.00791449362E-05  4.06848636434E-05  4.12997366165E-05  4.19239022046E-05
  4.25575008476E-05  4.32006751078E-05  4.38535697021E-05  4.45163315347E-05
  4.51891097296E-05  4.58720556649E-05  4.65653230062E-05  4.72690677416E-05
  4.79834482167E-05  4.87086251701E-05  4.94447617697E-05  5.01920236492E-05
  5.09505789458E-05  5.17205983376E-05  5.25022550823E-05  5.32957250558E-05
  5.41011867923E-05  5.49188215241E-05  5.57488132224E-05  5.65913486389E-05
  5.74466173475E-05  5.83148117875E-05  5.91961273061E-05  6.00907622030E-05
  6.09989177750E-05  6.19207983608E-05  6.28566113875E-05  6.38065674170E-05
  6.47708801932E-05  6.57497666908E-05  6.67434471633E-05  6.77521451929E-05
  6.87760877411E-05  6.98155051991E-05  7.08706314404E-05  7.19417038727E-05
  7.30289634919E-05  7.41326549360E-05  7.52530265401E-05  7.63903303928E-05
  7.75448223920E-05  7.87167623034E-05  7.99064138185E-05  8.11140446137E-05
  8.23399264112E-05  8.35843350395E-05  8.48475504958E-05  8.61298570090E-05
  8.74315431033E-05  8.87529016637E-05  9.00942300013E-05  9.14558299208E-05
  9.28380077879E-05  9.42410745984E-05  9.56653460483E-05  9.71111426046E-05
  9.85787895777E-05  1.00068617194E-04  1.01580960672E-04  1.03116160294E-04
  1.04674561488E-04  1.06256514899E-04  1.07862376475E-04  1.09492507540E-04
  1.11147274881E-04  1.12827050828E-04  1.14532213338E-04  1.16263146079E-04
  1.18020238518E-04  1.19803886009E-04  1.21614489879E-04  1.23452457523E-04
  1.25318202490E-04  1.27212144582E-04  1.29134709943E-04  1.31086331159E-04
  1.33067447352E-04  1.35078504282E-04  1.37119954445E-04  1.39192257177E-04
  1.41295878753E-04  1.43431292499E-04  1.45598978890E-04  1.47799425666E-04
  1.50033127937E-04  1.52300588294E-04  1.54602316926E-04  1.56938831731E-04
  1.59310658436E-04  1.61718330711E-04  1.64162390292E-04  1.66643387104E-04
  1.69161879381E-04  1.71718433795E-04  1.74313625580E-04  1.76948038667E-04
  1.79622265809E-04  1.82336908719E-04  1.85092578202E-04  1.87889894296E-04
  1.90729486410E-04  1.93611993462E-04  1.96538064029E-04  1.99508356490E-04
  2.02523539173E-04  2.05584290507E-04  2.08691299174E-04  2.11845264263E-04
  2.15046895430E-04  2.18296913056E-04  2.21596048409E-04  2.24945043807E-04
  2.28344652789E-04  2.31795640281E-04  2.35298782770E-04  2.38854868478E-04
  2.42464697539E-04  2.46129082180E-04  2.49848846903E-04  2.53624828670E-04
  2.57457877094E-04  2.61348854627E-04  2.65298636754E-04  2.69308112194E-04
  2.73378183095E-04  2.77509765240E-04  2.81703788254E-04  2.85961195808E-04
  2.90282945838E-04  2.94670010755E-04  2.99123377668E-04  3.03644048603E-04
  3.08233040730E-04  3.12891386591E-04  3.17620134334E-04  3.22420347948E-04
  3.27293107500E-04  3.32239509382E-04  3.37260666555E-04  3.42357708801E-04
  3.47531782976E-04  3.52784053268E-04  3.58115701460E-04  3.63527927196E-04
  3.69021948250E-04  3.74599000798E-04  3.80260339702E-04  3.86007238787E-04
  3.91840991129E-04  3.97762909347E-04  4.03774325897E-04  4.09876593375E-04
  4.16071084815E-04  4.22359194005E-04  4.28742335795E-04  4.35221946419E-04
  4.41799483817E-04  4.48476427964E-04  4.55254281198E-04  4.62134568566E-04
  4.69118838162E-04  4.76208661476E-04  4.83405633747E-04  4.90711374326E-04
  4.98127527034E-04  5.05655760536E-04  5.13297768719E-04  5.21055271065E-04
  5.28930013044E-04  5.36923766509E-04  5.45038330086E-04  5.53275529586E-04
  5.61637218415E-04  5.70125277988E-04  5.78741618153E-04  5.87488177624E-04
  5.96366924413E-04  6.05379856277E-04  6.14529001162E-04  6.23816417665E-04
  6.33244195493E-04  6.42814455937E-04  6.52529352346E-04  6.62391070611E-04
  6.72401829662E-04  6.82563881962E-04  6.92879514014E-04  7.03351046880E-04
  7.13980836699E-04  7.24771275219E-04  7.35724790333E-04  7.46843846629E-04
  7.58130945940E-04  7.69588627914E-04  7.81219470575E-04  7.93026090913E-04
  8.05011145467E-04  8.17177330924E-04  8.29527384729E-04  8.42064085695E-04
  8.54790254633E-04  8.67708754984E-04  8.80822493466E-04  8.94134420724E-04
  9.07647532000E-04  9.21364867799E-04  9.35289514581E-04  9.49424605449E-04
  9.63773320859E-04  9.78338889332E-04  9.93124588183E-04  1.00813374426E-03
  1.02336973467E-03  1.03883598760E-03  1.05453598301E-03  1.07047325346E-03
  1.08665138490E-03  1.10307401750E-03  1.11974484640E-03  1.13666762262E-03
  1.15384615385E-03  1.17128430533E-03  1.18898600072E-03  1.20695522297E-03
  1.22519601524E-03  1.24371248179E-03  1.26250878889E-03  1.28158916580E-03
  1.30095790567E-03  1.32061936656E-03  1.34057797238E-03  1.36083821390E-03
  1.38140464976E-03  1.40228190749E-03  1.42347468457E-03  1.44498774945E-03
  1.46682594268E-03  1.48899417793E-03  1.51149744315E-03  1.53434080168E-03
  1.55752939336E-03  1.58106843572E-03  1.60496322515E-03  1.62921913808E-03
  1.65384163219E-03  1.67883624764E-03  1.70420860833E-03  1.72996442314E-03
  1.75610948725E-03  1.78264968341E-03  1.80959098326E-03  1.83693944872E-03
  1.86470123330E-03  1.89288258353E-03  1.92148984032E-03  1.95052944044E-03
  1.98000791791E-03  2.00993190551E-03  2.04030813627E-03  2.07114344497E-03
  2.10244476968E-03  2.13421915334E-03  2.16647374531E-03  2.19921580301E-03
  2.23245269354E-03  2.26619189535E-03  2.30044099990E-03  2.33520771337E-03
  2.37049985844E-03  2.40632537597E-03  2.44269232686E-03  2.47960889383E-03
  2.51708338327E-03  2.55512422708E-03  2.59373998463E-03  2.63293934461E-03
  2.67273112706E-03  2.71312428528E-03  2.75412790791E-03  2.79575122094E-03
  2.83800358980E-03  2.88089452143E-03  2.92443366648E-03  2.96863082145E-03
  3.01349593087E-03  3.05903908960E-03  3.10527054502E-03  3.15220069941E-03
  3.19984011227E-03  3.24819950264E-03  3.29728975161E-03  3.34712190468E-03
  3.39770717431E-03  3.44905694238E-03  3.50118276281E-03  3.55409636414E-03
  3.60780965214E-03  3.66233471253E-03  3.71768381369E-03  3.77386940938E-03
  3.83090414162E-03  3.88880084345E-03  3.94757254187E-03  4.00723246077E-03
  4.06779402388E-03  4.12927085781E-03  4.19167679510E-03  4.25502587735E-03
  4.31933235838E-03  4.38461070741E-03  4.45087561234E-03  4.51814198307E-03
  4.58642495480E-03  4.65573989150E-03  4.72610238931E-03  4.79752828010E-03
  4.87003363500E-03  4.94363476800E-03  5.01834823969E-03  5.09419086090E-03
  5.17117969654E-03  5.24933206944E-03  5.32866556419E-03  5.40919803118E-03
  5.49094759054E-03  5.57393263628E-03  5.65817184038E-03  5.74368415701E-03
  5.83048882680E-03  5.91860538119E-03  6.00805364675E-03  6.09885374972E-03
  6.19102612053E-03  6.28459149832E-03  6.37957093572E-03  6.47598580349E-03
  6.57385779539E-03  6.67320893303E-03  6.77406157083E-03  6.87643840106E-03
  6.98036245894E-03  7.08585712782E-03  7.19294614445E-03  7.30165360431E-03
  7.41200396703E-03  7.52402206192E-03  7.63773309351E-03  7.75316264727E-03
  7.87033669534E-03  7.98928160236E-03  8.11002413145E-03  8.23259145018E-03
  8.35701113672E-03  8.48331118603E-03  8.61152001614E-03  8.74166647458E-03
  8.87377984486E-03  9.00788985304E-03  9.14402667444E-03  9.28222094042E-03
  9.42250374527E-03  9.56490665321E-03  9.70946170551E-03  9.85620142765E-03
  1.00051588367E-02  1.01563674487E-02  1.03098612862E-02  1.04656748860E-02
  1.06238433068E-02  1.07844021371E-02  1.09473875035E-02  1.11128360782E-02
  1.12807850879E-02  1.14512723219E-02  1.16243361404E-02  1.18000154836E-02
  1.19783498801E-02  1.21593794558E-02  1.23431449432E-02  1.25296876903E-02
  1.27190496700E-02  1.29112734895E-02  1.31064024000E-02  1.33044803064E-02
  1.35055517769E-02  1.37096620536E-02  1.39168570621E-02  1.41271834221E-02
  1.43406884580E-02  1.45574202093E-02  1.47774274415E-02  1.50007596573E-02
  1.52274671073E-02  1.54576008016E-02  1.56912125213E-02  1.59283548301E-02
  1.61690810858E-02  1.64134454531E-02  1.66615029148E-02  1.69133092849E-02
  1.71689212210E-02  1.74283962368E-02  1.76917927153E-02  1.79591699218E-02
  1.82305880172E-02  1.85061080719E-02  1.87857920790E-02  1.90697029685E-02
  1.93579046217E-02  1.96504618851E-02  1.99474405853E-02  2.02489075438E-02
  2.05549305919E-02  2.08655785861E-02  2.11809214235E-02  2.15010300576E-02
  2.18259765141E-02  2.21558339075E-02  2.24906764570E-02  2.28305795035E-02
  2.31756195268E-02  2.35258741622E-02  2.38814222185E-02  2.42423436956E-02