<PP_INFO>
Generated using unknown code
Author: X. Gonze et al (Phys. Rev. B 44, 8503 (1991))
Info: automatically converted from PWSCF format                                 
    1        The Pseudo was generated with a Scalar-Relativistic Calculation
  0.00000000000E+00    Local Potential cutoff radius
nl pn  l   occ               Rcut            Rcut US             E pseu
4S  0  0  2.00      0.00000000000      0.00000000000      0.00000000000
4P  0  1  3.00      0.00000000000      0.00000000000      0.00000000000
</PP_INFO>


<PP_HEADER>
   0                   Version Number
  As                   Element
   NC                  Norm - Conserving pseudopotential
    F                  Nonlinear Core Correction
 SLA  PZ   NOGX NOGC   PZ   Exchange-Correlation functional
    5.00000000000      Z valence
    0.00000000000      Total energy
  0.0000000  0.0000000 Suggested cutoff for wfc and rho
    1                  Max angular momentum component
  525                  Number of points in mesh
    2    2             Number of Wavefunctions, Number of Projectors
 Wavefunctions         nl  l   occ
                       4S  0  2.00
                       4P  1  3.00
</PP_HEADER>


<PP_MESH>
  <PP_R>
  2.04180212093E-04  2.09349058771E-04  2.14648755426E-04  2.20082614540E-04
  2.25654032452E-04  2.31366491481E-04  2.37223562098E-04  2.43228905163E-04
  2.49386274213E-04  2.55699517802E-04  2.62172581913E-04  2.68809512422E-04
  2.75614457627E-04  2.82591670840E-04  2.89745513047E-04  2.97080455631E-04
  3.04601083171E-04  3.12312096303E-04  3.20218314662E-04  3.28324679892E-04
  3.36636258735E-04  3.45158246197E-04  3.53895968800E-04  3.62854887903E-04
  3.72040603123E-04  3.81458855831E-04  3.91115532742E-04  4.01016669592E-04
  4.11168454915E-04  4.21577233907E-04  4.32249512394E-04  4.43191960897E-04
  4.54411418802E-04  4.65914898637E-04  4.77709590450E-04  4.89802866308E-04
  5.02202284902E-04  5.14915596272E-04  5.27950746651E-04  5.41315883434E-04
  5.55019360265E-04  5.69069742263E-04  5.83475811375E-04  5.98246571863E-04
  6.13391255933E-04  6.28919329506E-04  6.44840498133E-04  6.61164713062E-04
  6.77902177460E-04  6.95063352786E-04  7.12658965334E-04  7.30700012934E-04
  7.49197771828E-04  7.68163803719E-04  7.87609962993E-04  8.07548404132E-04
  8.27991589312E-04  8.48952296189E-04  8.70443625886E-04  8.92479011185E-04
  9.15072224919E-04  9.38237388581E-04  9.61988981154E-04  9.86341848155E-04
  1.01131121092E-03  1.03691267611E-03  1.06316224548E-03  1.09007632586E-03
  1.11767173943E-03  1.14596573422E-03  1.17497599490E-03  1.20472065382E-03
  1.23521830237E-03  1.26648800257E-03  1.29854929900E-03  1.33142223101E-03
  1.36512734526E-03  1.39968570854E-03  1.43511892094E-03  1.47144912939E-03
  1.50869904145E-03  1.54689193952E-03  1.58605169541E-03  1.62620278523E-03
  1.66737030474E-03  1.70957998496E-03  1.75285820833E-03  1.79723202513E-03
  1.84272917046E-03  1.88937808151E-03  1.93720791535E-03  1.98624856721E-03
  2.03653068908E-03  2.08808570893E-03  2.14094585032E-03  2.19514415255E-03
  2.25071449134E-03  2.30769159996E-03  2.36611109094E-03  2.42600947839E-03
  2.48742420072E-03  2.55039364416E-03  2.61495716665E-03  2.68115512249E-03
  2.74902888756E-03  2.81862088517E-03  2.88997461259E-03  2.96313466822E-03
  3.03814677948E-03  3.11505783137E-03  3.19391589581E-03  3.27477026166E-03
  3.35767146553E-03  3.44267132336E-03  3.52982296283E-03  3.61918085657E-03
  3.71080085615E-03  3.80474022707E-03  3.90105768448E-03  3.99981342993E-03
  4.10106918899E-03  4.20488824979E-03  4.31133550262E-03  4.42047748049E-03
  4.53238240069E-03  4.64712020742E-03  4.76476261556E-03  4.88538315545E-03
  5.00905721884E-03  5.13586210604E-03  5.26587707426E-03  5.39918338706E-03
  5.53586436523E-03  5.67600543885E-03  5.81969420063E-03  5.96702046073E-03
  6.11807630287E-03  6.27295614185E-03  6.43175678263E-03  6.59457748076E-03
  6.76152000450E-03  6.93268869834E-03  7.10819054830E-03  7.28813524874E-03
  7.47263527096E-03  7.66180593348E-03  7.85576547412E-03  8.05463512391E-03
  8.25853918285E-03  8.46760509762E-03  8.68196354122E-03  8.90174849465E-03
  9.12709733067E-03  9.35815089964E-03  9.59505361755E-03  9.83795355631E-03
  1.00870025363E-02  1.03423562212E-02  1.06041742155E-02  1.08726201638E-02
  1.11478618537E-02  1.14300713201E-02  1.17194249532E-02  1.20161036083E-02
  1.23202927194E-02  1.26321824145E-02  1.29519676348E-02  1.32798482565E-02
  1.36160292157E-02  1.39607206363E-02  1.43141379618E-02  1.46765020896E-02
  1.50480395088E-02  1.54289824427E-02  1.58195689928E-02  1.62200432885E-02
  1.66306556392E-02  1.70516626911E-02  1.74833275873E-02  1.79259201323E-02
  1.83797169610E-02  1.88450017111E-02  1.93220652007E-02  1.98112056100E-02
  2.03127286677E-02  2.08269478422E-02  2.13541845369E-02  2.18947682922E-02
  2.24490369904E-02  2.30173370674E-02  2.36000237294E-02  2.41974611745E-02
  2.48100228205E-02  2.54380915385E-02  2.60820598917E-02  2.67423303814E-02
  2.74193156981E-02  2.81134389797E-02  2.88251340758E-02  2.95548458190E-02
  3.03030303030E-02  3.10701551674E-02  3.18566998902E-02  3.26631560874E-02
  3.34900278205E-02  3.43378319111E-02  3.52070982645E-02  3.60983702004E-02
  3.70122047927E-02  3.79491732179E-02  3.89098611117E-02  3.98948689354E-02
  4.09048123508E-02  4.19403226055E-02  4.30020469271E-02  4.40906489278E-02
  4.52068090194E-02  4.63512248383E-02  4.75246116815E-02  4.87277029541E-02
  4.99612506273E-02  5.12260257085E-02  5.25228187233E-02  5.38524402095E-02
  5.52157212240E-02  5.66135138616E-02  5.80466917883E-02  5.95161507870E-02
  6.10228093173E-02  6.25676090899E-02  6.41515156549E-02  6.57755190056E-02
  6.74406341967E-02  6.91479019797E-02  7.08983894523E-02  7.26931907263E-02
  7.45334276108E-02  7.64202503139E-02  7.83548381611E-02  8.03384003328E-02
  8.23721766200E-02  8.44574381990E-02  8.65954884262E-02  8.87876636525E-02
  9.10353340590E-02  9.33399045127E-02  9.57028154451E-02  9.81255437527E-02
  1.00609603719E-01  1.03156547963E-01  1.05767968408E-01  1.08445497276E-01
  1.11190808110E-01  1.14005616818E-01  1.16891682748E-01  1.19850809785E-01
  1.22884847480E-01  1.25995692205E-01  1.29185288338E-01  1.32455629483E-01
  1.35808759707E-01  1.39246774827E-01  1.42771823715E-01  1.46386109640E-01
  1.50091891648E-01  1.53891485975E-01  1.57787267490E-01  1.61781671184E-01
  1.65877193689E-01  1.70076394839E-01  1.74381899273E-01  1.78796398070E-01
  1.83322650437E-01  1.87963485427E-01  1.92721803715E-01  1.97600579404E-01
  2.02602861887E-01  2.07731777755E-01  2.12990532745E-01  2.18382413752E-01
  2.23910790877E-01  2.29579119534E-01  2.35390942615E-01  2.41349892698E-01
  2.47459694320E-01  2.53724166307E-01  2.60147224157E-01  2.66732882491E-01
  2.73485257559E-01  2.80408569815E-01  2.87507146556E-01  2.94785424623E-01
  3.02247953176E-01  3.09899396539E-01  3.17744537113E-01  3.25788278366E-01
  3.34035647898E-01  3.42491800584E-01  3.51162021795E-01  3.60051730700E-01
  3.69166483658E-01  3.78511977685E-01  3.88094054020E-01  3.97918701772E-01
  4.07992061667E-01  4.18320429881E-01  4.28910261981E-01  4.39768176957E-01
  4.50900961360E-01  4.62315573541E-01  4.74019148006E-01  4.86018999868E-01
  4.98322629427E-01  5.10937726851E-01  5.23872176987E-01  5.37134064287E-01
  5.50731677862E-01  5.64673516664E-01  5.78968294795E-01  5.93624946957E-01
  6.08652634036E-01  6.24060748824E-01  6.39858921895E-01  6.56057027622E-01
  6.72665190347E-01  6.89693790713E-01  7.07153472150E-01  7.25055147527E-01
  7.43410005973E-01  7.62229519873E-01  7.81525452036E-01  8.01309863047E-01
  8.21595118808E-01  8.42393898263E-01  8.63719201326E-01  8.85584357007E-01
  9.08003031739E-01  9.30989237924E-01  9.54557342689E-01  9.78722076867E-01
  1.00349854420E+00  1.02890223080E+00  1.05494901478E+00  1.08165517623E+00
  1.10903740738E+00  1.13711282302E+00  1.16589897118E+00  1.19541384416E+00
  1.22567588970E+00  1.25670402257E+00  1.28851763637E+00  1.32113661563E+00
  1.35458134828E+00  1.38887273837E+00  1.42403221914E+00  1.46008176640E+00
  1.49704391229E+00  1.53494175936E+00  1.57379899499E+00  1.61363990623E+00
  1.65448939494E+00  1.69637299338E+00  1.73931688017E+00  1.78334789662E+00
  1.82849356356E+00  1.87478209850E+00  1.92224243328E+00  1.97090423215E+00
  2.02079791033E+00  2.07195465299E+00  2.12440643475E+00  2.17818603969E+00
  2.23332708181E+00  2.28986402605E+00  2.34783220986E+00  2.40726786522E+00
  2.46820814136E+00  2.53069112794E+00  2.59475587885E+00  2.66044243666E+00
  2.72779185759E+00  2.79684623723E+00  2.86764873682E+00  2.94024361021E+00
  3.01467623157E+00  3.09099312372E+00  3.16924198719E+00  3.24947173006E+00
  3.33173249855E+00  3.41607570831E+00  3.50255407658E+00  3.59122165517E+00
  3.68213386420E+00  3.77534752676E+00  3.87092090443E+00  3.96891373366E+00
  4.06938726318E+00  4.17240429221E+00  4.27802920974E+00  4.38632803479E+00
  4.49736845765E+00  4.61121988220E+00  4.72795346928E+00  4.84764218119E+00
  4.97036082727E+00  5.09618611066E+00  5.22519667627E+00  5.35747315989E+00
  5.49309823864E+00  5.63215668260E+00  5.77473540784E+00  5.92092353068E+00
  6.07081242348E+00  6.22449577166E+00  6.38206963232E+00  6.54363249426E+00
  6.70928533952E+00  6.87913170652E+00  7.05327775478E+00  7.23183233123E+00
  7.41490703831E+00  7.60261630366E+00  7.79507745169E+00  7.99241077688E+00
  8.19473961897E+00  8.40219044009E+00  8.61489290376E+00  8.83297995592E+00
  9.05658790809E+00  9.28585652253E+00  9.52092909957E+00  9.76195256723E+00
  1.00090775730E+01  1.02624585781E+01  1.05222539539E+01  1.07886260809E+01
  1.10617414505E+01  1.13417707685E+01  1.16288890625E+01  1.19232757906E+01
  1.22251149543E+01  1.25345952128E+01  1.28519100014E+01  1.31772576520E+01
  1.35108415177E+01  1.38528700991E+01  1.42035571752E+01  1.45631219370E+01
  1.49317891240E+01  1.53097891654E+01  1.56973583233E+01  1.60947388412E+01
  1.65021790947E+01  1.69199337474E+01  1.73482639095E+01  1.77874373013E+01
  1.82377284204E+01  1.86994187134E+01  1.91727967519E+01  1.96581584125E+01
  2.01558070620E+01  2.06660537470E+01  2.11892173884E+01  2.17256249804E+01
  2.22756117952E+01  2.28395215926E+01  2.34177068344E+01  2.40105289053E+01
  2.46183583384E+01  2.52415750469E+01  2.58805685614E+01  2.65357382738E+01
  2.72074936864E+01  2.78962546682E+01  2.86024517173E+01  2.93265262298E+01
  3.00689307759E+01  3.08301293825E+01  3.16105978236E+01  3.24108239174E+01
  3.32313078312E+01  3.40725623941E+01  3.49351134177E+01  3.58195000244E+01
  3.67262749846E+01  3.76560050623E+01  3.86092713689E+01  3.95866697270E+01
  4.05888110423E+01  4.16163216857E+01  4.26698438850E+01  4.37500361257E+01
  4.48575735632E+01  4.59931484444E+01  4.71574705405E+01  4.83512675909E+01
  4.95752857575E+01  5.08302900914E+01  5.21170650114E+01  5.34364147935E+01
  5.47891640744E+01  5.61761583664E+01  5.75982645860E+01  5.90563715960E+01
  6.05513907607E+01  6.20842565158E+01  6.36559269521E+01  6.52673844150E+01
  6.69196361178E+01  6.86137147716E+01  7.03506792306E+01  7.21316151543E+01
  7.39576356856E+01  7.58298821467E+01  7.77495247526E+01  7.97177633424E+01
  8.17358281293E+01  8.38049804696E+01  8.59265136507E+01  8.81017537001E+01
  9.03320602134E+01  9.26188272049E+01  9.49634839784E+01  9.73674960208E+01
  9.98323659177E+01
  </PP_R>
  <PP_RAB>
  5.10450530234E-06  5.23372646928E-06  5.36621888565E-06  5.50206536350E-06
  5.64135081131E-06  5.78416228702E-06  5.93058905244E-06  6.08072262909E-06
  6.23465685532E-06  6.39248794504E-06  6.55431454782E-06  6.72023781055E-06
  6.89036144068E-06  7.06479177101E-06  7.24363782617E-06  7.42701139077E-06
  7.61502707927E-06  7.80780240758E-06  8.00545786656E-06  8.20811699730E-06
  8.41590646837E-06  8.62895615493E-06  8.84739922000E-06  9.07137219758E-06
  9.30101507808E-06  9.53647139578E-06  9.77788831855E-06  1.00254167398E-05
  1.02792113729E-05  1.05394308477E-05  1.08062378098E-05  1.10797990224E-05
  1.13602854701E-05  1.16478724659E-05  1.19427397613E-05  1.22450716577E-05
  1.25550571225E-05  1.28728899068E-05  1.31987686663E-05  1.35328970858E-05
  1.38754840066E-05  1.42267435566E-05  1.45868952844E-05  1.49561642966E-05
  1.53347813983E-05  1.57229832377E-05  1.61210124533E-05  1.65291178265E-05
  1.69475544365E-05  1.73765838196E-05  1.78164741333E-05  1.82675003233E-05
  1.87299442957E-05  1.92040950930E-05  1.96902490748E-05  2.01887101033E-05
  2.06997897328E-05  2.12238074047E-05  2.17610906472E-05  2.23119752796E-05
  2.28768056230E-05  2.34559347145E-05  2.40497245288E-05  2.46585462039E-05
  2.52827802730E-05  2.59228169028E-05  2.65790561370E-05  2.72519081465E-05
  2.79417934858E-05  2.86491433555E-05  2.93743998725E-05  3.01180163456E-05
  3.08804575594E-05  3.16622000643E-05  3.24637324750E-05  3.32855557753E-05
  3.41281836315E-05  3.49921427134E-05  3.58779730236E-05  3.67862282349E-05
  3.77174760363E-05  3.86722984880E-05  3.96512923852E-05  4.06550696309E-05
  4.16842576185E-05  4.27394996241E-05  4.38214552082E-05  4.49308006284E-05
  4.60682292615E-05  4.72344520376E-05  4.84301978839E-05  4.96562141803E-05
  5.09132672271E-05  5.22021427232E-05  5.35236462579E-05  5.48786038138E-05
  5.62678622836E-05  5.76922899989E-05  5.91527772736E-05  6.06502369596E-05
  6.21856050181E-05  6.37598411040E-05  6.53739291662E-05  6.70288780622E-05
  6.87257221889E-05  7.04655221293E-05  7.22493653148E-05  7.40783667056E-05
  7.59536694870E-05  7.78764457843E-05  7.98478973954E-05  8.18692565415E-05
  8.39417866381E-05  8.60667830839E-05  8.82455740708E-05  9.04795214142E-05
  9.27700214038E-05  9.51185056767E-05  9.75264421120E-05  9.99953357484E-05
  1.02526729725E-04  1.05122206245E-04  1.07783387566E-04  1.10511937012E-04
  1.13309560017E-04  1.16178005186E-04  1.19119065389E-04  1.22134578886E-04
  1.25226430471E-04  1.28396552651E-04  1.31646926856E-04  1.34979584676E-04
  1.38396609131E-04  1.41900135971E-04  1.45492355016E-04  1.49175511518E-04
  1.52951907572E-04  1.56823903546E-04  1.60793919566E-04  1.64864437019E-04
  1.69038000112E-04  1.73317217459E-04  1.77704763707E-04  1.82203381218E-04
  1.86815881774E-04  1.91545148337E-04  1.96394136853E-04  2.01365878098E-04
  2.06463479571E-04  2.11690127440E-04  2.17049088530E-04  2.22543712366E-04
  2.28177433267E-04  2.33953772491E-04  2.39876340439E-04  2.45948838908E-04
  2.52175063408E-04  2.58558905531E-04  2.65104355387E-04  2.71815504095E-04
  2.78696546342E-04  2.85751783002E-04  2.92985623829E-04  3.00402590208E-04
  3.08007317985E-04  3.15804560363E-04  3.23799190870E-04  3.31996206413E-04
  3.40400730392E-04  3.49018015908E-04  3.57853449046E-04  3.66912552239E-04
  3.76200987721E-04  3.85724561066E-04  3.95489224819E-04  4.05501082211E-04
  4.15766390980E-04  4.26291567278E-04  4.37083189682E-04  4.48148003308E-04
  4.59492924025E-04  4.71125042777E-04  4.83051630016E-04  4.95280140250E-04
  5.07818216694E-04  5.20673696054E-04  5.33854613423E-04  5.47369207305E-04
  5.61225924759E-04  5.75433426686E-04  5.90000593236E-04  6.04936529363E-04
  6.20250570514E-04  6.35952288462E-04  6.52051497292E-04  6.68558259534E-04
  6.85482892451E-04  7.02835974491E-04  7.20628351894E-04  7.38871145476E-04
  7.57575757576E-04  7.76753879185E-04  7.96417497255E-04  8.16578902185E-04
  8.37250695512E-04  8.58445797778E-04  8.80177456612E-04  9.02459255009E-04
  9.25305119818E-04  9.48729330448E-04  9.72746527794E-04  9.97371723385E-04
  1.02262030877E-03  1.04850806514E-03  1.07505117318E-03  1.10226622320E-03
  1.13017022549E-03  1.15878062096E-03  1.18811529204E-03  1.21819257385E-03
  1.24903126568E-03  1.28065064271E-03  1.31307046808E-03  1.34631100524E-03
  1.38039303060E-03  1.41533784654E-03  1.45116729471E-03  1.48790376967E-03
  1.52557023293E-03  1.56419022725E-03  1.60378789137E-03  1.64438797514E-03
  1.68601585492E-03  1.72869754949E-03  1.77245973631E-03  1.81732976816E-03
  1.86333569027E-03  1.91050625785E-03  1.95887095403E-03  2.00846000832E-03
  2.05930441550E-03  2.11143595497E-03  2.16488721065E-03  2.21969159131E-03
  2.27588335147E-03  2.33349761282E-03  2.39257038613E-03  2.45313859382E-03
  2.51524009298E-03  2.57891369908E-03  2.64419921020E-03  2.71113743190E-03
  2.77977020274E-03  2.85014042045E-03  2.92229206871E-03  2.99627024464E-03
  3.07212118700E-03  3.14989230512E-03  3.22963220846E-03  3.31139073707E-03
  3.39521899268E-03  3.48116937069E-03  3.56929559287E-03  3.65965274099E-03
  3.75229729121E-03  3.84728714938E-03  3.94468168726E-03  4.04454177960E-03
  4.14692984222E-03  4.25190987098E-03  4.35954748182E-03  4.46990995176E-03
  4.58306626092E-03  4.69908713569E-03  4.81804509288E-03  4.94001448510E-03
  5.06507154718E-03  5.19329444386E-03  5.32476331863E-03  5.45956034380E-03
  5.59776977192E-03  5.73947798836E-03  5.88477356538E-03  6.03374731745E-03
  6.18649235801E-03  6.34310415767E-03  6.50368060392E-03  6.66832206226E-03
  6.83713143897E-03  7.01021424538E-03  7.18767866391E-03  7.36963561558E-03
  7.55619882941E-03  7.74748491348E-03  7.94361342782E-03  8.14470695915E-03
  8.35089119746E-03  8.56229501461E-03  8.77905054487E-03  9.00129326750E-03
  9.22916209144E-03  9.46279944213E-03  9.70235135050E-03  9.94796754431E-03
  1.01998015417E-02  1.04580107470E-02  1.07227565495E-02  1.09942044239E-02
  1.12725240340E-02  1.15578893385E-02  1.18504787001E-02  1.21504749967E-02
  1.24580657357E-02  1.27734431713E-02  1.30968044247E-02  1.34283516072E-02
  1.37682919465E-02  1.41168379166E-02  1.44742073699E-02  1.48406236739E-02
  1.52163158509E-02  1.56015187206E-02  1.59964730474E-02  1.64014256905E-02
  1.68166297587E-02  1.72423447678E-02  1.76788368037E-02  1.81263786882E-02
  1.85852501493E-02  1.90557379968E-02  1.95381363009E-02  2.00327465762E-02
  2.05398779702E-02  2.10598474566E-02  2.15929800332E-02  2.21396089252E-02
  2.27000757935E-02  2.32747309481E-02  2.38639335672E-02  2.44680519217E-02
  2.50874636051E-02  2.57225557699E-02  2.63737253694E-02  2.70413794058E-02
  2.77259351846E-02  2.84278205755E-02  2.91474742796E-02  2.98853461039E-02
  3.06418972425E-02  3.14176005643E-02  3.22129409091E-02  3.30284153907E-02
  3.38645337070E-02  3.47218184593E-02  3.56008054785E-02  3.65020441599E-02
  3.74260978072E-02  3.83735439840E-02  3.93449748749E-02  4.03409976559E-02
  4.13622348736E-02  4.24093248346E-02  4.34829220041E-02  4.45836974154E-02
  4.57123390889E-02  4.68695524624E-02  4.80560608319E-02  4.92726058038E-02
  5.05199477583E-02  5.17988663247E-02  5.31101608687E-02  5.44546509922E-02
  5.58331770451E-02  5.72466006513E-02  5.86958052464E-02  6.01816966305E-02
  6.17052035341E-02  6.32672781985E-02  6.48688969714E-02  6.65110609165E-02
  6.81947964398E-02  6.99211559308E-02  7.16912184204E-02  7.35060902553E-02
  7.53669057893E-02  7.72748280930E-02  7.92310496796E-02  8.12367932515E-02
  8.32933124637E-02  8.54018927076E-02  8.75638519145E-02  8.97805413793E-02
  9.20533466051E-02  9.43836881691E-02  9.67730226106E-02  9.92228433415E-02
  1.01734681579E-01  1.04310107305E-01  1.06950730244E-01  1.09658200870E-01
  1.12434211441E-01  1.15280497055E-01  1.18198836732E-01  1.21191054530E-01
  1.24259020682E-01  1.27404652767E-01  1.30629916907E-01  1.33936828997E-01
  1.37327455966E-01  1.40803917065E-01  1.44368385196E-01  1.48023088267E-01
  1.51770310587E-01  1.55612394292E-01  1.59551740808E-01  1.63590812357E-01
  1.67732133488E-01  1.71978292663E-01  1.76331943869E-01  1.80795808281E-01
  1.85372675958E-01  1.90065407592E-01  1.94876936292E-01  1.99810269422E-01
  2.04868490474E-01  2.10054761002E-01  2.15372322594E-01  2.20824498898E-01
  2.26414697702E-01  2.32146413063E-01  2.38023227489E-01  2.44048814181E-01
  2.50226939325E-01  2.56561464453E-01  2.63056348848E-01  2.69715652023E-01
  2.76543536262E-01  2.83544269212E-01  2.90722226561E-01  2.98081894766E-01
  3.05627873858E-01  3.13364880320E-01  3.21297750034E-01  3.29431441300E-01
  3.37771037941E-01  3.46321752476E-01  3.55088929381E-01  3.64078048425E-01
  3.73294728101E-01  3.82744729134E-01  3.92433958082E-01  4.02368471029E-01
  4.12554477368E-01  4.22998343686E-01  4.33706597738E-01  4.44685932532E-01
  4.55943210509E-01  4.67485467835E-01  4.79319918797E-01  4.91453960311E-01
  5.03895176549E-01  5.16651343675E-01  5.29730434709E-01  5.43140624509E-01
  5.56890294880E-01  5.70988039814E-01  5.85442670860E-01  6.00263222633E-01
  6.15458958460E-01  6.31039376172E-01  6.47014214035E-01  6.63393456844E-01
  6.80187342159E-01  6.97406366705E-01  7.15061292933E-01  7.33163155746E-01
  7.51723269398E-01  7.70753234564E-01  7.90264945591E-01  8.10270597935E-01
  8.30782695779E-01  8.51814059852E-01  8.73377835442E-01  8.95487500610E-01
  9.18156874616E-01  9.41400126557E-01  9.65231784222E-01  9.89666743174E-01
  1.01472027606E+00  1.04040804214E+00  1.06674609712E+00  1.09375090314E+00
  1.12143933908E+00  1.14982871111E+00  1.17893676351E+00  1.20878168977E+00
  1.23938214394E+00  1.27075725229E+00  1.30292662528E+00  1.33591036984E+00
  1.36972910186E+00  1.40440395916E+00  1.43995661465E+00  1.47640928990E+00
  1.51378476902E+00  1.55210641289E+00  1.59139817380E+00  1.63168461038E+00
  1.67299090294E+00  1.71534286929E+00  1.75876698077E+00  1.80329037886E+00
  1.84894089214E+00  1.89574705367E+00  1.94373811881E+00  1.99294408356E+00
  2.04339570323E+00  2.09512451174E+00  2.14816284127E+00  2.20254384250E+00
  2.25830150533E+00  2.31547068012E+00  2.37408709946E+00  2.43418740052E+00
  2.49580914794E+00
  </PP_RAB>
</PP_MESH>


<PP_LOCAL>
 -4.83243159397E+00 -4.83243160584E+00 -4.83243161842E+00 -4.83243163169E+00
 -4.83243164566E+00 -4.83243166027E+00 -4.83243167558E+00 -4.83243169182E+00
 -4.83243170875E+00 -4.83243172657E+00 -4.83243174531E+00 -4.83243176510E+00
 -4.83243178582E+00 -4.83243180771E+00 -4.83243183052E+00 -4.83243185468E+00
 -4.83243188000E+00 -4.83243190666E+00 -4.83243193466E+00 -4.83243196411E+00
 -4.83243199502E+00 -4.83243202756E+00 -4.83243206172E+00 -4.83243209776E+00
 -4.83243213547E+00 -4.83243217529E+00 -4.83243221702E+00 -4.83243226091E+00
 -4.83243230707E+00 -4.83243235562E+00 -4.83243240661E+00 -4.83243246027E+00
 -4.83243251668E+00 -4.83243257593E+00 -4.83243263827E+00 -4.83243270381E+00
 -4.83243277261E+00 -4.83243284508E+00 -4.83243292122E+00 -4.83243300120E+00
 -4.83243308536E+00 -4.83243317372E+00 -4.83243326674E+00 -4.83243336447E+00
 -4.83243346709E+00 -4.83243357524E+00 -4.83243368869E+00 -4.83243380813E+00
 -4.83243393362E+00 -4.83243406558E+00 -4.83243420417E+00 -4.83243435004E+00
 -4.83243450330E+00 -4.83243466442E+00 -4.83243483386E+00 -4.83243501192E+00
 -4.83243519912E+00 -4.83243539592E+00 -4.83243560285E+00 -4.83243582031E+00
 -4.83243604901E+00 -4.83243628935E+00 -4.83243654208E+00 -4.83243680780E+00
 -4.83243708708E+00 -4.83243738062E+00 -4.83243768936E+00 -4.83243801381E+00
 -4.83243835490E+00 -4.83243871352E+00 -4.83243909059E+00 -4.83243948681E+00
 -4.83243990352E+00 -4.83244034153E+00 -4.83244080201E+00 -4.83244128601E+00
 -4.83244179492E+00 -4.83244232991E+00 -4.83244289237E+00 -4.83244348364E+00
 -4.83244410512E+00 -4.83244475850E+00 -4.83244544565E+00 -4.83244616765E+00
 -4.83244692680E+00 -4.83244772494E+00 -4.83244856395E+00 -4.83244944597E+00
 -4.83245037327E+00 -4.83245134802E+00 -4.83245237288E+00 -4.83245345013E+00
 -4.83245458273E+00 -4.83245577337E+00 -4.83245702507E+00 -4.83245834080E+00
 -4.83245972410E+00 -4.83246117836E+00 -4.83246270713E+00 -4.83246431430E+00
 -4.83246600389E+00 -4.83246778004E+00 -4.83246964723E+00 -4.83247161028E+00
 -4.83247367392E+00 -4.83247584337E+00 -4.83247812401E+00 -4.83248052164E+00
 -4.83248304215E+00 -4.83248569188E+00 -4.83248847746E+00 -4.83249140583E+00
 -4.83249448444E+00 -4.83249772078E+00 -4.83250112302E+00 -4.83250469988E+00
 -4.83250845992E+00 -4.83251241274E+00 -4.83251656825E+00 -4.83252093697E+00
 -4.83252552943E+00 -4.83253035753E+00 -4.83253543306E+00 -4.83254076884E+00
 -4.83254637814E+00 -4.83255227510E+00 -4.83255847421E+00 -4.83256499126E+00
 -4.83257184242E+00 -4.83257904486E+00 -4.83258661651E+00 -4.83259457623E+00
 -4.83260294417E+00 -4.83261174103E+00 -4.83262098889E+00 -4.83263071085E+00
 -4.83264093118E+00 -4.83265167550E+00 -4.83266297058E+00 -4.83267484483E+00
 -4.83268732770E+00 -4.83270045038E+00 -4.83271424600E+00 -4.83272874873E+00
 -4.83274399489E+00 -4.83276002255E+00 -4.83277687198E+00 -4.83279458503E+00
 -4.83281320607E+00 -4.83283278177E+00 -4.83285336086E+00 -4.83287499478E+00
 -4.83289773762E+00 -4.83292164630E+00 -4.83294678049E+00 -4.83297320287E+00
 -4.83300097962E+00 -4.83303018007E+00 -4.83306087722E+00 -4.83309314767E+00
 -4.83312707214E+00 -4.83316273533E+00 -4.83320022613E+00 -4.83323963865E+00
 -4.83328107075E+00 -4.83332462620E+00 -4.83337041386E+00 -4.83341854782E+00
 -4.83346914843E+00 -4.83352234191E+00 -4.83357826114E+00 -4.83363704564E+00
 -4.83369884227E+00 -4.83376380493E+00 -4.83383209613E+00 -4.83390388603E+00
 -4.83397935372E+00 -4.83405868767E+00 -4.83414208563E+00 -4.83422975562E+00
 -4.83432191616E+00 -4.83441879711E+00 -4.83452064008E+00 -4.83462769899E+00
 -4.83474024024E+00 -4.83485854475E+00 -4.83498290693E+00 -4.83511363680E+00
 -4.83525105973E+00 -4.83539551788E+00 -4.83554737095E+00 -4.83570699679E+00
 -4.83587479265E+00 -4.83605117578E+00 -4.83623658482E+00 -4.83643148094E+00
 -4.83663634839E+00 -4.83685169602E+00 -4.83707805898E+00 -4.83731599909E+00
 -4.83756610699E+00 -4.83782900323E+00 -4.83810533985E+00 -4.83839580178E+00
 -4.83870110888E+00 -4.83902201738E+00 -4.83935932146E+00 -4.83971385588E+00
 -4.84008649737E+00 -4.84047816682E+00 -4.84088983171E+00 -4.84132250829E+00
 -4.84177726385E+00 -4.84225521935E+00 -4.84275755222E+00 -4.84328549885E+00
 -4.84384035767E+00 -4.84442349209E+00 -4.84503633383E+00 -4.84568038606E+00
 -4.84635722672E+00 -4.84706851270E+00 -4.84781598300E+00 -4.84860146331E+00
 -4.84942686942E+00 -4.85029421205E+00 -4.85120560147E+00 -4.85216325166E+00
 -4.85316948564E+00 -4.85422674037E+00 -4.85533757223E+00 -4.85650466249E+00
 -4.85773082287E+00 -4.85901900195E+00 -4.86037229095E+00 -4.86179393018E+00
 -4.86328731664E+00 -4.86485600966E+00 -4.86650373897E+00 -4.86823441199E+00
 -4.87005212123E+00 -4.87196115276E+00 -4.87396599393E+00 -4.87607134227E+00
 -4.87828211376E+00 -4.88060345210E+00 -4.88304073794E+00 -4.88559959794E+00
 -4.88828591461E+00 -4.89110583632E+00 -4.89406578674E+00 -4.89717247547E+00
 -4.90043290821E+00 -4.90385439660E+00 -4.90744456957E+00 -4.91121138301E+00
 -4.91516313044E+00 -4.91930845339E+00 -4.92365635140E+00 -4.92821619223E+00
 -4.93299772136E+00 -4.93801107153E+00 -4.94326677121E+00 -4.94877575326E+00
 -4.95454936248E+00 -4.96059936238E+00 -4.96693794092E+00 -4.97357771528E+00
 -4.98053173517E+00 -4.98781348550E+00 -4.99543688586E+00 -5.00341628946E+00
 -5.01176647935E+00 -5.02050266264E+00 -5.02964046173E+00 -5.03919590259E+00
 -5.04918540060E+00 -5.05962574179E+00 -5.07053406100E+00 -5.08192781580E+00
 -5.09382475540E+00 -5.10624288482E+00 -5.11920042476E+00 -5.13271576382E+00
 -5.14680740685E+00 -5.16149391560E+00 -5.17679384316E+00 -5.19272566156E+00
 -5.20930768206E+00 -5.22655796778E+00 -5.24449423898E+00 -5.26313377125E+00
 -5.28249328502E+00 -5.30258882890E+00 -5.32343565533E+00 -5.34504808940E+00
 -5.36743939290E+00 -5.39062162186E+00 -5.41460548143E+00 -5.43940017768E+00
 -5.46501326852E+00 -5.49145051558E+00 -5.51871574001E+00 -5.54681068298E+00
 -5.57573487569E+00 -5.60548552114E+00 -5.63605738932E+00 -5.66744273220E+00
 -5.69963121967E+00 -5.73260989954E+00 -5.76636318531E+00 -5.80087287381E+00
 -5.83611819259E+00 -5.87207587843E+00 -5.90872028447E+00 -5.94602351042E+00
 -5.98395555106E+00 -6.02248444947E+00 -6.06157644198E+00 -6.10119607244E+00
 -6.14130625120E+00 -6.18186822534E+00 -6.22284142007E+00 -6.26418310503E+00
 -6.30584782930E+00 -6.34778656517E+00 -6.38994549256E+00 -6.43226435321E+00
 -6.47467430291E+00 -6.51709519376E+00 -6.55943222687E+00 -6.60157193278E+00
 -6.64337746295E+00 -6.68468320929E+00 -6.72528881808E+00 -6.76495272468E+00
 -6.80338540766E+00 -6.84024264786E+00 -6.87511917236E+00 -6.90754316541E+00
 -6.93697222808E+00 -6.96279146042E+00 -6.98431440983E+00 -7.00078766589E+00
 -7.01139986587E+00 -7.01529579341E+00 -7.01159608821E+00 -6.99942282042E+00
 -6.97793082020E+00 -6.94634418262E+00 -6.90399681476E+00 -6.85037527609E+00
 -6.78516153988E+00 -6.70827273139E+00 -6.61989446184E+00 -6.52050416318E+00
 -6.41088092683E+00 -6.29209883527E+00 -6.16550169310E+00 -6.03265841236E+00
 -5.89530002101E+00 -5.75524120852E+00 -5.61429129381E+00 -5.47416123710E+00
 -5.33637453380E+00 -5.20219025544E+00 -5.07254594350E+00 -4.94802644270E+00
 -4.82886217138E+00 -4.71495704146E+00 -4.60594269410E+00 -4.50125245035E+00
 -4.40020594038E+00 -4.30209422273E+00 -4.20625557998E+00 -4.11213404580E+00
 -4.01931574978E+00 -3.92754179484E+00 -3.83669992009E+00 -3.74679999983E+00
 -3.65794002316E+00 -3.57026941517E+00 -3.48395554105E+00 -3.39915737530E+00
 -3.31600814607E+00 -3.23460678649E+00 -3.15501660619E+00 -3.07726888863E+00
 -3.00136907390E+00 -2.92730360645E+00 -2.85504616691E+00 -2.78456264671E+00
 -2.71581472428E+00 -2.64876220747E+00 -2.58336443825E+00 -2.51958106268E+00
 -2.45737241324E+00 -2.39669967599E+00 -2.33752494904E+00 -2.27981125119E+00
 -2.22352251017E+00 -2.16862354350E+00 -2.11508003732E+00 -2.06285852510E+00
 -2.01192636663E+00 -1.96225172764E+00 -1.91380355986E+00 -1.86655158160E+00
 -1.82046625885E+00 -1.77551878677E+00 -1.73168107173E+00 -1.68892571373E+00
 -1.64722598928E+00 -1.60655583470E+00 -1.56688982981E+00 -1.52820318207E+00
 -1.49047171106E+00 -1.45367183340E+00 -1.41778054795E+00 -1.38277542149E+00
 -1.34863457469E+00 -1.31533666840E+00 -1.28286089035E+00 -1.25118694211E+00
 -1.22029502644E+00 -1.19016583489E+00 -1.16078053572E+00 -1.13212076218E+00
 -1.10416860097E+00 -1.07690658107E+00 -1.05031766285E+00 -1.02438522735E+00
 -9.99093065974E-01 -9.74425370283E-01 -9.50366722169E-01 -9.26902084193E-01
 -9.04016790194E-01 -8.81696536116E-01 -8.59927371075E-01 -8.38695688634E-01