<PP_INFO>
Generated using Andrea Dal Corso code (rrkj3)
Author: Andrea Dal Corso   Generation date: unknown
Info:   C PBE 2s2 2p2 RRKJ3 US
    0        The Pseudo was generated with a Non-Relativistic Calculation
  1.70000000000E+00    Local Potential cutoff radius
nl pn  l   occ               Rcut            Rcut US             E pseu
2S  1  0  2.00      1.20000000000      1.60000000000      0.00000000000
2S  1  0  0.00      1.20000000000      1.60000000000      0.00000000000
2P  2  1  2.00      1.30000000000      1.70000000000      0.00000000000
2P  2  1  0.00      1.30000000000      1.70000000000      0.00000000000
3D  3  2 -2.00      1.70000000000      1.70000000000      0.00000000000
</PP_INFO>


<PP_HEADER>
   0                   Version Number
  C                    Element
   US                  Ultrasoft pseudopotential
    F                  Nonlinear Core Correction
 SLA  PW   PBE  PBE    PBE  Exchange-Correlation functional
    4.00000000000      Z valence
  -10.71556050100      Total energy
  0.0000000  0.0000000 Suggested cutoff for wfc and rho
    2                  Max angular momentum component
  627                  Number of points in mesh
    2    4             Number of Wavefunctions, Number of Projectors
 Wavefunctions         nl  l   occ
                       2S  0  2.00
                       2P  1  2.00
</PP_HEADER>


<PP_MESH>
  <PP_R>
  8.29784472798E-03  8.42325059152E-03  8.55055172199E-03  8.67977676266E-03
  8.81095478973E-03  8.94411531879E-03  9.07928831153E-03  9.21650418245E-03
  9.35579380569E-03  9.49718852201E-03  9.64072014581E-03  9.78642097231E-03
  9.93432378482E-03  1.00844618621E-02  1.02368689858E-02  1.03915794483E-02
  1.05486280599E-02  1.07080501574E-02  1.08698816114E-02  1.10341588345E-02
  1.12009187900E-02  1.13701989994E-02  1.15420375516E-02  1.17164731109E-02
  1.18935449261E-02  1.20732928390E-02  1.22557572938E-02  1.24409793457E-02
  1.26290006705E-02  1.28198635736E-02  1.30136110002E-02  1.32102865441E-02
  1.34099344583E-02  1.36125996642E-02  1.38183277625E-02  1.40271650429E-02
  1.42391584946E-02  1.44543558170E-02  1.46728054304E-02  1.48945564870E-02
  1.51196588816E-02  1.53481632632E-02  1.55801210463E-02  1.58155844224E-02
  1.60546063717E-02  1.62972406752E-02  1.65435419266E-02  1.67935655447E-02
  1.70473677859E-02  1.73050057568E-02  1.75665374270E-02  1.78320216422E-02
  1.81015181375E-02  1.83750875507E-02  1.86527914362E-02  1.89346922785E-02
  1.92208535063E-02  1.95113395074E-02  1.98062156421E-02  2.01055482589E-02
  2.04094047088E-02  2.07178533610E-02  2.10309636175E-02  2.13488059296E-02
  2.16714518131E-02  2.19989738646E-02  2.23314457781E-02  2.26689423611E-02
  2.30115395518E-02  2.33593144360E-02  2.37123452644E-02  2.40707114706E-02
  2.44344936884E-02  2.48037737704E-02  2.51786348061E-02  2.55591611408E-02
  2.59454383947E-02  2.63375534816E-02  2.67355946292E-02  2.71396513984E-02
  2.75498147036E-02  2.79661768334E-02  2.83888314709E-02  2.88178737153E-02
  2.92534001028E-02  2.96955086288E-02  3.01442987695E-02  3.05998715046E-02
  3.10623293399E-02  3.15317763303E-02  3.20083181035E-02  3.24920618832E-02
  3.29831165139E-02  3.34815924850E-02  3.39876019557E-02  3.45012587802E-02
  3.50226785335E-02  3.55519785372E-02  3.60892778860E-02  3.66346974746E-02
  3.71883600247E-02  3.77503901127E-02  3.83209141978E-02  3.89000606502E-02
  3.94879597804E-02  4.00847438681E-02  4.06905471922E-02  4.13055060612E-02
  4.19297588433E-02  4.25634459980E-02  4.32067101076E-02  4.38596959093E-02
  4.45225503276E-02  4.51954225076E-02  4.58784638483E-02  4.65718280369E-02
  4.72756710833E-02  4.79901513551E-02  4.87154296135E-02  4.94516690490E-02
  5.01990353187E-02  5.09576965831E-02  5.17278235442E-02  5.25095894839E-02
  5.33031703027E-02  5.41087445597E-02  5.49264935125E-02  5.57566011581E-02
  5.65992542742E-02  5.74546424612E-02  5.83229581852E-02  5.92043968208E-02
  6.00991566955E-02  6.10074391340E-02  6.19294485037E-02  6.28653922605E-02
  6.38154809959E-02  6.47799284836E-02  6.57589517286E-02  6.67527710151E-02
  6.77616099568E-02  6.87856955465E-02  6.98252582079E-02  7.08805318470E-02
  7.19517539048E-02  7.30391654108E-02  7.41430110372E-02  7.52635391538E-02
  7.64010018842E-02  7.75556551624E-02  7.87277587902E-02  7.99175764958E-02
  8.11253759933E-02  8.23514290427E-02  8.35960115110E-02  8.48594034346E-02
  8.61418890819E-02  8.74437570178E-02  8.87653001678E-02  9.01068158849E-02
  9.14686060157E-02  9.28509769687E-02  9.42542397833E-02  9.56787101994E-02
  9.71247087290E-02  9.85925607278E-02  1.00082596469E-01  1.01595151216E-01
  1.03130565301E-01  1.04689184198E-01  1.06271358604E-01  1.07877444513E-01
  1.09507803303E-01  1.11162801810E-01  1.12842812416E-01  1.14548213132E-01
  1.16279387679E-01  1.18036725578E-01  1.19820622239E-01  1.21631479045E-01
  1.23469703447E-01  1.25335709053E-01  1.27229915723E-01  1.29152749660E-01
  1.31104643511E-01  1.33086036460E-01  1.35097374328E-01  1.37139109676E-01
  1.39211701902E-01  1.41315617348E-01  1.43451329404E-01  1.45619318615E-01
  1.47820072786E-01  1.50054087098E-01  1.52321864212E-01  1.54623914388E-01
  1.56960755597E-01  1.59332913639E-01  1.61740922258E-01  1.64185323267E-01
  1.66666666667E-01  1.69185510769E-01  1.71742422326E-01  1.74337976651E-01
  1.76972757758E-01  1.79647358481E-01  1.82362380618E-01  1.85118435059E-01
  1.87916141930E-01  1.90756130725E-01  1.93639040455E-01  1.96565519785E-01
  1.99536227187E-01  2.02551831082E-01  2.05613009993E-01  2.08720452699E-01
  2.11874858387E-01  2.15076936812E-01  2.18327408456E-01  2.21627004687E-01
  2.24976467929E-01  2.28376551826E-01  2.31828021411E-01  2.35331653278E-01
  2.38888235760E-01  2.42498569103E-01  2.46163465647E-01  2.49883750009E-01
  2.53660259270E-01  2.57493843159E-01  2.61385364248E-01  2.65335698148E-01
  2.69345733699E-01  2.73416373176E-01  2.77548532491E-01  2.81743141397E-01
  2.86001143697E-01  2.90323497462E-01  2.94711175239E-01  2.99165164273E-01
  3.03686466732E-01  3.08276099926E-01  3.12935096544E-01  3.17664504879E-01
  3.22465389067E-01  3.27338829328E-01  3.32285922207E-01  3.37307780820E-01
  3.42405535107E-01  3.47580332084E-01  3.52833336102E-01  3.58165729109E-01
  3.63578710916E-01  3.69073499467E-01  3.74651331113E-01  3.80313460888E-01
  3.86061162797E-01  3.91895730096E-01  3.97818475587E-01  4.03830731914E-01
  4.09933851859E-01  4.16129208651E-01  4.22418196270E-01  4.28802229765E-01
  4.35282745571E-01  4.41861201830E-01  4.48539078725E-01  4.55317878804E-01
  4.62199127327E-01  4.69184372604E-01  4.76275186344E-01  4.83473164010E-01
  4.90779925178E-01  4.98197113899E-01  5.05726399073E-01  5.13369474820E-01
  5.21128060864E-01  5.29003902921E-01  5.36998773088E-01  5.45114470244E-01
  5.53352820456E-01  5.61715677387E-01  5.70204922715E-01  5.78822466556E-01
  5.87570247894E-01  5.96450235017E-01  6.05464425959E-01  6.14614848951E-01
  6.23903562877E-01  6.33332657737E-01  6.42904255116E-01  6.52620508665E-01
  6.62483604582E-01  6.72495762105E-01  6.82659234012E-01  6.92976307126E-01
  7.03449302833E-01  7.14080577600E-01  7.24872523510E-01  7.35827568796E-01
  7.46948178390E-01  7.58236854474E-01  7.69696137050E-01  7.81328604504E-01
  7.93136874190E-01  8.05123603018E-01  8.17291488054E-01  8.29643267123E-01
  8.42181719427E-01  8.54909666171E-01  8.67829971197E-01  8.80945541627E-01
  8.94259328520E-01  9.07774327535E-01  9.21493579604E-01  9.35420171616E-01
  9.49557237112E-01  9.63907956993E-01  9.78475560230E-01  9.93263324597E-01
  1.00827457740E+00  1.02351269624E+00  1.03898110975E+00  1.05468329840E+00
  1.07062279524E+00  1.08680318672E+00  1.10322811351E+00  1.11990127127E+00
  1.13682641155E+00  1.15400734256E+00  1.17144793010E+00  1.18915209836E+00
  1.20712383086E+00  1.22536717132E+00  1.24388622455E+00  1.26268515744E+00
  1.28176819981E+00  1.30113964544E+00  1.32080385297E+00  1.34076524695E+00
  1.36102831876E+00  1.38159762769E+00  1.40247780191E+00  1.42367353955E+00
  1.44518960974E+00  1.46703085370E+00  1.48920218578E+00  1.51170859464E+00
  1.53455514431E+00  1.55774697537E+00  1.58128930606E+00  1.60518743352E+00
  1.62944673492E+00  1.65407266871E+00  1.67907077584E+00  1.70444668097E+00
  1.73020609379E+00  1.75635481028E+00  1.78289871402E+00  1.80984377749E+00
  1.83719606344E+00  1.86496172626E+00  1.89314701333E+00  1.92175826647E+00
  1.95080192333E+00  1.98028451885E+00  2.01021268674E+00  2.04059316097E+00
  2.07143277726E+00  2.10273847467E+00  2.13451729711E+00  2.16677639495E+00
  2.19952302661E+00  2.23276456023E+00  2.26650847531E+00  2.30076236434E+00
  2.33553393462E+00  2.37083100989E+00  2.40666153213E+00  2.44303356338E+00
  2.47995528748E+00  2.51743501198E+00  2.55548116998E+00  2.59410232203E+00
  2.63330715804E+00  2.67310449928E+00  2.71350330030E+00  2.75451265101E+00
  2.79614177869E+00  2.83840005007E+00  2.88129697343E+00  2.92484220076E+00
  2.96904552994E+00  3.01391690688E+00  3.05946642784E+00  3.10570434165E+00
  3.15264105204E+00  3.20028711997E+00  3.24865326601E+00  3.29775037273E+00
  3.34758948720E+00  3.39818182342E+00  3.44953876490E+00  3.50167186715E+00
  3.55459286034E+00  3.60831365192E+00  3.66284632929E+00  3.71820316255E+00
  3.77439660720E+00  3.83143930701E+00  3.88934409682E+00  3.94812400547E+00
  4.00779225868E+00  4.06836228205E+00  4.12984770410E+00  4.19226235930E+00
  4.25562029123E+00  4.31993575567E+00  4.38522322388E+00  4.45149738581E+00
  4.51877315344E+00  4.58706566409E+00  4.65639028387E+00  4.72676261111E+00
  4.79819847987E+00  4.87071396354E+00  4.94432537839E+00  5.01904928732E+00
  5.09490250351E+00  5.17190209425E+00  5.25006538479E+00  5.32940996219E+00
  5.40995367931E+00  5.49171465883E+00  5.57471129732E+00  5.65896226937E+00
  5.74448653181E+00  5.83130332795E+00  5.91943219194E+00  6.00889295314E+00
  6.09970574061E+00  6.19189098761E+00  6.28546943620E+00  6.38046214193E+00
  6.47689047856E+00  6.57477614287E+00  6.67414115955E+00  6.77500788615E+00
  6.87739901810E+00  6.98133759385E+00  7.08684700001E+00  7.19395097664E+00
  7.30267362260E+00  7.41303940092E+00  7.52507314439E+00  7.63880006106E+00
  7.75424573996E+00  7.87143615688E+00  7.99039768014E+00  8.11115707658E+00
  8.23374151759E+00  8.35817858517E+00  8.48449627820E+00  8.61272301868E+00
  8.74288765818E+00  8.87501948429E+00  9.00914822722E+00  9.14530406651E+00
  9.28351763780E+00  9.42382003972E+00  9.56624284091E+00  9.71081808709E+00
  9.85757830831E+00  1.00065565262E+01  1.01577862616E+01  1.03113015417E+01
  1.04671369082E+01  1.06253274246E+01  1.07859086846E+01  1.09489168195E+01
  1.11143885068E+01  1.12823609785E+01  1.14528720290E+01  1.16259600240E+01
  1.18016639090E+01  1.19800232183E+01  1.21610780833E+01  1.23448692421E+01
  1.25314380487E+01  1.27208264816E+01  1.29130771542E+01  1.31082333236E+01
  1.33063389008E+01  1.35074384605E+01  1.37115772507E+01  1.39188012037E+01
  1.41291569456E+01  1.43426918075E+01  1.45594538356E+01  1.47794918022E+01
  1.50028552168E+01  1.52295943371E+01  1.54597601804E+01  1.56934045349E+01
  1.59305799717E+01  1.61713398562E+01  1.64157383603E+01  1.66638304749E+01
  1.69156720216E+01  1.71713196659E+01  1.74308309295E+01  1.76942642037E+01
  1.79616787619E+01  1.82331347736E+01  1.85086933176E+01  1.87884163957E+01
  1.90723669467E+01  1.93606088607E+01  1.96532069934E+01  1.99502271806E+01
  2.02517362531E+01  2.05578020517E+01  2.08684934425E+01  2.11838803323E+01
  2.15040336846E+01  2.18290255351E+01  2.21589290085E+01  2.24938183345E+01
  2.28337688644E+01  2.31788570887E+01  2.35291606536E+01  2.38847583789E+01
  2.42457302756E+01  2.46121575639E+01  2.49841226915E+01  2.53617093521E+01
  2.57450025043E+01  2.61340883907E+01  2.65290545572E+01  2.69299898729E+01
  2.73369845500E+01  2.77501301639E+01  2.81695196741E+01  2.85952474452E+01
  2.90274092675E+01  2.94661023794E+01  2.99114254886E+01  3.03634787948E+01
  3.08223640118E+01  3.12881843907E+01  3.17610447431E+01  3.22410514646E+01
  3.27283125586E+01  3.32229376611E+01  3.37250380647E+01  3.42347267441E+01
  3.47521183815E+01  3.52773293921E+01  3.58104779507E+01  3.63516840179E+01
  3.69010693674E+01  3.74587576131E+01  3.80248742373E+01  3.85995466187E+01
  3.91829040609E+01  3.97750778218E+01  4.03762011430E+01  4.09864092798E+01
  4.16058395316E+01  4.22346312728E+01  4.28729259843E+01  4.35208672850E+01
  4.41786009644E+01  4.48462750154E+01  4.55240396675E+01  4.62120474205E+01
  4.69104530792E+01  4.76194137878E+01  4.83390890653E+01  4.90696408418E+01
  4.98112334945E+01  5.05640338849E+01  5.13282113962E+01  5.21039379717E+01
  5.28913881530E+01  5.36907391197E+01  5.45021707293E+01  5.53258655573E+01
  5.61620089383E+01  5.70107890084E+01  5.78723967465E+01  5.87470260180E+01
  5.96348736181E+01  6.05361393165E+01  6.14510259016E+01  6.23797392267E+01
  6.33224882564E+01  6.42794851130E+01  6.52509451250E+01  6.62370868749E+01
  6.72381322488E+01  6.82543064861E+01  6.92858382303E+01  7.03329595805E+01
  7.13959061432E+01  7.24749170861E+01  7.35702351910E+01  7.46821069092E+01
  7.58107824166E+01  7.69565156698E+01  7.81195644637E+01  7.93001904892E+01
  8.04986593921E+01  8.17152408330E+01  8.29502085478E+01  8.42038404095E+01
  8.54764184905E+01  8.67682291262E+01  8.80795629796E+01  8.94107151062E+01
  9.07619850210E+01  9.21336767653E+01  9.35260989755E+01  9.49395649526E+01
  9.63743927323E+01  9.78309051570E+01  9.93094299480E+01
  </PP_R>
  <PP_RAB>
  1.24467670920E-04  1.26348758873E-04  1.28258275830E-04  1.30196651440E-04
  1.32164321846E-04  1.34161729782E-04  1.36189324673E-04  1.38247562737E-04
  1.40336907085E-04  1.42457827830E-04  1.44610802187E-04  1.46796314585E-04
  1.49014856772E-04  1.51266927931E-04  1.53553034788E-04  1.55873691724E-04
  1.58229420899E-04  1.60620752361E-04  1.63048224170E-04  1.65512382518E-04
  1.68013781849E-04  1.70552984991E-04  1.73130563273E-04  1.75747096663E-04
  1.78403173891E-04  1.81099392586E-04  1.83836359408E-04  1.86614690186E-04
  1.89435010057E-04  1.92297953605E-04  1.95204165003E-04  1.98154298162E-04
  2.01149016874E-04  2.04188994963E-04  2.07274916438E-04  2.10407475643E-04
  2.13587377418E-04  2.16815337254E-04  2.20092081456E-04  2.23418347304E-04
  2.26794883224E-04  2.30222448948E-04  2.33701815695E-04  2.37233766337E-04
  2.40819095576E-04  2.44458610128E-04  2.48153128899E-04  2.51903483171E-04
  2.55710516789E-04  2.59575086352E-04  2.63498061405E-04  2.67480324633E-04
  2.71522772062E-04  2.75626313261E-04  2.79791871543E-04  2.84020384177E-04
  2.88312802595E-04  2.92670092610E-04  2.97093234631E-04  3.01583223883E-04
  3.06141070632E-04  3.10767800414E-04  3.15464454263E-04  3.20232088944E-04
  3.25071777196E-04  3.29984607970E-04  3.34971686672E-04  3.40034135417E-04
  3.45173093277E-04  3.50389716540E-04  3.55685178966E-04  3.61060672059E-04
  3.66517405326E-04  3.72056606555E-04  3.77679522091E-04  3.83387417112E-04
  3.89181575920E-04  3.95063302224E-04  4.01033919438E-04  4.07094770975E-04
  4.13247220554E-04  4.19492652500E-04  4.25832472064E-04  4.32268105729E-04
  4.38801001542E-04  4.45432629432E-04  4.52164481543E-04  4.58998072569E-04
  4.65934940099E-04  4.72976644955E-04  4.80124771552E-04  4.87380928248E-04
  4.94746747709E-04  5.02223887276E-04  5.09814029336E-04  5.17518881703E-04
  5.25340178002E-04  5.33279678057E-04  5.41339168290E-04  5.49520462119E-04
  5.57825400371E-04  5.66255851691E-04  5.74813712967E-04  5.83500909753E-04
  5.92319396705E-04  6.01271158021E-04  6.10358207884E-04  6.19582590918E-04
  6.28946382649E-04  6.38451689970E-04  6.48100651615E-04  6.57895438640E-04
  6.67838254915E-04  6.77931337614E-04  6.88176957724E-04  6.98577420554E-04
  7.09135066249E-04  7.19852270327E-04  7.30731444202E-04  7.41775035735E-04
  7.52985529781E-04  7.64365448747E-04  7.75917353164E-04  7.87643842259E-04
  7.99547554541E-04  8.11631168396E-04  8.23897402688E-04  8.36349017372E-04
  8.48988814112E-04  8.61819636918E-04  8.74844372778E-04  8.88065952312E-04
  9.01487350433E-04  9.15111587010E-04  9.28941727555E-04  9.42980883908E-04
  9.57232214938E-04  9.71698927254E-04  9.86384275929E-04  1.00129156523E-03
  1.01642414935E-03  1.03178543320E-03  1.04737887312E-03  1.06320797771E-03
  1.07927630857E-03  1.09558748116E-03  1.11214516556E-03  1.12895308731E-03
  1.14601502826E-03  1.16333482744E-03  1.18091638185E-03  1.19876364744E-03
  1.21688063990E-03  1.23527143564E-03  1.25394017267E-03  1.27289105152E-03
  1.29212833623E-03  1.31165635527E-03  1.33147950252E-03  1.35160223827E-03
  1.37202909024E-03  1.39276465453E-03  1.41381359675E-03  1.43518065299E-03
  1.45687063093E-03  1.47888841092E-03  1.50123894703E-03  1.52392726824E-03
  1.54695847952E-03  1.57033776297E-03  1.59407037905E-03  1.61816166770E-03
  1.64261704954E-03  1.66744202715E-03  1.69264218625E-03  1.71822319698E-03
  1.74419081518E-03  1.77055088367E-03  1.79730933358E-03  1.82447218567E-03
  1.85204555170E-03  1.88003563580E-03  1.90844873584E-03  1.93729124490E-03
  1.96656965267E-03  1.99629054690E-03  2.02646061493E-03  2.05708664514E-03
  2.08817552853E-03  2.11973426022E-03  2.15176994106E-03  2.18428977922E-03
  2.21730109179E-03  2.25081130647E-03  2.28482796318E-03  2.31935871582E-03
  2.35441133396E-03  2.38999370458E-03  2.42611383387E-03  2.46277984901E-03
  2.50000000000E-03  2.53778266154E-03  2.57613633488E-03  2.61506964977E-03
  2.65459136636E-03  2.69471037721E-03  2.73543570926E-03  2.77677652589E-03
  2.81874212895E-03  2.86134196088E-03  2.90458560682E-03  2.94848279678E-03
  2.99304340780E-03  3.03827746622E-03  3.08419514989E-03  3.13080679048E-03
  3.17812287580E-03  3.22615405218E-03  3.27491112683E-03  3.32440507030E-03
  3.37464701894E-03  3.42564827739E-03  3.47742032116E-03  3.52997479917E-03
  3.58332353640E-03  3.63747853655E-03  3.69245198471E-03  3.74825625014E-03
  3.80490388905E-03  3.86240764738E-03  3.92078046373E-03  3.98003547222E-03
  4.04018600548E-03  4.10124559764E-03  4.16322798736E-03  4.22614712095E-03
  4.29001715546E-03  4.35485246194E-03  4.42066762858E-03  4.48747746410E-03
  4.55529700098E-03  4.62414149890E-03  4.69402644816E-03  4.76496757318E-03
  4.83698083601E-03  4.91008243992E-03  4.98428883311E-03  5.05961671231E-03
  5.13608302661E-03  5.21370498126E-03  5.29250004153E-03  5.37248593664E-03
  5.45368066375E-03  5.53610249201E-03  5.61976996669E-03  5.70470191332E-03
  5.79091744195E-03  5.87843595144E-03  5.96727713381E-03  6.05746097871E-03
  6.14900777789E-03  6.24193812976E-03  6.33627294404E-03  6.43203344647E-03
  6.52924118356E-03  6.62791802746E-03  6.72808618087E-03  6.82976818206E-03
  6.93298690991E-03  7.03776558906E-03  7.14412779516E-03  7.25209746015E-03
  7.36169887766E-03  7.47295670848E-03  7.58589598609E-03  7.70054212230E-03
  7.81692091297E-03  7.93505854382E-03  8.05498159632E-03  8.17671705366E-03
  8.30029230684E-03  8.42573516080E-03  8.55307384072E-03  8.68233699834E-03
  8.81355371841E-03  8.94675352525E-03  9.08196638938E-03  9.21922273426E-03
  9.35855344315E-03  9.49998986605E-03  9.64356382674E-03  9.78930762998E-03
  9.93725406874E-03  1.00874364316E-02  1.02398885102E-02  1.03946446069E-02
  1.05517395425E-02  1.07112086640E-02  1.08730878527E-02  1.10374135319E-02
  1.12042226758E-02  1.13735528171E-02  1.15454420557E-02  1.17199290676E-02
  1.18970531128E-02  1.20768540453E-02  1.22593723208E-02  1.24446490068E-02
  1.26327257914E-02  1.28236449926E-02  1.30174495679E-02  1.32141831244E-02
  1.34138899278E-02  1.36166149130E-02  1.38224036941E-02  1.40313025742E-02
  1.42433585567E-02  1.44586193549E-02  1.46771334035E-02  1.48989498690E-02
  1.51241186610E-02  1.53526904436E-02  1.55847166463E-02  1.58202494760E-02
  1.60593419286E-02  1.63020478008E-02  1.65484217026E-02  1.67985190691E-02
  1.70523961732E-02  1.73101101384E-02  1.75717189515E-02  1.78372814754E-02
  1.81068574629E-02  1.83805075697E-02  1.86582933683E-02  1.89402773616E-02
  1.92265229972E-02  1.95170946816E-02  1.98120577946E-02  2.01114787042E-02
  2.04154247814E-02  2.07239644153E-02  2.10371670286E-02  2.13551030932E-02
  2.16778441462E-02  2.20054628055E-02  2.23380327867E-02  2.26756289196E-02
  2.30183271647E-02  2.33662046305E-02  2.37193395909E-02  2.40778115028E-02
  2.44417010238E-02  2.48110900307E-02  2.51860616375E-02  2.55667002145E-02
  2.59530914068E-02  2.63453221542E-02  2.67434807103E-02  2.71476566623E-02
  2.75579409516E-02  2.79744258939E-02  2.83972052000E-02  2.88263739971E-02
  2.92620288500E-02  2.97042677827E-02  3.01531903011E-02  3.06088974145E-02
  3.10714916589E-02  3.15410771201E-02  3.20177594567E-02  3.25016459242E-02
  3.29928453991E-02  3.34914684035E-02  3.39976271296E-02  3.45114354652E-02
  3.50330090193E-02  3.55624651483E-02  3.60999229820E-02  3.66455034507E-02
  3.71993293122E-02  3.77615251797E-02  3.83322175498E-02  3.89115348305E-02
  3.94996073707E-02  4.00965674891E-02  4.07025495045E-02  4.13176897652E-02
  4.19421266803E-02  4.25760007510E-02  4.32194546014E-02  4.38726330115E-02
  4.45356829490E-02  4.52087536031E-02  4.58919964175E-02  4.65855651247E-02
  4.72896157806E-02  4.80043067996E-02  4.87297989901E-02  4.94662555909E-02
  5.02138423080E-02  5.09727273514E-02  5.17430814735E-02  5.25250780072E-02
  5.33188929051E-02  5.41247047788E-02  5.49426949394E-02  5.57730474382E-02
  5.66159491079E-02  5.74715896051E-02  5.83401614524E-02  5.92218600821E-02
  6.01168838802E-02  6.10254342307E-02  6.19477155615E-02  6.28839353895E-02
  6.38343043684E-02  6.47990363350E-02  6.57783483582E-02  6.67724607872E-02
  6.77815973016E-02  6.88059849614E-02  6.98458542581E-02  7.09014391666E-02
  7.19729771981E-02  7.30607094531E-02  7.41648806759E-02  7.52857393098E-02
  7.64235375526E-02  7.75785314138E-02  7.87509807719E-02  7.99411494328E-02
  8.11493051897E-02  8.23757198825E-02  8.36206694599E-02  8.48844340406E-02
  8.61672979771E-02  8.74695499192E-02  8.87914828791E-02  9.01333942971E-02
  9.14955861092E-02  9.28783648141E-02  9.42820415430E-02  9.57069321289E-02
  9.71533571783E-02  9.86216421430E-02  1.00112117393E-01  1.01625118292E-01
  1.03160985272E-01  1.04720063908E-01  1.06302705000E-01  1.07909264650E-01
  1.09540104339E-01  1.11195591014E-01  1.12876097166E-01  1.14582000916E-01
  1.16313686099E-01  1.18071542353E-01  1.19855965202E-01  1.21667356149E-01
  1.23506122764E-01  1.25372678778E-01  1.27267444173E-01  1.29190845280E-01
  1.31143314873E-01  1.33125292264E-01  1.35137223408E-01  1.37179560998E-01
  1.39252764567E-01  1.41357300596E-01  1.43493642614E-01  1.45662271306E-01
  1.47863674625E-01  1.50098347894E-01  1.52366793924E-01  1.54669523126E-01
  1.57007053623E-01  1.59379911370E-01  1.61788630269E-01  1.64233752292E-01
  1.66715827602E-01  1.69235414677E-01  1.71793080435E-01  1.74389400360E-01
  1.77024958636E-01  1.79700348274E-01  1.82416171249E-01  1.85173038632E-01
  1.87971570730E-01  1.90812397224E-01  1.93696157313E-01  1.96623499854E-01
  1.99595083513E-01  2.02611576907E-01  2.05673658761E-01  2.08782018055E-01
  2.11937354185E-01  2.15140377113E-01  2.18391807534E-01  2.21692377032E-01
  2.25042828251E-01  2.28443915056E-01  2.31896402705E-01  2.35401068024E-01
  2.38958699575E-01  2.42570097842E-01  2.46236075405E-01  2.49957457123E-01
  2.53735080324E-01  2.57569794988E-01  2.61462463943E-01  2.65413963055E-01
  2.69425181429E-01  2.73497021605E-01  2.77630399764E-01  2.81826245935E-01
  2.86085504200E-01  2.90409132911E-01  2.94798104902E-01  2.99253407710E-01
  3.03776043797E-01  3.08367030775E-01  3.13027401637E-01  3.17758204984E-01
  3.22560505268E-01  3.27435383027E-01  3.32383935128E-01  3.37407275017E-01
  3.42506532966E-01  3.47682856330E-01  3.52937409804E-01  3.58271375683E-01
  3.63685954134E-01  3.69182363459E-01  3.74761840373E-01  3.80425640282E-01
  3.86175037565E-01  3.92011325860E-01  3.97935818358E-01  4.03949848094E-01
  4.10054768250E-01  4.16251952458E-01  4.22542795112E-01  4.28928711678E-01
  4.35411139013E-01  4.41991535691E-01  4.48671382330E-01  4.55452181922E-01
  4.62335460177E-01  4.69322765860E-01  4.76415671147E-01  4.83615771969E-01
  4.90924688379E-01  4.98344064916E-01  5.05875570970E-01  5.13520901162E-01
  5.21281775723E-01  5.29159940882E-01  5.37157169261E-01  5.45275260269E-01
  5.53516040510E-01  5.61881364197E-01  5.70373113560E-01  5.78993199280E-01
  5.87743560913E-01  5.96626167327E-01  6.05643017145E-01  6.14796139197E-01
  6.24087592974E-01  6.33519469093E-01  6.43093889764E-01  6.52813009274E-01
  6.62679014466E-01  6.72694125231E-01  6.82860595012E-01  6.93180711308E-01
  7.03656796188E-01  7.14291206816E-01  7.25086335979E-01  7.36044612627E-01
  7.47168502418E-01  7.58460508274E-01  7.69923170944E-01  7.81559069575E-01
  7.93370822295E-01  8.05361086796E-01  8.17532560940E-01  8.29887983359E-01
  8.42430134075E-01  8.55161835126E-01  8.68085951197E-01  8.81205390269E-01
  8.94523104272E-01  9.08042089747E-01  9.21765388523E-01  9.35696088401E-01
  9.49837323845E-01  9.64192276695E-01  9.78764176875E-01  9.93556303123E-01
  1.00857198373E+00  1.02381459729E+00  1.03928757345E+00  1.05499439371E+00
  1.07093859215E+00  1.08712375629E+00  1.10355352786E+00  1.12023160364E+00
  1.13716173625E+00  1.15434773505E+00  1.17179346696E+00  1.18950285734E+00
  1.20747989088E+00  1.22572861250E+00  1.24425312822E+00  1.26305760614E+00
  1.28214627736E+00  1.30152343689E+00  1.32119344469E+00  1.34116072659E+00
  1.36142977531E+00  1.38200515148E+00  1.40289148463E+00  1.42409347429E+00
  1.44561589098E+00  1.46746357735E+00  1.48964144922E+00
  </PP_RAB>
</PP_MESH>


<PP_LOCAL>
 -2.24894653045E+01 -2.21701640694E+01 -2.18335363904E+01 -2.14936053998E+01
 -2.11521325416E+01 -2.08079488611E+01 -2.04629603237E+01 -2.01178271718E+01
 -1.97732768645E+01 -1.94302881888E+01 -1.90871874323E+01 -1.87553173556E+01
 -1.84058700870E+01 -1.80882895142E+01 -1.77621465393E+01 -1.74346173536E+01
 -1.71203924743E+01 -1.68070986973E+01 -1.65044408712E+01 -1.62133220086E+01
 -1.59167743857E+01 -1.56397080591E+01 -1.53617024078E+01 -1.50964783762E+01
 -1.48366716215E+01 -1.45897196952E+01 -1.43422156966E+01 -1.41135458712E+01
 -1.38862856125E+01 -1.36704412668E+01 -1.34616380384E+01 -1.32620820868E+01
 -1.30700293356E+01 -1.28885866512E+01 -1.27105167635E+01 -1.25464250267E+01
 -1.23798940769E+01 -1.22411767116E+01 -1.20837538204E+01 -1.19565334140E+01
 -1.18213688435E+01 -1.17028875745E+01 -1.15752519042E+01 -1.14817894368E+01
 -1.13568228389E+01 -1.12796172347E+01 -1.11763308168E+01 -1.10854747887E+01
 -1.10162196237E+01 -1.09353680382E+01 -1.08556819791E+01 -1.07945233790E+01
 -1.07323439393E+01 -1.06698386254E+01 -1.06199894970E+01 -1.05632166469E+01
 -1.05172025070E+01 -1.04711897160E+01 -1.04342117383E+01 -1.03913900234E+01
 -1.03566826911E+01 -1.03216643751E+01 -1.02946334328E+01 -1.02625399540E+01
 -1.02380266100E+01 -1.02113366549E+01 -1.01907288915E+01 -1.01682656569E+01
 -1.01497462318E+01 -1.01313900628E+01 -1.01148033584E+01 -1.00988904415E+01
 -1.00854769078E+01 -1.00719328436E+01 -1.00601492788E+01 -1.00492730973E+01
 -1.00382280215E+01 -1.00293838045E+01 -1.00202595486E+01 -1.00122571896E+01
 -1.00045405655E+01 -9.99770978579E+00 -9.99118860500E+00 -9.98533237416E+00
 -9.97941380279E+00 -9.97449606649E+00 -9.96939706410E+00 -9.96519118771E+00
 -9.96038146431E+00 -9.95687552778E+00 -9.95286377528E+00 -9.94928302929E+00
 -9.94604777685E+00 -9.94265385769E+00 -9.93973652993E+00 -9.93672574438E+00
 -9.93402859167E+00 -9.93123954767E+00 -9.92875137061E+00 -9.92616592578E+00
 -9.92384269071E+00 -9.92138363666E+00 -9.91918410838E+00 -9.91694139905E+00
 -9.91471079490E+00 -9.91260605192E+00 -9.91067748837E+00 -9.90708881595E+00
 -9.90803182435E+00 -9.90416843859E+00 -9.90190430156E+00 -9.90080357359E+00
 -9.89979735436E+00 -9.89528676493E+00 -9.89528187704E+00 -9.89293956253E+00
 -9.89035094510E+00 -9.88987197523E+00 -9.88882004805E+00 -9.88290307079E+00
 -9.88631052505E+00 -9.88083928190E+00 -9.88115974416E+00 -9.87769858322E+00
 -9.87791916943E+00 -9.87485275998E+00 -9.87368695434E+00 -9.87175932741E+00
 -9.87097106182E+00 -9.86833830205E+00 -9.86749289638E+00 -9.86546384757E+00
 -9.86410076443E+00 -9.86265999348E+00 -9.86150009681E+00 -9.85966487137E+00
 -9.85863456188E+00 -9.85710472073E+00 -9.85572110230E+00 -9.85464670719E+00
 -9.85337329623E+00 -9.85212574596E+00 -9.85130938860E+00 -9.84998481384E+00
 -9.84899531768E+00 -9.84821984021E+00 -9.84735899586E+00 -9.84639403130E+00
 -9.84577951952E+00 -9.84514411648E+00 -9.84447227268E+00 -9.84407154257E+00
 -9.84371146424E+00 -9.84332070591E+00 -9.84315500996E+00 -9.84301577866E+00
 -9.84308785292E+00 -9.84316167389E+00 -9.84344083798E+00 -9.84379156100E+00
 -9.84430900430E+00 -9.84495488247E+00 -9.84572780682E+00 -9.84673864840E+00
 -9.84776673956E+00 -9.84912749087E+00 -9.85054020912E+00 -9.85219256717E+00
 -9.85405527894E+00 -9.85609088855E+00 -9.85835919112E+00 -9.86082920825E+00
 -9.86355935546E+00 -9.86649889300E+00 -9.86972278175E+00 -9.87319208105E+00
 -9.87692942388E+00 -9.88096076239E+00 -9.88527146617E+00 -9.88990458171E+00
 -9.89483875478E+00 -9.90009417439E+00 -9.90568654940E+00 -9.91163847025E+00
 -9.91792164849E+00 -9.92457957292E+00 -9.93161406301E+00 -9.93902041073E+00
 -9.94681893227E+00 -9.95501602123E+00 -9.96360906564E+00 -9.97261245646E+00
 -9.98202405729E+00 -9.99184894135E+00 -1.00020883159E+01 -1.00127376879E+01
 -1.00237975085E+01 -1.00352658578E+01 -1.00471258812E+01 -1.00593789148E+01
 -1.00720044756E+01 -1.00849914622E+01 -1.00983175292E+01 -1.01119641691E+01
 -1.01259022948E+01 -1.01401041413E+01 -1.01545328574E+01 -1.01691522121E+01
 -1.01839197589E+01 -1.01987833893E+01 -1.02136949699E+01 -1.02285939348E+01
 -1.02434184269E+01 -1.02580997824E+01 -1.02725656975E+01 -1.02867377019E+01
 -1.03005326776E+01 -1.03138643351E+01 -1.03266400825E+01 -1.03387656078E+01
 -1.03501416560E+01 -1.03606678322E+01 -1.03702410944E+01 -1.03787575837E+01
 -1.03861138382E+01 -1.03922068861E+01 -1.03969369351E+01 -1.04002069020E+01