<PP_INFO>
Generated using Andrea Dal Corso code (rrkj3)
Author: Andrea Dal Corso   Generation date: unknown
Info:   C LDA 2s2 2p2 RRKJ3 US
    0        The Pseudo was generated with a Non-Relativistic Calculation
  1.30000000000E+00    Local Potential cutoff radius
nl pn  l   occ               Rcut            Rcut US             E pseu
2S  1  0  2.00      1.30000000000      1.60000000000      0.00000000000
2S  1  0  0.00      1.30000000000      1.60000000000      0.00000000000
2P  2  1  2.00      1.30000000000      1.60000000000      0.00000000000
2P  2  1  0.00      1.30000000000      1.60000000000      0.00000000000
3D  3  2 -2.00      1.30000000000      1.30000000000      0.00000000000
</PP_INFO>


<PP_HEADER>
   0                   Version Number
  C                    Element
   US                  Ultrasoft pseudopotential
    F                  Nonlinear Core Correction
 SLA  PZ   NOGX NOGC   PZ   Exchange-Correlation functional
    4.00000000000      Z valence
  -10.68218164300      Total energy
  0.0000000  0.0000000 Suggested cutoff for wfc and rho
    2                  Max angular momentum component
 1425                  Number of points in mesh
    2    4             Number of Wavefunctions, Number of Projectors
 Wavefunctions         nl  l   occ
                       2S  0  2.00
                       2P  1  2.00
</PP_HEADER>


<PP_MESH>
  <PP_R>
  1.12299116651E-03  1.13201112758E-03  1.14110353775E-03  1.15026897894E-03
  1.15950803773E-03  1.16882130543E-03  1.17820937810E-03  1.18767285656E-03
  1.19721234650E-03  1.20682845843E-03  1.21652180780E-03  1.22629301498E-03
  1.23614270533E-03  1.24607150923E-03  1.25608006214E-03  1.26616900460E-03
  1.27633898230E-03  1.28659064614E-03  1.29692465222E-03  1.30734166192E-03
  1.31784234193E-03  1.32842736430E-03  1.33909740648E-03  1.34985315135E-03
  1.36069528728E-03  1.37162450817E-03  1.38264151350E-03  1.39374700836E-03
  1.40494170350E-03  1.41622631539E-03  1.42760156625E-03  1.43906818410E-03
  1.45062690280E-03  1.46227846212E-03  1.47402360775E-03  1.48586309141E-03
  1.49779767080E-03  1.50982810976E-03  1.52195517824E-03  1.53417965236E-03
  1.54650231451E-03  1.55892395333E-03  1.57144536382E-03  1.58406734735E-03
  1.59679071173E-03  1.60961627126E-03  1.62254484678E-03  1.63557726572E-03
  1.64871436217E-03  1.66195697690E-03  1.67530595744E-03  1.68876215813E-03
  1.70232644019E-03  1.71599967171E-03  1.72978272780E-03  1.74367649057E-03
  1.75768184924E-03  1.77179970014E-03  1.78603094683E-03  1.80037650010E-03
  1.81483727809E-03  1.82941420629E-03  1.84410821761E-03  1.85892025250E-03
  1.87385125891E-03  1.88890219244E-03  1.90407401636E-03  1.91936770167E-03
  1.93478422716E-03  1.95032457951E-03  1.96598975329E-03  1.98178075109E-03
  1.99769858353E-03  2.01374426937E-03  2.02991883552E-03  2.04622331718E-03
  2.06265875782E-03  2.07922620933E-03  2.09592673203E-03  2.11276139475E-03
  2.12973127492E-03  2.14683745862E-03  2.16408104066E-03  2.18146312461E-03
  2.19898482295E-03  2.21664725707E-03  2.23445155738E-03  2.25239886334E-03
  2.27049032360E-03  2.28872709602E-03  2.30711034775E-03  2.32564125533E-03
  2.34432100474E-03  2.36315079150E-03  2.38213182072E-03  2.40126530719E-03
  2.42055247545E-03  2.43999455990E-03  2.45959280484E-03  2.47934846455E-03
  2.49926280341E-03  2.51933709595E-03  2.53957262692E-03  2.55997069140E-03
  2.58053259488E-03  2.60125965333E-03  2.62215319328E-03  2.64321455194E-03
  2.66444507723E-03  2.68584612791E-03  2.70741907366E-03  2.72916529515E-03
  2.75108618416E-03  2.77318314362E-03  2.79545758775E-03  2.81791094212E-03
  2.84054464375E-03  2.86336014121E-03  2.88635889469E-03  2.90954237613E-03
  2.93291206927E-03  2.95646946979E-03  2.98021608536E-03  3.00415343578E-03
  3.02828305304E-03  3.05260648146E-03  3.07712527773E-03  3.10184101106E-03
  3.12675526329E-03  3.15186962891E-03  3.17718571527E-03  3.20270514260E-03
  3.22842954415E-03  3.25436056629E-03  3.28049986862E-03  3.30684912406E-03
  3.33341001898E-03  3.36018425327E-03  3.38717354050E-03  3.41437960800E-03
  3.44180419695E-03  3.46944906255E-03  3.49731597407E-03  3.52540671501E-03
  3.55372308319E-03  3.58226689085E-03  3.61103996481E-03  3.64004414657E-03
  3.66928129240E-03  3.69875327348E-03  3.72846197603E-03  3.75840930142E-03
  3.78859716629E-03  3.81902750267E-03  3.84970225811E-03  3.88062339582E-03
  3.91179289474E-03  3.94321274975E-03  3.97488497171E-03  4.00681158768E-03
  4.03899464095E-03  4.07143619126E-03  4.10413831487E-03  4.13710310474E-03
  4.17033267061E-03  4.20382913920E-03  4.23759465430E-03  4.27163137689E-03
  4.30594148535E-03  4.34052717554E-03  4.37539066095E-03  4.41053417285E-03
  4.44595996045E-03  4.48167029100E-03  4.51766744998E-03  4.55395374122E-03
  4.59053148705E-03  4.62740302846E-03  4.66457072525E-03  4.70203695615E-03
  4.73980411903E-03  4.77787463099E-03  4.81625092855E-03  4.85493546782E-03
  4.89393072462E-03  4.93323919465E-03  4.97286339367E-03  5.01280585765E-03
  5.05306914292E-03  5.09365582633E-03  5.13456850546E-03  5.17580979872E-03
  5.21738234558E-03  5.25928880669E-03  5.30153186407E-03  5.34411422131E-03
  5.38703860368E-03  5.43030775836E-03  5.47392445459E-03  5.51789148385E-03
  5.56221166005E-03  5.60688781970E-03  5.65192282208E-03  5.69731954945E-03
  5.74308090722E-03  5.78920982412E-03  5.83570925243E-03  5.88258216813E-03
  5.92983157109E-03  5.97746048529E-03  6.02547195901E-03  6.07386906499E-03
  6.12265490066E-03  6.17183258833E-03  6.22140527540E-03  6.27137613453E-03
  6.32174836387E-03  6.37252518727E-03  6.42370985445E-03  6.47530564125E-03
  6.52731584983E-03  6.57974380885E-03  6.63259287372E-03  6.68586642680E-03
  6.73956787761E-03  6.79370066306E-03  6.84826824768E-03  6.90327412380E-03
  6.95872181182E-03  7.01461486041E-03  7.07095684675E-03  7.12775137674E-03
  7.18500208525E-03  7.24271263635E-03  7.30088672353E-03  7.35952806995E-03
  7.41864042868E-03  7.47822758293E-03  7.53829334629E-03  7.59884156301E-03
  7.65987610817E-03  7.72140088803E-03  7.78341984017E-03  7.84593693384E-03
  7.90895617016E-03  7.97248158237E-03  8.03651723612E-03  8.10106722971E-03
  8.16613569438E-03  8.23172679452E-03  8.29784472798E-03  8.36449372633E-03
  8.43167805514E-03  8.49940201423E-03  8.56766993794E-03  8.63648619545E-03
  8.70585519103E-03  8.77578136431E-03  8.84626919060E-03  8.91732318113E-03
  8.98894788339E-03  9.06114788139E-03  9.13392779594E-03  9.20729228498E-03
  9.28124604388E-03  9.35579380569E-03  9.43094034150E-03  9.50669046071E-03
  9.58304901135E-03  9.66002088040E-03  9.73761099408E-03  9.81582431820E-03
  9.89466585841E-03  9.97414066062E-03  1.00542538112E-02  1.01350104375E-02
  1.02164157080E-02  1.02984748325E-02  1.03811930629E-02  1.04645756932E-02
  1.05486280599E-02  1.06333555425E-02  1.07187635634E-02  1.08048575888E-02
  1.08916431288E-02  1.09791257377E-02  1.10673110144E-02  1.11562046028E-02
  1.12458121921E-02  1.13361395172E-02  1.14271923590E-02  1.15189765451E-02
  1.16114979497E-02  1.17047624940E-02  1.17987761472E-02  1.18935449261E-02
  1.19890748959E-02  1.20853721705E-02  1.21824429132E-02  1.22802933363E-02
  1.23789297024E-02  1.24783583242E-02  1.25785855652E-02  1.26796178400E-02
  1.27814616147E-02  1.28841234072E-02  1.29876097881E-02  1.30919273804E-02
  1.31970828605E-02  1.33030829585E-02  1.34099344583E-02  1.35176441984E-02
  1.36262190724E-02  1.37356660291E-02  1.38459920731E-02  1.39572042654E-02
  1.40693097234E-02  1.41823156221E-02  1.42962291938E-02  1.44110577291E-02
  1.45268085770E-02  1.46434891456E-02  1.47611069025E-02  1.48796693753E-02
  1.49991841520E-02  1.51196588816E-02  1.52411012745E-02  1.53635191031E-02
  1.54869202022E-02  1.56113124695E-02  1.57367038661E-02  1.58631024171E-02
  1.59905162120E-02  1.61189534055E-02  1.62484222175E-02  1.63789309341E-02
  1.65104879078E-02  1.66431015584E-02  1.67767803732E-02  1.69115329076E-02
  1.70473677859E-02  1.71842937016E-02  1.73223194179E-02  1.74614537686E-02
  1.76017056583E-02  1.77430840632E-02  1.78855980315E-02  1.80292566842E-02
  1.81740692155E-02  1.83200448934E-02  1.84671930604E-02  1.86155231341E-02
  1.87650446076E-02  1.89157670504E-02  1.90677001087E-02  1.92208535063E-02
  1.93752370452E-02  1.95308606058E-02  1.96877341481E-02  1.98458677122E-02
  2.00052714186E-02  2.01659554691E-02  2.03279301477E-02  2.04912058208E-02
  2.06557929381E-02  2.08217020331E-02  2.09889437242E-02  2.11575287148E-02
  2.13274677945E-02  2.14987718394E-02  2.16714518131E-02  2.18455187670E-02
  2.20209838417E-02  2.21978582668E-02  2.23761533624E-02  2.25558805394E-02
  2.27370513006E-02  2.29196772407E-02  2.31037700480E-02  2.32893415045E-02
  2.34764034868E-02  2.36649679670E-02  2.38550470131E-02  2.40466527905E-02
  2.42397975618E-02  2.44344936884E-02  2.46307536310E-02  2.48285899501E-02
  2.50280153076E-02  2.52290424665E-02  2.54316842928E-02  2.56359537556E-02
  2.58418639281E-02  2.60494279888E-02  2.62586592217E-02  2.64695710178E-02
  2.66821768755E-02  2.68964904016E-02  2.71125253123E-02  2.73302954338E-02
  2.75498147036E-02  2.77710971709E-02  2.79941569979E-02  2.82190084606E-02
  2.84456659494E-02  2.86741439705E-02  2.89044571466E-02  2.91366202179E-02
  2.93706480428E-02  2.96065555992E-02  2.98443579852E-02  3.00840704204E-02
  3.03257082463E-02  3.05692869280E-02  3.08148220544E-02  3.10623293399E-02
  3.13118246251E-02  3.15633238778E-02  3.18168431940E-02  3.20723987990E-02
  3.23300070485E-02  3.25896844294E-02  3.28514475613E-02  3.31153131971E-02
  3.33812982242E-02  3.36494196658E-02  3.39196946817E-02  3.41921405697E-02
  3.44667747663E-02  3.47436148483E-02  3.50226785335E-02  3.53039836820E-02
  3.55875482976E-02  3.58733905284E-02  3.61615286685E-02  3.64519811587E-02
  3.67447665882E-02  3.70399036952E-02  3.73374113688E-02  3.76373086494E-02
  3.79396147306E-02  3.82443489602E-02  3.85515308411E-02  3.88611800331E-02
  3.91733163539E-02  3.94879597804E-02  3.98051304497E-02  4.01248486610E-02
  4.04471348763E-02  4.07720097220E-02  4.10994939903E-02  4.14296086402E-02
  4.17623747992E-02  4.20978137644E-02  4.24359470041E-02  4.27767961589E-02
  4.31203830433E-02  4.34667296469E-02  4.38158581360E-02  4.41677908550E-02
  4.45225503276E-02  4.48801592587E-02  4.52406405354E-02  4.56040172284E-02
  4.59703125941E-02  4.63395500755E-02  4.67117533040E-02  4.70869461006E-02
  4.74651524778E-02  4.78463966410E-02  4.82307029898E-02  4.86180961202E-02
  4.90086008253E-02  4.94022420976E-02  4.97990451302E-02  5.01990353187E-02
  5.06022382626E-02  5.10086797670E-02  5.14183858444E-02  5.18313827160E-02
  5.22476968138E-02  5.26673547820E-02  5.30903834789E-02  5.35168099784E-02
  5.39466615721E-02  5.43799657705E-02  5.48167503053E-02  5.52570431308E-02
  5.57008724260E-02  5.61482665959E-02  5.65992542742E-02  5.70538643240E-02
  5.75121258406E-02  5.79740681528E-02  5.84397208253E-02  5.89091136598E-02
  5.93822766977E-02  5.98592402216E-02  6.03400347572E-02  6.08246910757E-02
  6.13132401952E-02  6.18057133830E-02  6.23021421576E-02  6.28025582905E-02
  6.33069938086E-02  6.38154809959E-02  6.43280523957E-02  6.48447408129E-02
  6.53655793156E-02  6.58906012377E-02  6.64198401808E-02  6.69533300163E-02
  6.74911048878E-02  6.80331992130E-02  6.85796476862E-02  6.91304852803E-02
  6.96857472490E-02  7.02454691293E-02  7.08096867437E-02  7.13784362021E-02
  7.19517539048E-02  7.25296765444E-02  7.31122411080E-02  7.36994848800E-02
  7.42914454442E-02  7.48881606862E-02  7.54896687961E-02  7.60960082706E-02
  7.67072179155E-02  7.73233368486E-02  7.79444045017E-02  7.85704606232E-02
  7.92015452810E-02  7.98376988648E-02  8.04789620885E-02  8.11253759933E-02
  8.17769819499E-02  8.24338216612E-02  8.30959371652E-02  8.37633708376E-02
  8.44361653943E-02  8.51143638944E-02  8.57980097428E-02  8.64871466932E-02
  8.71818188504E-02  8.78820706738E-02  8.85879469798E-02  8.92994929446E-02
  9.00167541074E-02  9.07397763732E-02  9.14686060157E-02  9.22032896801E-02
  9.29438743866E-02  9.36904075328E-02  9.44429368970E-02  9.52015106415E-02
  9.59661773151E-02  9.67369858568E-02  9.75139855986E-02  9.82972262688E-02
  9.90867579950E-02  9.98826313076E-02  1.00684897143E-01  1.01493606845E-01
  1.02308812174E-01  1.03130565301E-01  1.03958918820E-01  1.04793925745E-01
  1.05635639516E-01  1.06484114005E-01  1.07339403514E-01  1.08201562781E-01
  1.09070646985E-01  1.09946711747E-01  1.10829813137E-01  1.11720007673E-01
  1.12617352327E-01  1.13521904530E-01  1.14433722174E-01  1.15352863615E-01
  1.16279387679E-01  1.17213353663E-01  1.18154821342E-01  1.19103850969E-01
  1.20060503284E-01  1.21024839512E-01  1.21996921371E-01  1.22976811075E-01
  1.23964571337E-01  1.24960265373E-01  1.25963956909E-01  1.26975710182E-01
  1.27995589943E-01  1.29023661465E-01  1.30059990546E-01  1.31104643511E-01
  1.32157687218E-01  1.33219189062E-01  1.34289216979E-01  1.35367839452E-01
  1.36455125513E-01  1.37551144749E-01  1.38655967304E-01  1.39769663890E-01
  1.40892305781E-01  1.42023964828E-01  1.43164713457E-01  1.44314624677E-01
  1.45473772081E-01  1.46642229857E-01  1.47820072786E-01  1.49007376250E-01
  1.50204216237E-01  1.51410669345E-01  1.52626812787E-01  1.53852724398E-01
  1.55088482635E-01  1.56334166588E-01  1.57589855982E-01  1.58855631180E-01
  1.60131573192E-01  1.61417763680E-01  1.62714284960E-01  1.64021220009E-01
  1.65338652473E-01  1.66666666667E-01  1.68005347584E-01  1.69354780901E-01
  1.70715052982E-01  1.72086250884E-01  1.73468462365E-01  1.74861775887E-01
  1.76266280623E-01  1.77682066460E-01  1.79109224011E-01  1.80547844612E-01
  1.81998020338E-01  1.83459843999E-01  1.84933409153E-01  1.86418810108E-01
  1.87916141930E-01  1.89425500450E-01  1.90946982266E-01  1.92480684754E-01
  1.94026706072E-01  1.95585145165E-01  1.97156101775E-01  1.98739676442E-01
  2.00335970516E-01  2.01945086161E-01  2.03567126360E-01  2.05202194925E-01
  2.06850396500E-01  2.08511836571E-01  2.10186621471E-01  2.11874858387E-01
  2.13576655366E-01  2.15292121323E-01  2.17021366050E-01  2.18764500219E-01
  2.20521635390E-01  2.22292884021E-01  2.24078359472E-01  2.25878176015E-01
  2.27692448838E-01  2.29521294056E-01  2.31364828715E-01  2.33223170802E-01
  2.35096439251E-01  2.36984753953E-01  2.38888235760E-01  2.40807006496E-01
  2.42741188962E-01  2.44690906947E-01  2.46656285234E-01  2.48637449607E-01
  2.50634526862E-01  2.52647644812E-01  2.54676932297E-01  2.56722519194E-01
  2.58784536419E-01  2.60863115942E-01  2.62958390794E-01  2.65070495073E-01
  2.67199563954E-01  2.69345733699E-01  2.71509141662E-01  2.73689926303E-01
  2.75888227193E-01  2.78104185023E-01  2.80337941616E-01  2.82589639934E-01
  2.84859424084E-01  2.87147439335E-01  2.89453832120E-01  2.91778750049E-01
  2.94122341918E-01  2.96484757717E-01  2.98866148642E-01  3.01266667102E-01
  3.03686466732E-01  3.06125702399E-01  3.08584530216E-01  3.11063107548E-01
  3.13561593025E-01  3.16080146551E-01  3.18618929314E-01  3.21178103798E-01
  3.23757833789E-01  3.26358284393E-01  3.28979622038E-01  3.31622014492E-01
  3.34285630867E-01  3.36970641637E-01  3.39677218643E-01  3.42405535107E-01
  3.45155765642E-01  3.47928086264E-01  3.50722674403E-01  3.53539708912E-01
  3.56379370083E-01  3.59241839655E-01  3.62127300828E-01  3.65035938272E-01
  3.67967938140E-01  3.70923488082E-01  3.73902777254E-01  3.76905996331E-01
  3.79933337521E-01  3.82984994574E-01  3.86061162797E-01  3.89162039066E-01
  3.92287821839E-01  3.95438711166E-01  3.98614908706E-01  4.01816617736E-01
  4.05044043167E-01  4.08297391555E-01  4.11576871115E-01  4.14882691735E-01
  4.18215064989E-01  4.21574204151E-01  4.24960324205E-01  4.28373641865E-01
  4.31814375584E-01  4.35282745571E-01  4.38778973801E-01  4.42303284037E-01
  4.45855901833E-01  4.49437054559E-01  4.53046971410E-01  4.56685883422E-01
  4.60354023486E-01  4.64051626365E-01  4.67778928706E-01  4.71536169059E-01
  4.75323587887E-01  4.79141427587E-01  4.82989932502E-01  4.86869348938E-01
  4.90779925178E-01  4.94721911500E-01  4.98695560194E-01  5.02701125574E-01
  5.06738863998E-01  5.10809033882E-01  5.14911895719E-01  5.19047712092E-01
  5.23216747697E-01  5.27419269351E-01  5.31655546019E-01  5.35925848824E-01
  5.40230451066E-01  5.44569628240E-01  5.48943658058E-01  5.53352820456E-01
  5.57797397624E-01  5.62277674016E-01  5.66793936371E-01  5.71346473731E-01
  5.75935577460E-01  5.80561541264E-01  5.85224661203E-01  5.89925235721E-01
  5.94663565656E-01  5.99439954262E-01  6.04254707229E-01  6.09108132704E-01
  6.14000541307E-01  6.18932246154E-01  6.23903562877E-01  6.28914809640E-01
  6.33966307166E-01  6.39058378752E-01  6.44191350293E-01  6.49365550299E-01
  6.54581309923E-01  6.59838962974E-01  6.65138845943E-01  6.70481298026E-01
  6.75866661141E-01  6.81295279953E-01  6.86767501895E-01  6.92283677192E-01
  6.97844158880E-01  7.03449302833E-01  7.09099467781E-01  7.14795015337E-01
  7.20536310019E-01  7.26323719270E-01  7.32157613486E-01  7.38038366041E-01
  7.43966353302E-01  7.49941954664E-01  7.55965552567E-01  7.62037532524E-01
  7.68158283142E-01  7.74328196153E-01  7.80547666433E-01  7.86817092030E-01
  7.93136874190E-01  7.99507417380E-01  8.05929129317E-01  8.12402420994E-01
  8.18927706704E-01  8.25505404066E-01  8.32135934056E-01  8.38819721029E-01
  8.45557192751E-01  8.52348780422E-01  8.59194918706E-01  8.66096045758E-01
  8.73052603252E-01  8.80065036411E-01  8.87133794033E-01  8.94259328520E-01
  9.01442095910E-01  9.08682555901E-01  9.15981171887E-01  9.23338410980E-01
  9.30754744046E-01  9.38230645734E-01  9.45766594503E-01  9.53363072657E-01
  9.61020566373E-01  9.68739565734E-01  9.76520564757E-01  9.84364061430E-01
  9.92270557739E-01  1.00024055970E+00  1.00827457740E+00  1.01637312502E+00
  1.02453672086E+00  1.03276588741E+00  1.04106115132E+00  1.04942304350E+00
  1.05785209912E+00  1.06634885763E+00  1.07491386283E+00  1.08354766289E+00
  1.09225081037E+00  1.10102386227E+00  1.10986738007E+00  1.11878192977E+00
  1.12776808189E+00  1.13682641155E+00  1.14595749849E+00  1.15516192710E+00
  1.16444028647E+00  1.17379317042E+00  1.18322117753E+00  1.19272491119E+00
  1.20230497966E+00  1.21196199606E+00  1.22169657844E+00  1.23150934982E+00
  1.24140093822E+00  1.25137197670E+00  1.26142310341E+00  1.27155496164E+00
  1.28176819981E+00  1.29206347159E+00  1.30244143587E+00  1.31290275685E+00
  1.32344810405E+00  1.33407815238E+00  1.34479358217E+00  1.35559507921E+00
  1.36648333480E+00  1.37745904578E+00  1.38852291461E+00  1.39967564939E+00
  1.41091796388E+00  1.42225057761E+00  1.43367421586E+00  1.44518960974E+00
  1.45679749626E+00  1.46849861831E+00  1.48029372478E+00  1.49218357055E+00
  1.50416891657E+00  1.51625052992E+00  1.52842918383E+00  1.54070565772E+00
  1.55308073730E+00  1.56555521457E+00  1.57812988792E+00  1.59080556212E+00
  1.60358304841E+00  1.61646316457E+00  1.62944673492E+00  1.64253459042E+00
  1.65572756870E+00  1.66902651410E+00  1.68243227777E+00  1.69594571768E+00
  1.70956769869E+00  1.72329909263E+00  1.73714077829E+00  1.75109364155E+00
  1.76515857541E+00  1.77933648001E+00  1.79362826276E+00  1.80803483833E+00
  1.82255712875E+00  1.83719606344E+00  1.85195257931E+00  1.86682762078E+00
  1.88182213985E+00  1.89693709618E+00  1.91217345713E+00  1.92753219784E+00
  1.94301430126E+00  1.95862075827E+00  1.97435256767E+00  1.99021073631E+00
  2.00619627911E+00  2.02231021917E+00  2.03855358776E+00  2.05492742448E+00
  2.07143277726E+00  2.08807070245E+00  2.10484226487E+00  2.12174853791E+00
  2.13879060359E+00  2.15596955259E+00  2.17328648438E+00  2.19074250725E+00
  2.20833873839E+00  2.22607630395E+00  2.24395633917E+00  2.26197998835E+00
  2.28014840503E+00  2.29846275198E+00  2.31692420133E+00  2.33553393462E+00
  2.35429314288E+00  2.37320302671E+00  2.39226479634E+00  2.41147967173E+00
  2.43084888265E+00  2.45037366872E+00  2.47005527954E+00  2.48989497475E+00
  2.50989402408E+00  2.53005370749E+00  2.55037531520E+00  2.57086014780E+00
  2.59150951633E+00  2.61232474235E+00  2.63330715804E+00  2.65445810630E+00
  2.67577894077E+00  2.69727102602E+00  2.71893573753E+00  2.74077446185E+00
  2.76278859668E+00  2.78497955091E+00  2.80734874479E+00  2.82989760995E+00
  2.85262758952E+00  2.87554013824E+00  2.89863672250E+00  2.92191882050E+00
  2.94538792230E+00  2.96904552994E+00  2.99289315750E+00  3.01693233124E+00
  3.04116458969E+00  3.06559148371E+00  3.09021457662E+00  3.11503544433E+00
  3.14005567537E+00  3.16527687104E+00  3.19070064551E+00  3.21632862592E+00
  3.24216245245E+00  3.26820377849E+00  3.29445427068E+00  3.32091560907E+00
  3.34758948720E+00  3.37447761219E+00  3.40158170491E+00  3.42890350001E+00
  3.45644474611E+00  3.48420720585E+00  3.51219265604E+00  3.54040288776E+00
  3.56883970648E+00  3.59750493215E+00  3.62640039937E+00  3.65552795745E+00
  3.68488947056E+00  3.71448681787E+00  3.74432189359E+00  3.77439660720E+00
  3.80471288347E+00  3.83527266267E+00  3.86607790063E+00  3.89713056889E+00
  3.92843265484E+00  3.95998616183E+00  3.99179310927E+00  4.02385553284E+00
  4.05617548454E+00  4.08875503285E+00  4.12159626288E+00  4.15470127648E+00
  4.18807219238E+00  4.22171114632E+00  4.25562029123E+00  4.28980179728E+00
  4.32425785211E+00  4.35899066092E+00  4.39400244662E+00  4.42929544998E+00
  4.46487192976E+00  4.50073416286E+00  4.53688444449E+00  4.57332508827E+00
  4.61005842642E+00  4.64708680988E+00  4.68441260848E+00  4.72203821109E+00
  4.75996602576E+00  4.79819847987E+00  4.83673802033E+00  4.87558711367E+00
  4.91474824625E+00  4.95422392440E+00  4.99401667457E+00  5.03412904351E+00
  5.07456359842E+00  5.11532292714E+00  5.15640963828E+00  5.19782636138E+00
  5.23957574716E+00  5.28166046756E+00  5.32408321604E+00  5.36684670767E+00
  5.40995367931E+00  5.45340688984E+00  5.49720912027E+00  5.54136317395E+00
  5.58587187678E+00  5.63073807731E+00  5.67596464700E+00  5.72155448036E+00
  5.76751049516E+00  5.81383563261E+00  5.86053285752E+00  5.90760515853E+00
  5.95505554829E+00  6.00288706364E+00  6.05110276580E+00  6.09970574061E+00
  6.14869909867E+00  6.19808597557E+00  6.24786953209E+00  6.29805295439E+00
  6.34863945423E+00  6.39963226917E+00  6.45103466275E+00  6.50284992475E+00
  6.55508137137E+00  6.60773234543E+00  6.66080621662E+00  6.71430638168E+00
  6.76823626464E+00  6.82259931703E+00  6.87739901810E+00  6.93263887506E+00
  6.98832242328E+00  7.04445322651E+00  7.10103487716E+00  7.15807099646E+00
  7.21556523475E+00  7.27352127168E+00  7.33194281645E+00  7.39083360806E+00
  7.45019741555E+00  7.51003803822E+00  7.57035930588E+00  7.63116507912E+00
  7.69245924953E+00  7.75424573996E+00  7.81652850477E+00  7.87931153007E+00
  7.94259883399E+00  8.00639446695E+00  8.07070251189E+00  8.13552708455E+00
  8.20087233371E+00  8.26674244151E+00  8.33314162364E+00  8.40007412968E+00
  8.46754424333E+00  8.53555628270E+00  8.60411460059E+00  8.67322358475E+00
  8.74288765818E+00  8.81311127941E+00  8.88389894276E+00  8.95525517868E+00
  9.02718455399E+00  9.09969167219E+00  9.17278117376E+00  9.24645773646E+00
  9.32072607561E+00  9.39559094442E+00  9.47105713424E+00  9.54712947496E+00
  9.62381283523E+00  9.70111212280E+00  9.77903228485E+00  9.85757830831E+00
  9.93675522015E+00  1.00165680877E+01  1.00970220191E+01  1.01781221632E+01
  1.02598737107E+01  1.03422818936E+01  1.04253519861E+01  1.05090893047E+01
  1.05934992086E+01  1.06785871000E+01  1.07643584246E+01  1.08508186719E+01
  1.09379733753E+01  1.10258281127E+01  1.11143885068E+01  1.12036602256E+01
  1.12936489825E+01  1.13843605368E+01  1.14758006941E+01  1.15679753065E+01
  1.16608902732E+01  1.17545515410E+01  1.18489651040E+01  1.19441370049E+01
  1.20400733346E+01  1.21367802331E+01  1.22342638896E+01  1.23325305433E+01
  1.24315864831E+01  1.25314380487E+01  1.26320916306E+01  1.27335536706E+01
  1.28358306625E+01  1.29389291519E+01  1.30428557372E+01  1.31476170697E+01
  1.32532198542E+01  1.33596708492E+01  1.34669768678E+01  1.35751447775E+01
  1.36841815011E+01  1.37940940170E+01  1.39048893596E+01  1.40165746198E+01
  1.41291569456E+01  1.42426435423E+01  1.43570416731E+01  1.44723586594E+01
  1.45886018816E+01  1.47057787793E+01  1.48238968518E+01  1.49429636589E+01
  1.50629868207E+01  1.51839740187E+01  1.53059329964E+01  1.54288715589E+01
  1.55527975745E+01  1.56777189745E+01  1.58036437538E+01  1.59305799717E+01
  1.60585357521E+01  1.61875192844E+01  1.63175388234E+01  1.64486026904E+01
  1.65807192737E+01  1.67138970286E+01  1.68481444786E+01  1.69834702157E+01
  1.71198829006E+01  1.72573912639E+01  1.73960041061E+01  1.75357302985E+01
  1.76765787836E+01  1.78185585759E+01  1.79616787619E+01  1.81059485015E+01
  1.82513770280E+01  1.83979736489E+01  1.85457477463E+01  1.86947087780E+01
  1.88448662774E+01  1.89962298546E+01  1.91488091971E+01  1.93026140698E+01
  1.94576543165E+01  1.96139398597E+01  1.97714807017E+01  1.99302869253E+01
  2.00903686940E+01  2.02517362531E+01  2.04143999303E+01  2.05783701361E+01
  2.07436573645E+01  2.09102721942E+01  2.10782252884E+01  2.12475273961E+01
  2.14181893529E+01  2.15902220812E+01  2.17636365910E+01  2.19384439810E+01
  2.21146554389E+01  2.22922822422E+01  2.24713357593E+01  2.26518274495E+01
  2.28337688644E+01  2.30171716483E+01  2.32020475391E+01  2.33884083688E+01
  2.35762660646E+01  2.37656326495E+01  2.39565202430E+01  2.41489410620E+01
  2.43429074214E+01  2.45384317353E+01  2.47355265171E+01  2.49342043811E+01
  2.51344780426E+01  2.53363603194E+01  2.55398641318E+01  2.57450025043E+01
  2.59517885657E+01  2.61602355505E+01  2.63703567992E+01  2.65821657598E+01
  2.67956759881E+01  2.70109011488E+01  2.72278550164E+01  2.74465514759E+01
  2.76670045242E+01  2.78892282702E+01  2.81132369363E+01  2.83390448592E+01
  2.85666664906E+01  2.87961163984E+01  2.90274092675E+01  2.92605599007E+01
  2.94955832197E+01  2.97324942662E+01  2.99713082024E+01  3.02120403125E+01
  3.04547060036E+01  3.06993208062E+01  3.09459003758E+01  3.11944604937E+01
  3.14450170676E+01  3.16975861334E+01  3.19521838555E+01  3.22088265283E+01
  3.24675305769E+01  3.27283125586E+01  3.29911891635E+01  3.32561772158E+01
  3.35232936747E+01  3.37925556359E+01  3.40639803322E+01  3.43375851348E+01
  3.46133875546E+01  3.48914052430E+01  3.51716559933E+01  3.54541577416E+01
  3.57389285681E+01  3.60259866981E+01  3.63153505037E+01  3.66070385040E+01
  3.69010693674E+01  3.71974619117E+01  3.74962351063E+01  3.77974080728E+01
  3.81010000863E+01  3.84070305768E+01  3.87155191303E+01  3.90264854903E+01
  3.93399495587E+01  3.96559313973E+01  3.99744512290E+01  4.02955294393E+01
  4.06191865772E+01  4.09454433569E+01  4.12743206590E+01  4.16058395316E+01
  4.19400211922E+01  4.22768870285E+01  4.26164585999E+01  4.29587576393E+01
  4.33038060538E+01  4.36516259267E+01  4.40022395186E+01  4.43556692687E+01
  4.47119377969E+01  4.50710679044E+01  4.54330825755E+01  4.57980049795E+01
  4.61658584714E+01  4.65366665940E+01  4.69104530792E+01  4.72872418494E+01
  4.76670570192E+01  4.80499228969E+01  4.84358639861E+01  4.88249049871E+01
  4.92170707987E+01  4.96123865196E+01  5.00108774502E+01  5.04125690940E+01
  5.08174871595E+01  5.12256575615E+01  5.16371064230E+01  5.20518600770E+01
  5.24699450678E+01  5.28913881530E+01  5.33162163051E+01  5.37444567132E+01
  5.41761367849E+01  5.46112841478E+01  5.50499266516E+01  5.54920923695E+01
  5.59378096002E+01  5.63871068698E+01  5.68400129335E+01  5.72965567775E+01
  5.77567676206E+01  5.82206749166E+01  5.86883083557E+01  5.91596978665E+01
  5.96348736181E+01  6.01138660221E+01  6.05967057340E+01  6.10834236557E+01
  6.15740509374E+01  6.20686189794E+01  6.25671594341E+01  6.30697042085E+01
  6.35762854654E+01  6.40869356263E+01  6.46016873730E+01  6.51205736497E+01
  6.56436276653E+01  6.61708828955E+01  6.67023730848E+01  6.72381322488E+01
  6.77781946762E+01  6.83225949311E+01  6.88713678555E+01  6.94245485709E+01
  6.99821724811E+01  7.05442752743E+01  7.11108929251E+01  7.16820616974E+01
  7.22578181460E+01  7.28381991197E+01  7.34232417630E+01  7.40129835189E+01
  7.46074621309E+01  7.52067156460E+01  7.58107824166E+01  7.64197011031E+01
  7.70335106766E+01  7.76522504210E+01  7.82759599360E+01  7.89046791391E+01
  7.95384482687E+01  8.01773078860E+01  8.08212988785E+01  8.14704624616E+01
  8.21248401822E+01  8.27844739206E+01  8.34494058935E+01  8.41196786570E+01
  8.47953351085E+01  8.54764184905E+01  8.61629723924E+01  8.68550407539E+01
  8.75526678678E+01  8.82558983822E+01  8.89647773043E+01  8.96793500024E+01
  9.03996622096E+01  9.11257600260E+01  9.18576899222E+01  9.25954987419E+01
  9.33392337051E+01  9.40889424111E+01  9.48446728416E+01  9.56064733635E+01
  9.63743927323E+01  9.71484800951E+01  9.79287849939E+01  9.87153573683E+01
  9.95082475592E+01
  </PP_R>
  <PP_RAB>
  8.98392933211E-06  9.05608902067E-06  9.12882830202E-06  9.20215183150E-06
  9.27606430183E-06  9.35057044345E-06  9.42567502476E-06  9.50138285250E-06
  9.57769877198E-06  9.65462766745E-06  9.73217446238E-06  9.81034411981E-06
  9.88914164261E-06  9.96857207384E-06  1.00486404971E-05  1.01293520368E-05
  1.02107118584E-05  1.02927251691E-05  1.03753972178E-05  1.04587332954E-05
  1.05427387355E-05  1.06274189144E-05  1.07127792518E-05  1.07988252108E-05
  1.08855622982E-05  1.09729960654E-05  1.10611321080E-05  1.11499760669E-05
  1.12395336280E-05  1.13298105231E-05  1.14208125300E-05  1.15125454728E-05
  1.16050152224E-05  1.16982276969E-05  1.17921888620E-05  1.18869047313E-05
  1.19823813664E-05  1.20786248781E-05  1.21756414259E-05  1.22734372189E-05
  1.23720185161E-05  1.24713916267E-05  1.25715629106E-05  1.26725387788E-05
  1.27743256938E-05  1.28769301701E-05  1.29803587742E-05  1.30846181258E-05
  1.31897148973E-05  1.32956558152E-05  1.34024476595E-05  1.35100972651E-05
  1.36186115215E-05  1.37279973737E-05  1.38382618224E-05  1.39494119246E-05
  1.40614547939E-05  1.41743976011E-05  1.42882475746E-05  1.44030120008E-05