<PP_INFO>
Generated using ld1 code
Author: P. Giannozzi    Generation date: 1990
Info: C LDA 2s2 2p2 VonBarth-Car, l=1 local
    0        The Pseudo was generated with a Non-Relativistic Calculation
  0.00000000000E+00    Local Potential cutoff radius
nl pn  l   occ               Rcut            Rcut US             E pseu
2S  0  0  2.00      0.00000000000      0.00000000000      0.00000000000
2P  0  1  2.00      0.00000000000      0.00000000000      0.00000000000
</PP_INFO>


<PP_HEADER>
   0                   Version Number
  C                    Element
   NC                  Norm - Conserving pseudopotential
    F                  Nonlinear Core Correction
 SLA  PZ   NOGX NOGC   PZ   Exchange-Correlation functional
    4.00000000000      Z valence
    0.00000000000      Total energy
  0.0000000  0.0000000 Suggested cutoff for wfc and rho
    0                  Max angular momentum component
  269                  Number of points in mesh
    2    1             Number of Wavefunctions, Number of Projectors
 Wavefunctions         nl  l   occ
                       2S  0  2.00
                       2P  1  2.00
</PP_HEADER>


<PP_MESH>
  <PP_R>
  5.61495583257E-04  5.87340023303E-04  6.14374027614E-04  6.42652349289E-04
  6.72232261592E-04  7.03173673954E-04  7.35539253311E-04  7.69394551019E-04
  8.04808135628E-04  8.41851731748E-04  8.80600365321E-04  9.21132515572E-04
  9.63530273956E-04  1.00787951042E-03  1.05427004733E-03  1.10279584138E-03
  1.15355517387E-03  1.20665084981E-03  1.26219040609E-03  1.32028632928E-03
  1.38105628348E-03  1.44462334862E-03  1.51111626973E-03  1.58066971770E-03
  1.65342456203E-03  1.72952815614E-03  1.80913463582E-03  1.89240523139E-03
  1.97950859428E-03  2.07062113854E-03  2.16592739823E-03  2.26562040109E-03
  2.36990205952E-03  2.47898357951E-03  2.59308588842E-03  2.71244008243E-03
  2.83728789455E-03  2.96788218428E-03  3.10448744968E-03  3.24738036311E-03
  3.39685033153E-03  3.55320008272E-03  3.71674627836E-03  3.88782015537E-03
  4.06676819683E-03  4.25395283368E-03  4.44975317877E-03  4.65456579471E-03
  4.86880549704E-03  5.09290619438E-03  5.32732176723E-03  5.57252698722E-03
  5.82901847872E-03  6.09731572467E-03  6.37796211866E-03  6.67152606556E-03
  6.97860213268E-03  7.29981225400E-03  7.63580698979E-03  7.98726684421E-03
  8.35490364357E-03  8.73946197802E-03  9.14172070963E-03  9.56249454977E-03
  1.00026357093E-02  1.04630356244E-02  1.09446267624E-02  1.14483845097E-02
  1.19753291481E-02  1.25265279205E-02  1.31030971928E-02  1.37062047148E-02
  1.43370719853E-02  1.49969767261E-02  1.56872554699E-02  1.64093062670E-02
  1.71645915171E-02  1.79546409308E-02  1.87810546283E-02  1.96455063797E-02
  2.05497469951E-02  2.14956078710E-02  2.24850046987E-02  2.35199413450E-02
  2.46025139103E-02  2.57349149740E-02  2.69194380352E-02  2.81584821579E-02
  2.94545568299E-02  3.08102870453E-02  3.22284186212E-02  3.37118237586E-02
  3.52635068598E-02  3.68866106134E-02  3.85844223593E-02  4.03603807463E-02
  4.22180826971E-02  4.41612906931E-02  4.61939403945E-02  4.83201486117E-02
  5.05442216427E-02  5.28706639957E-02  5.53041875114E-02  5.78497209065E-02
  6.05124197561E-02  6.32976769354E-02  6.62111335419E-02  6.92586903210E-02
  7.24465196166E-02  7.57810778724E-02  7.92691187084E-02  8.29177065994E-02
  8.67342311827E-02  9.07264222249E-02  9.49023652771E-02  9.92705180510E-02
  1.03839727549E-01  1.08619247982E-01  1.13618759511E-01  1.18848387857E-01
  1.24318724803E-01  1.30040849653E-01  1.36026351663E-01  1.42287353521E-01
  1.48836535896E-01  1.55687163119E-01  1.62853110053E-01  1.70348890188E-01
  1.78189685041E-01  1.86391374902E-01  1.94970570994E-01  2.03944649122E-01
  2.13331784861E-01  2.23150990368E-01  2.33422152892E-01  2.44166075044E-01
  2.55404516941E-01  2.67160240267E-01  2.79457054379E-01  2.92319864529E-01
  3.05774722302E-01  3.19848878383E-01  3.34570837750E-01  3.49970417399E-01
  3.66078806743E-01  3.82928630776E-01  4.00554016148E-01  4.18990660289E-01
  4.38275903704E-01  4.58448805601E-01  4.79550223000E-01  5.01622893484E-01
  5.24711521752E-01  5.48862870168E-01  5.74125853465E-01  6.00551637818E-01
  6.28193744472E-01  6.57108158138E-01  6.87353440386E-01  7.18990848247E-01
  7.52084458286E-01  7.86701296372E-01  8.22911473431E-01  8.60788327447E-01
  9.00408571994E-01  9.41852451607E-01  9.85203904304E-01  1.03055073159E+00
  1.07798477630E+00  1.12760210856E+00  1.17950322045E+00  1.23379322944E+00
  1.29058209136E+00  1.34998482306E+00  1.41212173538E+00  1.47711867679E+00
  1.54510728831E+00  1.61622527012E+00  1.69061666044E+00  1.76843212724E+00
  1.84982927345E+00  1.93497295611E+00  2.02403562026E+00  2.11719764824E+00
  2.21464772499E+00  2.31658322022E+00  2.42321058815E+00  2.53474578563E+00
  2.65141470956E+00  2.77345365437E+00  2.90110979063E+00  3.03464166566E+00
  3.17431972712E+00  3.32042687082E+00  3.47325901367E+00  3.63312569298E+00
  3.80035069340E+00  3.97527270272E+00  4.15824599778E+00  4.34964116204E+00
  4.54984583610E+00  4.75926550285E+00  4.97832430868E+00  5.20746592254E+00
  5.44715443450E+00  5.69787529571E+00  5.96013630160E+00  6.23446862033E+00
  6.52142786859E+00  6.82159523693E+00  7.13557866685E+00  7.46401408210E+00
  7.80756667662E+00  8.16693226184E+00  8.54283867587E+00  8.93604725767E+00
  9.34735438898E+00  9.77759310732E+00  1.02276347931E+01  1.06983909346E+01
  1.11908149737E+01  1.17059042376E+01  1.22447019580E+01  1.28082993843E+01
  1.33978379941E+01  1.40145118043E+01  1.46595697903E+01  1.53343184150E+01
  1.60401242748E+01  1.67784168678E+01  1.75506914889E+01  1.83585122580E+01
  1.92035152884E+01  2.00874119998E+01  2.10119925853E+01  2.19791296364E+01
  2.29907819362E+01  2.40489984264E+01  2.51559223569E+01  2.63137956270E+01
  2.75249633258E+01  2.87918784818E+01  3.01171070310E+01  3.15033330143E+01
  3.29533640129E+01  3.44701368353E+01  3.60567234645E+01  3.77163372809E+01
  3.94523395696E+01  4.12682463283E+01  4.31677353890E+01  4.51546538661E+01
  4.72330259485E+01  4.94070610499E+01  5.16811623344E+01  5.40599356342E+01
  5.65481987783E+01  5.91509913497E+01  6.18735848931E+01  6.47214935906E+01
  6.77004854306E+01  7.08165938898E+01  7.40761301526E+01  7.74856958938E+01
  8.10521966493E+01  8.47828558020E+01  8.86852292115E+01  9.27672205176E+01
  9.70370971477E+01
  </PP_R>
  <PP_RAB>
  2.52673012466E-05  2.64303010486E-05  2.76468312426E-05  2.89193557180E-05
  3.02504517716E-05  3.16428153279E-05  3.30992663990E-05  3.46227547959E-05
  3.62163661033E-05  3.78833279287E-05  3.96270164394E-05  4.14509632007E-05
  4.33588623280E-05  4.53545779690E-05  4.74421521300E-05  4.96258128620E-05
  5.19099828243E-05  5.42992882416E-05  5.67985682739E-05  5.94128848175E-05
  6.21475327566E-05  6.50080506880E-05  6.80002321380E-05  7.11301372966E-05
  7.44041052914E-05  7.78287670264E-05  8.14110586119E-05  8.51582354127E-05
  8.90778867424E-05  9.31779512343E-05  9.74667329203E-05  1.01952918049E-04
  1.06645592678E-04  1.11554261078E-04  1.16688864979E-04  1.22059803709E-04
  1.27677955255E-04  1.33554698293E-04  1.39701935236E-04  1.46132116340E-04
  1.52858264919E-04  1.59894003722E-04  1.67253582526E-04  1.74951906992E-04
  1.83004568858E-04  1.91427877516E-04  2.00238893044E-04  2.09455460762E-04
  2.19096247367E-04  2.29180778747E-04  2.39729479525E-04  2.50763714425E-04
  2.62305831542E-04  2.74379207610E-04  2.87008295340E-04  3.00218672950E-04
  3.14037095971E-04  3.28491551430E-04  3.43611314541E-04  3.59427007989E-04
  3.75970663961E-04  3.93275789011E-04  4.11377431933E-04  4.30312254740E-04
  4.50118606918E-04  4.70836603099E-04  4.92508204307E-04  5.15177302939E-04
  5.38889811666E-04  5.63693756424E-04  5.89639373676E-04  6.16779212164E-04
  6.45168239336E-04  6.74863952674E-04  7.05926496145E-04  7.38418782016E-04
  7.72406618268E-04  8.07958841887E-04  8.45147458273E-04  8.84047787084E-04
  9.24738614781E-04  9.67302354194E-04  1.01182521144E-03  1.05839736053E-03
  1.10711312597E-03  1.15807117383E-03  1.21137471158E-03  1.26713169711E-03
  1.32545505735E-03  1.38646291704E-03  1.45027883795E-03  1.51703206914E-03
  1.58685780869E-03  1.65989747761E-03  1.73629900617E-03  1.81621713358E-03
  1.89981372137E-03  1.98725808119E-03  2.07872731775E-03  2.17440668752E-03
  2.27448997392E-03  2.37917987981E-03  2.48868843801E-03  2.60323744079E-03
  2.72305888903E-03  2.84839546209E-03  2.97950100939E-03  3.11664106445E-03
  3.26009338275E-03  3.41014850426E-03  3.56711034188E-03  3.73129679697E-03
  3.90304040322E-03  4.08268900012E-03  4.27060643747E-03  4.46717331230E-03
  4.67278773970E-03  4.88786615917E-03  5.11284417800E-03  5.34817745356E-03
  5.59434261615E-03  5.85183823437E-03  6.12118582483E-03  6.40293090845E-03
  6.69764411531E-03  7.00592234037E-03  7.32838995238E-03  7.66570005847E-03
  8.01853582686E-03  8.38761187057E-03  8.77367569472E-03  9.17750921048E-03
  9.59993031873E-03  1.00417945666E-02  1.05039968801E-02  1.09874733770E-02
  1.14932032623E-02  1.20222108120E-02  1.25755674471E-02  1.31543939038E-02
  1.37598625036E-02  1.43931995272E-02  1.50556876987E-02  1.57486687830E-02
  1.64735463034E-02  1.72317883849E-02  1.80249307267E-02  1.88545797130E-02
  1.97224156667E-02  2.06301962520E-02  2.15797600350E-02  2.25730302068E-02
  2.36120184788E-02  2.46988291576E-02  2.58356634059E-02  2.70248237018E-02
  2.82687185012E-02  2.95698671162E-02  3.09309048173E-02  3.23545881711E-02
  3.38438006229E-02  3.54015583367E-02  3.70310163044E-02  3.87354747351E-02
  4.05183857397E-02  4.23833603223E-02  4.43341756937E-02  4.63747829217E-02
  4.85093149333E-02  5.07420948853E-02  5.30776449202E-02  5.55206953248E-02
  5.80761941113E-02  6.07493170379E-02  6.35454780920E-02  6.64703404555E-02
  6.95298279741E-02  7.27301371555E-02  7.60777497197E-02  7.95794457259E-02
  8.32423173054E-02  8.70737830248E-02  9.10816029116E-02  9.52738941707E-02
  9.96591476245E-02  1.04246244910E-01  1.09044476467E-01  1.14063560353E-01
  1.19313661930E-01  1.24805414447E-01  1.30549940579E-01  1.36558874955E-01
  1.42844387720E-01  1.49419209187E-01  1.56296655615E-01  1.63490656184E-01
  1.71015781203E-01  1.78887271623E-01  1.87121069900E-01  1.95733852292E-01
  2.04743062624E-01  2.14166947628E-01  2.24024593891E-01  2.34335966514E-01
  2.45121949553E-01  2.56404388307E-01  2.68206133572E-01  2.80551087915E-01
  2.93464254087E-01  3.06971785662E-01  3.21101040008E-01  3.35880633694E-01
  3.51340500448E-01  3.67511951783E-01  3.84427740414E-01  4.02122126595E-01
  4.20630947504E-01  4.39991689829E-01  4.60243565690E-01  4.81427592055E-01
  5.03586673819E-01  5.26765690693E-01  5.51011588109E-01  5.76373472294E-01
  6.02902709732E-01  6.30653031194E-01  6.59680640565E-01  6.90044328674E-01
  7.21805592365E-01  7.55028759051E-01  7.89781117000E-01  8.26133051612E-01
  8.64158187977E-01  9.03933539993E-01  9.45539666338E-01  9.89060833639E-01
  1.03458518713E+00  1.08220492919E+00  1.13201650606E+00  1.18412080322E+00
  1.23862334966E+00  1.29563453168E+00  1.35526981640E+00  1.41764998564E+00
  1.48290138058E+00  1.55115615759E+00  1.62255255590E+00  1.69723517764E+00
  1.77535528063E+00  1.85707108478E+00  1.94254809251E+00  2.03195942397E+00
  2.12548616768E+00  2.22331774724E+00  2.32565230505E+00  2.43269710354E+00
  2.54466894502E+00  2.66179461074E+00  2.78431132019E+00  2.91246721158E+00
  3.04652184438E+00  3.18674672504E+00  3.33342585686E+00  3.48685631522E+00
  3.64734884922E+00  3.81522851109E+00  3.99083531452E+00  4.17452492329E+00
  4.36666937165E+00
  </PP_RAB>
</PP_MESH>


<PP_LOCAL>
 -2.97233180461E+01 -2.97233157749E+01 -2.97233132899E+01 -2.97233105707E+01
 -2.97233075956E+01 -2.97233043402E+01 -2.97233007783E+01 -2.97232968809E+01
 -2.97232926165E+01 -2.97232879504E+01 -2.97232828450E+01 -2.97232772588E+01
 -2.97232711465E+01 -2.97232644586E+01 -2.97232571408E+01 -2.97232491339E+01
 -2.97232403730E+01 -2.97232307870E+01 -2.97232202983E+01 -2.97232088218E+01
 -2.97231962645E+01 -2.97231825247E+01 -2.97231674909E+01 -2.97231510414E+01
 -2.97231330427E+01 -2.97231133490E+01 -2.97230918008E+01 -2.97230682232E+01
 -2.97230424253E+01 -2.97230141980E+01 -2.97229833124E+01 -2.97229495182E+01
 -2.97229125416E+01 -2.97228720827E+01 -2.97228278138E+01 -2.97227793760E+01
 -2.97227263767E+01 -2.97226683865E+01 -2.97226049352E+01 -2.97225355087E+01
 -2.97224595442E+01 -2.97223764262E+01 -2.97222854810E+01 -2.97221859716E+01
 -2.97220770915E+01 -2.97219579583E+01 -2.97218276067E+01 -2.97216849803E+01
 -2.97215289232E+01 -2.97213581710E+01 -2.97211713400E+01 -2.97209669163E+01
 -2.97207432435E+01 -2.97204985093E+01 -2.97202307308E+01 -2.97199377385E+01
 -2.97196171588E+01 -2.97192663944E+01 -2.97188826041E+01 -2.97184626789E+01
 -2.97180032176E+01 -2.97175004987E+01 -2.97169504509E+01 -2.97163486199E+01
 -2.97156901324E+01 -2.97149696569E+01 -2.97141813604E+01 -2.97133188619E+01
 -2.97123751802E+01 -2.97113426785E+01 -2.97102130019E+01 -2.97089770111E+01
 -2.97076247081E+01 -2.97061451565E+01 -2.97045263931E+01 -2.97027553322E+01
 -2.97008176604E+01 -2.96986977224E+01 -2.96963783951E+01 -2.96938409515E+01
 -2.96910649105E+01 -2.96880278744E+01 -2.96847053500E+01 -2.96810705546E+01
 -2.96770942036E+01 -2.96727442786E+01 -2.96679857750E+01 -2.96627804264E+01
 -2.96570864043E+01 -2.96508579906E+01 -2.96440452213E+01 -2.96365934982E+01
 -2.96284431665E+01 -2.96195290552E+01 -2.96097799777E+01 -2.95991181891E+01
 -2.95874587969E+01 -2.95747091224E+01 -2.95607680076E+01 -2.95455250658E+01
 -2.95288598702E+01 -2.95106410780E+01 -2.94907254849E+01 -2.94689570073E+01
 -2.94451655867E+01 -2.94191660146E+01 -2.93907566733E+01 -2.93597181900E+01
 -2.93258120033E+01 -2.92887788384E+01 -2.92483370943E+01 -2.92041811419E+01
 -2.91559795373E+01 -2.91033731569E+01 -2.90459732622E+01 -2.89833595069E+01
 -2.89150779038E+01 -2.88406387727E+01 -2.87595146990E+01 -2.86711385380E+01
 -2.85749015095E+01 -2.84701514398E+01 -2.83561912153E+01 -2.82322775312E+01
 -2.80976200300E+01 -2.79513809446E+01 -2.77926753801E+01 -2.76205723877E+01
 -2.74340970108E+01 -2.72322335051E+01 -2.70139299592E+01 -2.67781045684E+01
 -2.65236538364E+01 -2.62494629971E+01 -2.59544189625E+01 -2.56374261068E+01
 -2.52974251837E+01 -2.49334156482E+01 -2.45444815981E+01 -2.41298214709E+01
 -2.36887815042E+01 -2.32208928061E+01 -2.27259116571E+01 -2.22038623889E+01
 -2.16550818419E+01 -2.10802640029E+01 -2.04805029652E+01 -1.98573318636E+01
 -1.92127549344E+01 -1.85492693831E+01 -1.78698733791E+01 -1.71780562968E+01
 -1.64777674065E+01 -1.57733596623E+01 -1.50695061691E+01 -1.43710883999E+01
 -1.36830573315E+01 -1.30102713364E+01 -1.23573177725E+01 -1.17283284789E+01
 -1.11268023961E+01 -1.05554507350E+01 -1.00160808847E+01 -9.50953398522E+00
 -9.03568737431E+00 -8.59352689059E+00 -8.18128576655E+00 -7.79663764757E+00
 -7.43692277738E+00 -7.09938050338E+00 -6.78135969854E+00 -6.48048242196E+00
 -6.19474483595E+00 -5.92255131515E+00 -5.66268995596E+00 -5.41426716178E+00
 -5.17662327195E+00 -4.94924963820E+00 -4.73172139457E+00 -4.52365205933E+00
 -4.32466891129E+00 -4.13440371905E+00 -3.95249226997E+00 -3.77857735393E+00
 -3.61231199438E+00 -3.45336163328E+00 -3.30140514752E+00 -3.15613503599E+00
 -3.01725715251E+00 -2.88449024086E+00 -2.75756540678E+00 -2.63622558490E+00
 -2.52022502071E+00 -2.40932877345E+00 -2.30331224032E+00 -2.20196070163E+00
 -2.10506888585E+00 -2.01244055396E+00 -1.92388810192E+00 -1.83923218077E+00
 -1.75830133332E+00 -1.68093164696E+00 -1.60696642162E+00 -1.53625585246E+00
 -1.46865672641E+00 -1.40403213212E+00 -1.34225118272E+00 -1.28318875067E+00
 -1.22672521436E+00 -1.17274621582E+00 -1.12114242916E+00 -1.07180933905E+00
 -1.02464702914E+00 -9.79559979624E-01 -9.36456873825E-01 -8.95250413222E-01
 -8.55857140650E-01 -8.18197271270E-01 -7.82194530977E-01 -7.47776001918E-01
 -7.14871974809E-01 -6.83415807750E-01 -6.53343791254E-01 -6.24595019210E-01
 -5.97111265530E-01 -5.70836866221E-01 -5.45718606645E-01 -5.21705613742E-01
 -4.98749252996E-01 -4.76803029930E-01 -4.55822495944E-01 -4.35765158285E-01
 -4.16590393991E-01 -3.98259367611E-01 -3.80734952553E-01 -3.63981655886E-01
 -3.47965546461E-01 -3.32654186181E-01 -3.18016564310E-01 -3.04023034662E-01
 -2.90645255556E-01 -2.77856132418E-01 -2.65629762904E-01 -2.53941384436E-01
 -2.42767324054E-01 -2.32084950467E-01 -2.21872628218E-01 -2.12109673864E-01
 -2.02776314086E-01 -1.93853645642E-01 -1.85323597078E-01 -1.77168892131E-01
 -1.69373014736E-01 -1.61920175578E-01 -1.54795280111E-01 -1.47983897985E-01
 -1.41472233826E-01 -1.35247099287E-01 -1.29295886344E-01 -1.23606541756E-01
 -1.18167542657E-01 -1.12967873214E-01 -1.07997002321E-01 -1.03244862264E-01
 -9.87018283368E-02 -9.43586993423E-02 -9.02066789603E-02 -8.62373579305E-02
 -8.24426970215E-02
</PP_LOCAL>


<PP_NONLOCAL>
  <PP_BETA>
    1    0             Beta    L
   219
  1.09119164250E-02  1.14141682567E-02  1.19395372411E-02  1.24890883887E-02
  1.30639335918E-02  1.36652383221E-02  1.42942192368E-02  1.49521508762E-02
  1.56403651833E-02  1.63602567647E-02  1.71132833675E-02  1.79009697042E-02
  1.87249117559E-02  1.95867777263E-02  2.04883128226E-02  2.14313440354E-02
  2.24177801346E-02  2.34496197971E-02  2.45289520792E-02  2.56579635859E-02
  2.68389403770E-02  2.80742741769E-02  2.93664671488E-02  3.07181361880E-02
  3.21320186492E-02  3.36109780717E-02  3.51580094237E-02  3.67762457792E-02
  3.84689649919E-02  4.02395939732E-02  4.20917191858E-02  4.40290918706E-02
  4.60556342237E-02  4.81754522666E-02  5.03928338776E-02  5.27122740862E-02
  5.51384716514E-02  5.76763304148E-02  6.03309974813E-02  6.31078487573E-02
  6.60125031801E-02  6.90508417131E-02  7.22290167528E-02  7.55534662947E-02
  7.90309185058E-02  8.26684106172E-02  8.64733125671E-02  9.04533266809E-02
  9.46165064431E-02  9.89712799992E-02  1.03526459246E-01  1.08291272770E-01
  1.13275355656E-01  1.18488796603E-01  1.23942141893E-01  1.29646437497E-01
  1.35613213655E-01  1.41854545825E-01  1.48383058059E-01  1.55211954874E-01
  1.62355048099E-01  1.69826778680E-01  1.77642257306E-01  1.85817275986E-01
  1.94368367049E-01  2.03312794737E-01  2.12668641907E-01  2.22454795713E-01
  2.32691018669E-01  2.43397975881E-01  2.54597270950E-01  2.66311495169E-01
  2.78564270758E-01  2.91380292739E-01  3.04785383599E-01  3.18806536603E-01
  3.33471966638E-01  3.48811177823E-01  3.64854990224E-01  3.81635639943E-01
  3.99186794490E-01  4.17543654874E-01  4.36742981469E-01  4.56823200530E-01
  4.77824437834E-01  4.99788612210E-01  5.22759511567E-01  5.46782855048E-01
  5.71906344793E-01  5.98179810565E-01  6.25655197729E-01  6.54386777629E-01
  6.84431054295E-01  7.15847078689E-01  7.48696311060E-01  7.83042741609E-01
  8.18953122070E-01  8.56496781721E-01  8.95746066180E-01  9.36775970383E-01
  9.79664569977E-01  1.02449277469E+00  1.07134457739E+00  1.12030703095E+00
  1.17147003668E+00  1.22492668215E+00  1.28077288844E+00  1.33910733649E+00
  1.40003150700E+00  1.46364938723E+00  1.53006700548E+00  1.59939240875E+00
  1.67173497490E+00  1.74720489842E+00  1.82591247195E+00  1.90796715133E+00
  1.99347642841E+00  2.08254443362E+00  2.17527031529E+00  2.27174606928E+00
  2.37205402307E+00  2.47626388713E+00  2.58442905244E+00  2.69658211322E+00
  2.81272966021E+00  2.93284598230E+00  3.05686569645E+00  3.18467472687E+00
  3.31610011638E+00  3.45089805737E+00  3.58873964402E+00  3.72919488236E+00
  3.87171473869E+00  4.01560936397E+00  4.16002775495E+00  4.30393047489E+00
  4.44606476658E+00  4.58493808565E+00  4.71879127054E+00  4.84557496510E+00
  4.96293187144E+00  5.06818462457E+00  5.15833922433E+00  5.23010336647E+00
  5.27992998877E+00  5.30408959717E+00  5.29877811997E+00  5.26026736806E+00
  5.18509924185E+00  5.07032501099E+00  4.91378342041E+00  4.71440417631E+00
  4.47251535633E+00  4.19012251658E+00  3.87111916315E+00  3.52138354493E+00
  3.14871523455E+00  2.76257689930E+00  2.37362465447E+00  1.99304073912E+00
  1.63171975386E+00  1.29939594463E+00  1.00382759520E+00  7.50163583134E-01
  5.40600675885E-01  3.74396433541E-01  2.48238825614E-01  1.56904914202E-01
  9.40843674598E-02  5.32167425136E-02  2.82014768880E-02  1.38831641636E-02
  6.27743891557E-03  2.56461220912E-03  9.21317345749E-04  2.75433412799E-04
  5.83029321428E-05  1.16326157773E-06 -6.94000232033E-06 -4.55795263725E-06
 -1.99740477429E-06 -6.97140527485E-07 -2.03130279228E-07 -5.00983511413E-08
 -1.04600475256E-08 -1.83553171967E-09 -2.67484430064E-10 -3.18760278112E-11
 -3.05102136875E-12 -2.29888676828E-13 -1.33861922524E-14 -6.11328854205E-16
  0.00000000000E+00  0.00000000000E+00  0.00000000000E+00  0.00000000000E+00
  0.00000000000E+00  0.00000000000E+00  0.00000000000E+00  0.00000000000E+00
  0.00000000000E+00  0.00000000000E+00  0.00000000000E+00  0.00000000000E+00
  0.00000000000E+00  0.00000000000E+00  0.00000000000E+00  0.00000000000E+00
  0.00000000000E+00  0.00000000000E+00  0.00000000000E+00  0.00000000000E+00
  0.00000000000E+00  0.00000000000E+00  0.00000000000E+00  0.00000000000E+00
  0.00000000000E+00  0.00000000000E+00  0.00000000000E+00
  </PP_BETA>
  <PP_DIJ>
    1                  Number of nonzero Dij
    1    1  1.16957606628E+00
  </PP_DIJ>
</PP_NONLOCAL>


<PP_PSWFC>
2S    0  2.00          Wavefunction
  2.28061240000E-04  2.38558440000E-04  2.49538800000E-04  2.61024580000E-04
  2.73039020000E-04  2.85606480000E-04  2.98752390000E-04  3.12503390000E-04
  3.26887320000E-04  3.41933330000E-04  3.57671890000E-04  3.74134870000E-04
  3.91355630000E-04  4.09369040000E-04  4.28211580000E-04  4.47921440000E-04
  4.68538520000E-04  4.90104600000E-04  5.12663350000E-04  5.36260480000E-04
  5.60943780000E-04  5.86763250000E-04  6.13771200000E-04  6.42022340000E-04
  6.71573900000E-04  7.02485750000E-04  7.34820510000E-04  7.68643690000E-04
  8.04023830000E-04  8.41032590000E-04  8.79744970000E-04  9.20239420000E-04
  9.62597970000E-04  1.00690650000E-03  1.05325470000E-03  1.10173660000E-03
  1.15245050000E-03  1.20549900000E-03  1.26098980000E-03  1.31903540000E-03
  1.37975340000E-03  1.44326690000E-03  1.50970470000E-03  1.57920160000E-03
  1.65189850000E-03  1.72794280000E-03  1.80748890000E-03  1.89069820000E-03
  1.97773950000E-03  2.06878950000E-03  2.16403300000E-03  2.26366360000E-03
  2.36788350000E-03  2.47690450000E-03  2.59094810000E-03  2.71024640000E-03
  2.83504180000E-03  2.96558830000E-03  3.10215160000E-03  3.24500980000E-03
  3.39445400000E-03  3.55078880000E-03  3.71433320000E-03  3.88542090000E-03
  4.06440160000E-03  4.25164090000E-03  4.44752220000E-03  4.65244650000E-03
  4.86683400000E-03  5.09112480000E-03  5.32577980000E-03  5.57128190000E-03
  5.82813710000E-03  6.09687560000E-03  6.37805320000E-03  6.67225250000E-03
  6.98008430000E-03  7.30218940000E-03  7.63923960000E-03  7.99194030000E-03
  8.36103140000E-03  8.74729010000E-03  9.15153220000E-03  9.57461520000E-03
  1.00174400000E-02  1.04809540000E-02  1.09661540000E-02  1.14740890000E-02
  1.20058630000E-02  1.25626400000E-02  1.31456460000E-02  1.37561760000E-02
  1.43955950000E-02  1.50653480000E-02  1.57669610000E-02  1.65020480000E-02
  1.72723210000E-02  1.80795920000E-02  1.89257890000E-02  1.98129560000E-02
  2.07432710000E-02  2.17190510000E-02  2.27427690000E-02  2.38170670000E-02
  2.49447670000E-02  2.61288960000E-02  2.73726990000E-02  2.86796610000E-02
  3.00535350000E-02  3.14983670000E-02  3.30185220000E-02  3.46187250000E-02
  3.63040940000E-02  3.80801840000E-02  3.99530350000E-02  4.19292250000E-02
  4.40159300000E-02  4.62209910000E-02  4.85529910000E-02  5.10213370000E-02
  5.36363540000E-02  5.64093920000E-02  5.93529420000E-02  6.24807640000E-02
  6.58080320000E-02  6.93514920000E-02  7.31296380000E-02  7.71628970000E-02
  8.14738390000E-02  8.60874020000E-02  9.10311230000E-02  9.63353900000E-02
  1.02033710000E-01  1.08162940000E-01  1.14763610000E-01  1.21880100000E-01
  1.29560890000E-01  1.37858740000E-01  1.46830770000E-01  1.56538460000E-01
  1.67047540000E-01  1.78427610000E-01  1.90751620000E-01  2.04094960000E-01
  2.18534240000E-01  2.34145590000E-01  2.51002410000E-01  2.69172570000E-01
  2.88714910000E-01  3.09675080000E-01  3.32080720000E-01  3.55936040000E-01
  3.81216000000E-01  4.07860320000E-01  4.35767680000E-01  4.64790660000E-01
  4.94731850000E-01  5.25341850000E-01  5.56319700000E-01  5.87316160000E-01
  6.17940180000E-01  6.47768460000E-01  6.76357740000E-01  7.03259030000E-01
  7.28032750000E-01  7.50263620000E-01  7.69573940000E-01  7.85634540000E-01
  7.98172620000E-01  8.06976450000E-01  8.11897290000E-01  8.12848980000E-01
  8.09806150000E-01  8.02801390000E-01  7.91922100000E-01  7.77307050000E-01
  7.59142580000E-01  7.37658640000E-01  7.13124220000E-01  6.85842340000E-01
  6.56144670000E-01  6.24385610000E-01  5.90936210000E-01  5.56177930000E-01
  5.20496240000E-01  4.84274450000E-01  4.47887530000E-01  4.11696340000E-01
  3.76042110000E-01  3.41241450000E-01  3.07581890000E-01  2.75318040000E-01
  2.44668500000E-01  2.15813570000E-01  1.88893830000E-01  1.64009610000E-01
  1.41221420000E-01  1.20551280000E-01  1.01984980000E-01  8.54750970000E-02
  7.09447920000E-02  5.82921310000E-02  4.73948360000E-02  3.81152710000E-02
  3.03054550000E-02  2.38119420000E-02  1.84803600000E-02  1.41594970000E-02
  1.07047720000E-02  7.98103950000E-03  5.86466740000E-03  4.24489950000E-03
  3.02452910000E-03  2.11996200000E-03  1.46075900000E-03  9.88770080000E-04
  6.56975680000E-04  4.28149640000E-04  2.73446490000E-04  1.71001470000E-04
  1.04611490000E-04  6.25449480000E-05  3.65088500000E-05  2.07842100000E-05
  1.15267480000E-05  6.21992080000E-06  3.26108620000E-06  1.65956250000E-06
  8.18667970000E-07  3.90913520000E-07  1.80412660000E-07  8.03596320000E-08
  3.45152480000E-08  1.43387890000E-08  5.93228830000E-09  2.35424230000E-09
  8.94471490000E-10  3.24711200000E-10  1.12391220000E-10  3.70099790000E-11
  1.15680410000E-11  3.42383290000E-12  9.57164160000E-13  2.52081250000E-13
  6.23708290000E-14  1.44564310000E-14  3.12948980000E-15  6.30743890000E-16
  1.17969830000E-16  2.04048250000E-17  3.25218780000E-18  4.75843400000E-19
  6.36631050000E-20  7.75635790000E-21  8.56845860000E-22  8.54407110000E-23
  7.65414440000E-24  6.12994000000E-25  4.36619470000E-26  2.75101980000E-27
  1.52467280000E-28  7.38903300000E-30  3.11203400000E-31  1.13172540000E-32
  3.52974210000E-34  0.00000000000E+00  0.00000000000E+00  0.00000000000E+00
  0.00000000000E+00
2P    1  2.00          Wavefunction
  8.98957130000E-07  9.83615700000E-07  1.07624690000E-06  1.17760160000E-06
  1.28850130000E-06  1.40984480000E-06  1.54261580000E-06  1.68789030000E-06
  1.84684590000E-06  2.02077100000E-06  2.21107530000E-06  2.41930140000E-06
  2.64713680000E-06  2.89642840000E-06  3.16919680000E-06  3.46765280000E-06
  3.79421550000E-06  4.15153180000E-06  4.54249780000E-06  4.97028250000E-06
  5.43835320000E-06  5.95050370000E-06  6.51088500000E-06  7.12403930000E-06
  7.79493630000E-06  8.52901360000E-06  9.33222110000E-06  1.02110690000E-05
  1.11726800000E-05  1.22248480000E-05  1.33761020000E-05  1.46357710000E-05
  1.60140660000E-05  1.75221570000E-05  1.91722670000E-05  2.09777700000E-05
  2.29532980000E-05  2.51148630000E-05  2.74799830000E-05  3.00678260000E-05
  3.28993630000E-05  3.59975440000E-05  3.93874750000E-05  4.30966280000E-05
  4.71550620000E-05  5.15956640000E-05  5.64544190000E-05  6.17706980000E-05
  6.75875790000E-05  7.39521970000E-05  8.09161190000E-05  8.85357710000E-05
  9.68728870000E-05  1.05995010000E-04  1.15976040000E-04  1.26896840000E-04
  1.38845870000E-04  1.51919910000E-04  1.66224870000E-04  1.81876590000E-04
  1.99001830000E-04  2.17739260000E-04  2.38240600000E-04  2.60671830000E-04
  2.85214540000E-04  3.12067380000E-04  3.41447680000E-04  3.73593200000E-04
  4.08764000000E-04  4.47244620000E-04  4.89346260000E-04  5.35409390000E-04
  5.85806410000E-04  6.40944640000E-04  7.01269620000E-04  7.67268660000E-04
  8.39474740000E-04  9.18470730000E-04  1.00489410000E-03  1.09944200000E-03
  1.20287660000E-03  1.31603150000E-03  1.43981810000E-03  1.57523260000E-03
  1.72336440000E-03  1.88540410000E-03  2.06265320000E-03  2.25653400000E-03
  2.46860100000E-03  2.70055250000E-03  2.95424410000E-03  3.23170270000E-03
  3.53514210000E-03  3.86697990000E-03  4.22985560000E-03  4.62665040000E-03
  5.06050850000E-03  5.53486060000E-03  6.05344890000E-03  6.62035380000E-03
  7.24002350000E-03  7.91730500000E-03  8.65747810000E-03  9.46629150000E-03
  1.03500010000E-02  1.13154120000E-02  1.23699220000E-02  1.35215680000E-02
  1.47790740000E-02  1.61519070000E-02  1.76503260000E-02  1.92854410000E-02
  2.10692740000E-02  2.30148110000E-02  2.51360720000E-02  2.74481650000E-02
  2.99673510000E-02  3.27110970000E-02  3.56981350000E-02  3.89485130000E-02
  4.24836320000E-02  4.63262830000E-02  5.05006690000E-02  5.50324050000E-02
  5.99485040000E-02  6.52773380000E-02  7.10485660000E-02  7.72930280000E-02
  8.40425970000E-02  9.13299840000E-02  9.91884820000E-02  1.07651650000E-01
  1.16752930000E-01  1.26525160000E-01  1.37000060000E-01  1.48207520000E-01
  1.60174940000E-01  1.72926350000E-01  1.86481480000E-01  2.00854780000E-01
  2.16054300000E-01  2.32080610000E-01  2.48925590000E-01  2.66571320000E-01
  2.84989010000E-01  3.04138010000E-01  3.23965010000E-01  3.44403510000E-01
  3.65373510000E-01  3.86781650000E-01  4.08521720000E-01  4.30475570000E-01
  4.52514570000E-01  4.74501410000E-01  4.96292330000E-01  5.17739610000E-01
  5.38694190000E-01  5.59008350000E-01  5.78538110000E-01  5.97145370000E-01
  6.14699520000E-01  6.31078490000E-01  6.46169150000E-01  6.59867260000E-01
  6.72076870000E-01  6.82709610000E-01  6.91684020000E-01  6.98925100000E-01
  7.04364440000E-01  7.07940810000E-01  7.09601510000E-01  7.09304040000E-01
  7.07018090000E-01  7.02727520000E-01  6.96432030000E-01  6.88148310000E-01
  6.77910670000E-01  6.65771070000E-01  6.51798520000E-01  6.36078260000E-01
  6.18710530000E-01  5.99809270000E-01  5.79500700000E-01  5.57921850000E-01