<PP_INFO>
Generated using Fritz-Haber code                                                
Author: unknown    Generation date: as well                                     
Info: automatically converted from FHI format                                   
    1        The Pseudo was generated with a Scalar-Relativistic Calculation
  0.00000000000E+00    Local Potential cutoff radius
nl pn  l   occ               Rcut            Rcut US             E pseu
2s  0  0  2.00      0.00000000000      0.00000000000      0.00000000000
2p  0  1  1.98      0.00000000000      0.00000000000      0.00000000000
3d  0  2  0.00      0.00000000000      0.00000000000      0.00000000000
</PP_INFO>


<PP_HEADER>
   0                   Version Number
  C                    Element
   NC                  Norm - Conserving pseudopotential
    F                  Nonlinear Core Correction
 SLA  PZ   NOGX NOGC   PZ   Exchange-Correlation functional
    3.98148000000      Z valence
    0.00000000000      Total energy
  0.0000000  0.0000000 Suggested cutoff for wfc and rho
    1                  Max angular momentum component
  461                  Number of points in mesh
    3    2             Number of Wavefunctions, Number of Projectors
 Wavefunctions         nl  l   occ
                       2s  0  2.00
                       2p  1  1.98
                       3d  2  0.00
</PP_HEADER>


<PP_MESH>
  <PP_R>
  1.04489189966E-03  1.07070072959E-03  1.09714703761E-03  1.12424656943E-03
  1.15201545970E-03  1.18047024155E-03  1.20962785652E-03  1.23950566458E-03
  1.27012145449E-03  1.30149345442E-03  1.33364034274E-03  1.36658125921E-03
  1.40033581631E-03  1.43492411097E-03  1.47036673651E-03  1.50668479491E-03
  1.54389990934E-03  1.58203423710E-03  1.62111048276E-03  1.66115191168E-03
  1.70218236390E-03  1.74422626829E-03  1.78730865712E-03  1.83145518095E-03
  1.87669212392E-03  1.92304641938E-03  1.97054566593E-03  2.01921814388E-03
  2.06909283204E-03  2.12019942499E-03  2.17256835079E-03  2.22623078905E-03
  2.28121868954E-03  2.33756479117E-03  2.39530264151E-03  2.45446661676E-03
  2.51509194219E-03  2.57721471316E-03  2.64087191658E-03  2.70610145292E-03
  2.77294215881E-03  2.84143383013E-03  2.91161724573E-03  2.98353419170E-03
  3.05722748624E-03  3.13274100515E-03  3.21011970797E-03  3.28940966476E-03
  3.37065808348E-03  3.45391333814E-03  3.53922499760E-03  3.62664385504E-03
  3.71622195826E-03  3.80801264062E-03  3.90207055285E-03  3.99845169550E-03
  4.09721345238E-03  4.19841462466E-03  4.30211546589E-03  4.40837771789E-03
  4.51726464752E-03  4.62884108432E-03  4.74317345910E-03  4.86032984354E-03
  4.98037999068E-03  5.10339537645E-03  5.22944924224E-03  5.35861663853E-03
  5.49097446950E-03  5.62660153890E-03  5.76557859691E-03  5.90798838825E-03
  6.05391570144E-03  6.20344741927E-03  6.35667257052E-03  6.51368238301E-03
  6.67457033787E-03  6.83943222522E-03  7.00836620118E-03  7.18147284635E-03
  7.35885522566E-03  7.54061894973E-03  7.72687223779E-03  7.91772598206E-03
  8.11329381382E-03  8.31369217102E-03  8.51904036764E-03  8.72946066472E-03
  8.94507834314E-03  9.16602177822E-03  9.39242251614E-03  9.62441535229E-03
  9.86213841149E-03  1.01057332303E-02  1.03553448410E-02  1.06111218586E-02
  1.08732165685E-02  1.11417850178E-02  1.14169871077E-02  1.16989866893E-02
  1.19879516605E-02  1.22840540665E-02  1.25874702019E-02  1.28983807159E-02
  1.32169707196E-02  1.35434298964E-02  1.38779526148E-02  1.42207380444E-02
  1.45719902741E-02  1.49319184339E-02  1.53007368192E-02  1.56786650186E-02
  1.60659280446E-02  1.64627564673E-02  1.68693865520E-02  1.72860603999E-02
  1.77130260918E-02  1.81505378362E-02  1.85988561208E-02  1.90582478670E-02
  1.95289865893E-02  2.00113525580E-02  2.05056329662E-02  2.10121221005E-02
  2.15311215164E-02  2.20629402178E-02  2.26078948412E-02  2.31663098438E-02
  2.37385176969E-02  2.43248590840E-02  2.49256831034E-02  2.55413474761E-02
  2.61722187587E-02  2.68186725621E-02  2.74810937743E-02  2.81598767906E-02
  2.88554257473E-02  2.95681547633E-02  3.02984881859E-02  3.10468608441E-02
  3.18137183069E-02  3.25995171491E-02  3.34047252227E-02  3.42298219357E-02
  3.50752985375E-02  3.59416584114E-02  3.68294173742E-02  3.77391039833E-02
  3.86712598517E-02  3.96264399700E-02  4.06052130373E-02  4.16081617993E-02
  4.26358833957E-02  4.36889897156E-02  4.47681077616E-02  4.58738800233E-02
  4.70069648599E-02  4.81680368919E-02  4.93577874032E-02  5.05769247520E-02
  5.18261747934E-02  5.31062813108E-02  5.44180064592E-02  5.57621312187E-02
  5.71394558598E-02  5.85508004195E-02  5.99970051899E-02  6.14789312181E-02
  6.29974608192E-02  6.45534981014E-02  6.61479695045E-02  6.77818243513E-02
  6.94560354128E-02  7.11715994875E-02  7.29295379948E-02  7.47308975833E-02
  7.65767507536E-02  7.84681964972E-02  8.04063609507E-02  8.23923980661E-02
  8.44274902984E-02  8.65128493088E-02  8.86497166867E-02  9.08393646888E-02
  9.30830969967E-02  9.53822494925E-02  9.77381910549E-02  1.00152324374E-01
  1.02626086786E-01  1.05160951130E-01  1.07758426623E-01  1.10420059760E-01
  1.13147435236E-01  1.15942176887E-01  1.18805948656E-01  1.21740455587E-01
  1.24747444840E-01  1.27828706728E-01  1.30986075784E-01  1.34221431856E-01
  1.37536701223E-01  1.40933857743E-01  1.44414924029E-01  1.47981972653E-01
  1.51637127377E-01  1.55382564424E-01  1.59220513765E-01  1.63153260455E-01
  1.67183145988E-01  1.71312569694E-01  1.75543990165E-01  1.79879926723E-01
  1.84322960913E-01  1.88875738047E-01  1.93540968777E-01  1.98321430706E-01
  2.03219970044E-01  2.08239503304E-01  2.13383019036E-01  2.18653579606E-01
  2.24054323022E-01  2.29588464801E-01  2.35259299882E-01  2.41070204589E-01
  2.47024638642E-01  2.53126147216E-01  2.59378363053E-01  2.65785008620E-01
  2.72349898333E-01  2.79076940822E-01  2.85970141260E-01  2.93033603749E-01
  3.00271533762E-01  3.07688240646E-01  3.15288140190E-01  3.23075757252E-01
  3.31055728456E-01  3.39232804949E-01  3.47611855232E-01  3.56197868056E-01
  3.64995955397E-01  3.74011355495E-01  3.83249435976E-01  3.92715697044E-01
  4.02415774761E-01  4.12355444398E-01  4.22540623875E-01  4.32977377284E-01
  4.43671918503E-01  4.54630614890E-01  4.65859991078E-01  4.77366732858E-01
  4.89157691159E-01  5.01239886131E-01  5.13620511318E-01  5.26306937948E-01
  5.39306719315E-01  5.52627595282E-01  5.66277496886E-01  5.80264551059E-01
  5.94597085470E-01  6.09283633481E-01  6.24332939228E-01  6.39753962827E-01
  6.55555885709E-01  6.71748116086E-01  6.88340294553E-01  7.05342299829E-01
  7.22764254634E-01  7.40616531724E-01  7.58909760058E-01  7.77654831131E-01
  7.96862905460E-01  8.16545419225E-01  8.36714091080E-01  8.57380929129E-01
  8.78558238079E-01  9.00258626559E-01  9.22495014635E-01  9.45280641497E-01
  9.68629073342E-01  9.92554211453E-01  1.01707030048E+00  1.04219193690E+00
  1.06793407774E+00  1.09431204946E+00  1.12134155708E+00  1.14903869354E+00
  1.17741994927E+00  1.20650222202E+00  1.23630282690E+00  1.26683950673E+00
  1.29813044254E+00  1.33019426447E+00  1.36305006281E+00  1.39671739936E+00
  1.43121631912E+00  1.46656736220E+00  1.50279157605E+00  1.53991052798E+00
  1.57794631802E+00  1.61692159208E+00  1.65685955540E+00  1.69778398642E+00
  1.73971925088E+00  1.78269031638E+00  1.82672276719E+00  1.87184281954E+00
  1.91807733719E+00  1.96545384741E+00  2.01400055745E+00  2.06374637121E+00
  2.11472090658E+00  2.16695451298E+00  2.22047828945E+00  2.27532410320E+00
  2.33152460855E+00  2.38911326638E+00  2.44812436406E+00  2.50859303585E+00
  2.57055528383E+00  2.63404799934E+00  2.69910898493E+00  2.76577697686E+00
  2.83409166818E+00  2.90409373239E+00  2.97582484758E+00  3.04932772131E+00
  3.12464611603E+00  3.20182487510E+00  3.28090994951E+00  3.36194842526E+00
  3.44498855137E+00  3.53007976859E+00  3.61727273887E+00  3.70661937552E+00
  3.79817287410E+00  3.89198774409E+00  3.98811984136E+00  4.08662640145E+00
  4.18756607356E+00  4.29099895558E+00  4.39698662978E+00  4.50559219954E+00
  4.61688032687E+00  4.73091727094E+00  4.84777092753E+00  4.96751086944E+00
  5.09020838792E+00  5.21593653510E+00  5.34477016752E+00  5.47678599065E+00
  5.61206260462E+00  5.75068055096E+00  5.89272236057E+00  6.03827260287E+00
  6.18741793616E+00  6.34024715919E+00  6.49685126402E+00  6.65732349024E+00
  6.82175938045E+00  6.99025683714E+00  7.16291618102E+00  7.33984021069E+00
  7.52113426390E+00  7.70690628022E+00  7.89726686534E+00  8.09232935691E+00
  8.29220989203E+00  8.49702747636E+00  8.70690405503E+00  8.92196458518E+00
  9.14233711044E+00  9.36815283707E+00  9.59954621214E+00  9.83665500358E+00
  1.00796203822E+01  1.03285870056E+01  1.05837031046E+01  1.08451205713E+01
  1.11129950494E+01  1.13874860272E+01  1.16687569320E+01  1.19569752283E+01
  1.22523125164E+01  1.25549446356E+01  1.28650517680E+01  1.31828185467E+01
  1.35084341648E+01  1.38420924887E+01  1.41839921732E+01  1.45343367798E+01
  1.48933348983E+01  1.52612002703E+01  1.56381519170E+01  1.60244142693E+01
  1.64202173018E+01  1.68257966691E+01  1.72413938469E+01  1.76672562749E+01
  1.81036375049E+01  1.85507973512E+01  1.90090020458E+01  1.94785243963E+01
  1.99596439489E+01  2.04526471545E+01  2.09578275392E+01  2.14754858794E+01
  2.20059303806E+01  2.25494768610E+01  2.31064489395E+01  2.36771782283E+01
  2.42620045305E+01  2.48612760424E+01  2.54753495607E+01  2.61045906948E+01
  2.67493740850E+01  2.74100836249E+01  2.80871126904E+01  2.87808643739E+01
  2.94917517239E+01  3.02201979915E+01  3.09666368819E+01  3.17315128129E+01
  3.25152811793E+01  3.33184086245E+01  3.41413733175E+01  3.49846652384E+01
  3.58487864698E+01  3.67342514956E+01  3.76415875076E+01  3.85713347190E+01
  3.95240466866E+01  4.05002906397E+01  4.15006478185E+01  4.25257138197E+01
  4.35760989510E+01  4.46524285951E+01  4.57553435814E+01  4.68855005679E+01
  4.80435724319E+01  4.92302486709E+01  5.04462358131E+01  5.16922578377E+01
  5.29690566063E+01  5.42773923045E+01  5.56180438944E+01  5.69918095786E+01
  5.83995072752E+01  5.98419751049E+01  6.13200718900E+01  6.28346776656E+01
  6.43866942040E+01  6.59770455508E+01  6.76066785759E+01  6.92765635367E+01
  7.09876946561E+01  7.27410907141E+01  7.45377956548E+01  7.63788792074E+01
  7.82654375238E+01
  </PP_R>
  <PP_RAB>
  2.54952440946E-05  2.61249766238E-05  2.67702635464E-05  2.74314890560E-05
  2.81090468356E-05  2.88033402925E-05  2.95147827977E-05  3.02437979328E-05
  3.09908197418E-05  3.17562929894E-05  3.25406734262E-05  3.33444280598E-05
  3.41680354329E-05  3.50119859081E-05  3.58767819600E-05  3.67629384745E-05
  3.76709830548E-05  3.86014563362E-05  3.95549123077E-05  4.05319186417E-05
  4.15330570322E-05  4.25589235409E-05  4.36101289523E-05  4.46872991375E-05
  4.57910754262E-05  4.69221149892E-05  4.80810912294E-05  4.92686941828E-05
  5.04856309291E-05  5.17326260130E-05  5.30104218756E-05  5.43197792959E-05
  5.56614778445E-05  5.70363163473E-05  5.84451133610E-05  5.98887076611E-05
  6.13679587403E-05  6.28837473212E-05  6.44369758800E-05  6.60285691842E-05
  6.76594748431E-05  6.93306638717E-05  7.10431312693E-05  7.27978966117E-05
  7.45960046580E-05  7.64385259731E-05  7.83265575646E-05  8.02612235364E-05
  8.22436757578E-05  8.42750945490E-05  8.63566893844E-05  8.84896996122E-05
  9.06753951926E-05  9.29150774538E-05  9.52100798669E-05  9.75617688397E-05
  9.99715445300E-05  1.02440841680E-04  1.04971130469E-04  1.07563917392E-04
  1.10220746152E-04  1.12943198581E-04  1.15732895586E-04  1.18591498107E-04
  1.21520708111E-04  1.24522269601E-04  1.27597969660E-04  1.30749639511E-04
  1.33979155607E-04  1.37288440750E-04  1.40679465237E-04  1.44154248028E-04
  1.47714857954E-04  1.51363414946E-04  1.55102091295E-04  1.58933112950E-04
  1.62858760840E-04  1.66881372233E-04  1.71003342127E-04  1.75227124677E-04
  1.79555234657E-04  1.83990248953E-04  1.88534808102E-04  1.93191617862E-04
  1.97963450823E-04  2.02853148059E-04  2.07863620816E-04  2.12997852250E-04
  2.18258899200E-04  2.23649894011E-04  2.29174046393E-04  2.34834645339E-04
  2.40635061078E-04  2.46578747087E-04  2.52669242140E-04  2.58910172421E-04
  2.65305253680E-04  2.71858293446E-04  2.78573193294E-04  2.85453951168E-04
  2.92504663762E-04  2.99729528957E-04  3.07132848322E-04  3.14719029676E-04
  3.22492589709E-04  3.30458156674E-04  3.38620473144E-04  3.46984398831E-04
  3.55554913482E-04  3.64337119845E-04  3.73336246705E-04  3.82557651999E-04
  3.92006826003E-04  4.01689394606E-04  4.11611122652E-04  4.21777917382E-04
  4.32195831941E-04  4.42871068990E-04  4.53809984394E-04  4.65019091009E-04
  4.76505062557E-04  4.88274737602E-04  5.00335123621E-04  5.12693401174E-04
  5.25356928183E-04  5.38333244309E-04  5.51630075444E-04  5.65255338307E-04
  5.79217145163E-04  5.93523808649E-04  6.08183846722E-04  6.23205987736E-04
  6.38599175633E-04  6.54372575272E-04  6.70535577881E-04  6.87097806654E-04
  7.04069122479E-04  7.21459629804E-04  7.39279682660E-04  7.57539890822E-04
  7.76251126125E-04  7.95424528941E-04  8.15071514805E-04  8.35203781221E-04
  8.55833314617E-04  8.76972397488E-04  8.98633615706E-04  9.20829866014E-04
  9.43574363705E-04  9.66880650488E-04  9.90762602555E-04  1.01523443884E-03
  1.04031072948E-03  1.06600640450E-03  1.09233676269E-03  1.11931748073E-03
  1.14696462250E-03  1.17529464867E-03  1.20432442650E-03  1.23407123983E-03
  1.26455279946E-03  1.29578725360E-03  1.32779319877E-03  1.36058969078E-03
  1.39419625614E-03  1.42863290366E-03  1.46392013638E-03  1.50007896375E-03
  1.53713091416E-03  1.57509804774E-03  1.61400296952E-03  1.65386884286E-03
  1.69471940328E-03  1.73657897254E-03  1.77947247317E-03  1.82342544325E-03
  1.86846405170E-03  1.91461511378E-03  1.96190610709E-03  2.01036518793E-03
  2.06002120808E-03  2.11090373192E-03  2.16304305409E-03  2.21647021753E-03
  2.27121703190E-03  2.32731609259E-03  2.38480080008E-03  2.44370537984E-03
  2.50406490272E-03  2.56591530582E-03  2.62929341387E-03  2.69423696119E-03
  2.76078461414E-03  2.82897599411E-03  2.89885170116E-03  2.97045333818E-03
  3.04382353563E-03  3.11900597696E-03  3.19604542459E-03  3.27498774658E-03
  3.35587994392E-03  3.43877017854E-03  3.52370780195E-03  3.61074338465E-03
  3.69992874625E-03  3.79131698629E-03  3.88496251585E-03  3.98092108999E-03
  4.07924984091E-03  4.18000731198E-03  4.28325349259E-03  4.38904985386E-03
  4.49745938525E-03  4.60854663206E-03  4.72237773387E-03  4.83902046390E-03
  4.95854426936E-03  5.08102031281E-03  5.20652151454E-03  5.33512259595E-03
  5.46690012407E-03  5.60193255713E-03  5.74030029129E-03  5.88208570849E-03
  6.02737322549E-03  6.17624934416E-03  6.32880270296E-03  6.48512412972E-03
  6.64530669573E-03  6.80944577111E-03  6.97763908166E-03  7.14998676697E-03
  7.32659144012E-03  7.50755824869E-03  7.69299493743E-03  7.88301191238E-03
  8.07772230662E-03  8.27724204759E-03  8.48168992617E-03  8.69118766735E-03
  8.90586000273E-03  9.12583474480E-03  9.35124286299E-03  9.58221856171E-03
  9.81889936018E-03  1.00614261744E-02  1.03099434009E-02  1.05645990029E-02
  1.08255445983E-02  1.10929355498E-02  1.13669310579E-02  1.16476942550E-02
  1.19353923031E-02  1.22301964930E-02  1.25322823464E-02  1.28418297204E-02
  1.31590229145E-02  1.34840507805E-02  1.38171068347E-02  1.41583893735E-02
  1.45081015911E-02  1.48664517004E-02  1.52336530574E-02  1.56099242879E-02
  1.59954894178E-02  1.63905780064E-02  1.67954252832E-02  1.72102722877E-02
  1.76353660132E-02  1.80709595537E-02  1.85173122547E-02  1.89746898674E-02
  1.94433647071E-02  1.99236158154E-02  2.04157291260E-02  2.09199976354E-02
  2.14367215770E-02  2.19662086000E-02  2.25087739524E-02  2.30647406690E-02
  2.36344397635E-02  2.42182104257E-02  2.48164002232E-02  2.54293653087E-02
  2.60574706318E-02  2.67010901564E-02  2.73606070833E-02  2.80364140783E-02
  2.87289135060E-02  2.94385176696E-02  3.01656490560E-02  3.09107405877E-02
  3.16742358802E-02  3.24565895065E-02  3.32582672673E-02  3.40797464688E-02
  3.49215162066E-02  3.57840776569E-02  3.66679443750E-02  3.75736426011E-02
  3.85017115733E-02  3.94527038492E-02  4.04271856342E-02  4.14257371194E-02
  4.24489528263E-02  4.34974419611E-02  4.45718287775E-02  4.56727529483E-02
  4.68008699461E-02  4.79568514338E-02  4.91413856642E-02  5.03551778901E-02
  5.15989507840E-02  5.28734448684E-02  5.41794189566E-02  5.55176506048E-02
  5.68889365748E-02  5.82940933082E-02  5.97339574129E-02  6.12093861610E-02
  6.27212579992E-02  6.42704730718E-02  6.58579537566E-02  6.74846452144E-02
  6.91515159512E-02  7.08595583952E-02  7.26097894876E-02  7.44032512879E-02
  7.62410115947E-02  7.81241645811E-02  8.00538314463E-02  8.20311610830E-02
  8.40573307617E-02  8.61335468315E-02  8.82610454383E-02  9.04410932606E-02
  9.26749882642E-02  9.49640604743E-02  9.73096727680E-02  9.97132216854E-02
  1.02176138261E-01  1.04699888876E-01  1.07285976131E-01  1.09935939742E-01
  1.12651357453E-01  1.15433845982E-01  1.18285061978E-01  1.21206703009E-01
  1.24200508573E-01  1.27268261135E-01  1.30411787185E-01  1.33632958329E-01
  1.36933692399E-01  1.40315954602E-01  1.43781758680E-01  1.47333168120E-01
  1.50972297372E-01  1.54701313117E-01  1.58522435551E-01  1.62437939709E-01
  1.66450156820E-01  1.70561475694E-01  1.74774344143E-01  1.79091270444E-01
  1.83514824824E-01  1.88047640997E-01  1.92692417729E-01  1.97451920447E-01
  2.02328982882E-01  2.07326508760E-01  2.12447473526E-01  2.17694926122E-01
  2.23071990797E-01  2.28581868970E-01  2.34227841134E-01  2.40013268810E-01
  2.45941596549E-01  2.52016353984E-01  2.58241157927E-01  2.64619714528E-01
  2.71155821477E-01  2.77853370267E-01  2.84716348513E-01  2.91748842321E-01
  2.98955038727E-01  3.06339228183E-01  3.13905807119E-01  3.21659280555E-01
  3.29604264785E-01  3.37745490125E-01  3.46087803731E-01  3.54636172483E-01
  3.63395685944E-01  3.72371559386E-01  3.81569136903E-01  3.90993894585E-01
  4.00651443781E-01  4.10547534442E-01  4.20688058543E-01  4.31079053589E-01
  4.41726706213E-01  4.52637355856E-01  4.63817498546E-01  4.75273790760E-01
  4.87013053392E-01  4.99042275811E-01  5.11368620023E-01  5.23999424938E-01
  5.36942210734E-01  5.50204683339E-01  5.63794739017E-01  5.77720469071E-01
  5.91990164657E-01  6.06612321724E-01  6.21595646071E-01  6.36949058529E-01
  6.52681700274E-01  6.68802938271E-01  6.85322370846E-01  7.02249833406E-01
  7.19595404291E-01  7.37369410777E-01  7.55582435224E-01  7.74245321374E-01
  7.93369180812E-01  8.12965399578E-01  8.33045644947E-01  8.53621872377E-01
  8.74706332625E-01  8.96311579041E-01  9.18450475043E-01  9.41136201777E-01
  9.64382265961E-01  9.88202507930E-01  1.01261110988E+00  1.03762260429E+00
  1.06325188262E+00  1.08951420412E+00  1.11642520496E+00  1.14400090752E+00
  1.17225772994E+00  1.20121249587E+00  1.23088244451E+00  1.26128524089E+00
  1.29243898634E+00  1.32436222931E+00  1.35707397637E+00  1.39059370359E+00
  1.42494136806E+00  1.46013741986E+00  1.49620281413E+00  1.53315902363E+00
  1.57102805152E+00  1.60983244439E+00  1.64959530577E+00  1.69034030982E+00
  1.73209171547E+00  1.77487438084E+00  1.81871377805E+00  1.86363600837E+00
  1.90966781778E+00
  </PP_RAB>
</PP_MESH>


<PP_LOCAL>
 -1.25696700513E+01 -1.25696705548E+01 -1.25696710355E+01 -1.25696714934E+01
 -1.25696719286E+01 -1.25696723411E+01 -1.25696727306E+01 -1.25696730972E+01
 -1.25696734408E+01 -1.25696737611E+01 -1.25696740580E+01 -1.25696743313E+01
 -1.25696745807E+01 -1.25696748059E+01 -1.25696750066E+01 -1.25696751824E+01
 -1.25696753329E+01 -1.25696754578E+01 -1.25696755564E+01 -1.25696756283E+01
 -1.25696756730E+01 -1.25696756897E+01 -1.25696756778E+01 -1.25696756366E+01
 -1.25696755653E+01 -1.25696754631E+01 -1.25696753291E+01 -1.25696751623E+01
 -1.25696749618E+01 -1.25696747265E+01 -1.25696744552E+01 -1.25696741467E+01
 -1.25696737997E+01 -1.25696734128E+01 -1.25696729847E+01 -1.25696725137E+01
 -1.25696719983E+01 -1.25696714367E+01 -1.25696708270E+01 -1.25696701675E+01
 -1.25696694560E+01 -1.25696686904E+01 -1.25696678685E+01 -1.25696669878E+01
 -1.25696660459E+01 -1.25696650401E+01 -1.25696639676E+01 -1.25696628255E+01
 -1.25696616107E+01 -1.25696603199E+01 -1.25696589496E+01 -1.25696574964E+01
 -1.25696559563E+01 -1.25696543254E+01 -1.25696525995E+01 -1.25696507741E+01
 -1.25696488445E+01 -1.25696468060E+01 -1.25696446533E+01 -1.25696423810E+01
 -1.25696399834E+01 -1.25696374545E+01 -1.25696347881E+01 -1.25696319775E+01
 -1.25696290159E+01 -1.25696258958E+01 -1.25696226096E+01 -1.25696191492E+01
 -1.25696155063E+01 -1.25696116718E+01 -1.25696076364E+01 -1.25696033903E+01
 -1.25695989232E+01 -1.25695942242E+01 -1.25695892820E+01 -1.25695840845E+01
 -1.25695786192E+01 -1.25695728730E+01 -1.25695668318E+01 -1.25695604813E+01
 -1.25695538060E+01 -1.25695467899E+01 -1.25695394162E+01 -1.25695316670E+01
 -1.25695235239E+01 -1.25695149673E+01 -1.25695059765E+01 -1.25694965302E+01
 -1.25694866055E+01 -1.25694761789E+01 -1.25694652252E+01 -1.25694537183E+01
 -1.25694416307E+01 -1.25694289334E+01 -1.25694155961E+01 -1.25694015868E+01
 -1.25693868723E+01 -1.25693714171E+01 -1.25693551846E+01 -1.25693381358E+01
 -1.25693202301E+01 -1.25693014248E+01 -1.25692816750E+01 -1.25692609335E+01
 -1.25692391509E+01 -1.25692162752E+01 -1.25691922518E+01 -1.25691670236E+01
 -1.25691405302E+01 -1.25691127086E+01 -1.25690834925E+01 -1.25690528122E+01
 -1.25690205946E+01 -1.25689867629E+01 -1.25689512365E+01 -1.25689139308E+01
 -1.25688747569E+01 -1.25688336214E+01 -1.25687904265E+01 -1.25687450692E+01
 -1.25686974416E+01 -1.25686474301E+01 -1.25685949158E+01 -1.25685397735E+01
 -1.25684818721E+01 -1.25684210737E+01 -1.25683572335E+01 -1.25682901996E+01
 -1.25682198125E+01 -1.25681459047E+01 -1.25680683002E+01 -1.25679868145E+01
 -1.25679012536E+01 -1.25678114141E+01 -1.25677170821E+01 -1.25676180333E+01
 -1.25675140322E+01 -1.25674048313E+01 -1.25672901710E+01 -1.25671697786E+01
 -1.25670433679E+01 -1.25669106383E+01 -1.25667712743E+01 -1.25666249446E+01
 -1.25664713014E+01 -1.25663099797E+01 -1.25661405960E+01 -1.25659627478E+01
 -1.25657760126E+01 -1.25655799468E+01 -1.25653740847E+01 -1.25651579373E+01
 -1.25649309913E+01 -1.25646927078E+01 -1.25644425209E+01 -1.25641798368E+01
 -1.25639040318E+01 -1.25636144513E+01 -1.25633104080E+01 -1.25629911803E+01
 -1.25626560108E+01 -1.25623041040E+01 -1.25619346252E+01 -1.25615466977E+01
 -1.25611394014E+01 -1.25607117700E+01 -1.25602627892E+01 -1.25597913940E+01
 -1.25592964664E+01 -1.25587768323E+01 -1.25582312593E+01 -1.25576584531E+01
 -1.25570570549E+01 -1.25564256377E+01 -1.25557627032E+01 -1.25550666781E+01
 -1.25543359099E+01 -1.25535686633E+01 -1.25527631157E+01 -1.25519173529E+01
 -1.25510293639E+01 -1.25500970364E+01 -1.25491181510E+01 -1.25480903758E+01
 -1.25470112605E+01 -1.25458782299E+01 -1.25446885772E+01 -1.25434394568E+01
 -1.25421278768E+01 -1.25407506910E+01 -1.25393045899E+01 -1.25377860920E+01
 -1.25361915336E+01 -1.25345170583E+01 -1.25327586061E+01 -1.25309119007E+01
 -1.25289724374E+01 -1.25269354684E+01 -1.25247959882E+01 -1.25225487174E+01
 -1.25201880852E+01 -1.25177082109E+01 -1.25151028829E+01 -1.25123655375E+01
 -1.25094892342E+01 -1.25064666305E+01 -1.25032899532E+01 -1.24999509681E+01
 -1.24964409465E+01 -1.24927506290E+01 -1.24888701861E+01 -1.24847891750E+01
 -1.24804964924E+01 -1.24759803236E+01 -1.24712280863E+01 -1.24662263693E+01
 -1.24609608664E+01 -1.24554163030E+01 -1.24495763570E+01 -1.24434235721E+01
 -1.24369392635E+01 -1.24301034148E+01 -1.24228945661E+01 -1.24152896920E+01
 -1.24072640696E+01 -1.23987911343E+01 -1.23898423240E+01 -1.23803869107E+01
 -1.23703918181E+01 -1.23598214244E+01 -1.23486373511E+01 -1.23367982347E+01
 -1.23242594828E+01 -1.23109730128E+01 -1.22968869733E+01 -1.22819454480E+01
 -1.22660881414E+01 -1.22492500475E+01 -1.22313611011E+01 -1.22123458123E+01
 -1.21921228871E+01 -1.21706048334E+01 -1.21476975567E+01 -1.21232999473E+01
 -1.20973034635E+01 -1.20695917146E+01 -1.20400400501E+01 -1.20085151622E+01
 -1.19748747082E+01 -1.19389669646E+01 -1.19006305228E+01 -1.18596940391E+01
 -1.18159760555E+01 -1.17692849083E+01 -1.17194187419E+01 -1.16661656534E+01
 -1.16093039894E+01 -1.15486028244E+01 -1.14838226491E+01 -1.14147163024E+01
 -1.13410301820E+01 -1.12625057699E+01 -1.11788815135E+01 -1.10898951007E+01
 -1.09952861728E+01 -1.08947995123E+01 -1.07881887470E+01 -1.06752206043E+01
 -1.05556797452E+01 -1.04293742008E+01 -1.02961414223E+01 -1.01558549409E+01
 -1.00084316180E+01 -9.85383944175E+00 -9.69210579927E+00 -9.52332612152E+00
 -9.34767275646E+00 -9.16540388140E+00 -8.97687220993E+00 -8.78253318631E+00
 -8.58295228754E+00 -8.37881097042E+00 -8.17091070645E+00 -7.96017444132E+00
 -7.74764469669E+00 -7.53447740270E+00 -7.32193041280E+00 -7.11134551712E+00
 -6.90412265324E+00 -6.70168494279E+00 -6.50543320792E+00 -6.31668882054E+00
 -6.13662422756E+00 -5.96618145106E+00 -5.80598052976E+00 -5.65622258535E+00
 -5.51659641569E+00 -5.38620382224E+00 -5.26352801611E+00 -5.14648236327E+00
 -5.03259464289E+00 -4.91940653804E+00 -4.80520156664E+00 -4.69022048139E+00
 -4.57716107048E+00 -4.46682790001E+00 -4.35915498600E+00 -4.25407800433E+00
 -4.15153423399E+00 -4.05146250542E+00 -3.95380315311E+00 -3.85849797167E+00
 -3.76549017481E+00 -3.67472435677E+00 -3.58614645579E+00 -3.49970371928E+00
 -3.41534467052E+00 -3.33301907665E+00 -3.25267791769E+00 -3.17427335676E+00
 -3.09775871100E+00 -3.02308842350E+00 -2.95021803594E+00 -2.87910416189E+00
 -2.80970446097E+00 -2.74197761349E+00 -2.67588329583E+00 -2.61138215643E+00
 -2.54843579228E+00 -2.48700672610E+00 -2.42705838399E+00 -2.36855507366E+00
 -2.31146196317E+00 -2.25574506018E+00 -2.20137119174E+00 -2.14830798452E+00
 -2.09652384553E+00 -2.04598794333E+00 -1.99667018965E+00 -1.94854122148E+00
 -1.90157238360E+00 -1.85573571153E+00 -1.81100391483E+00 -1.76735036092E+00
 -1.72474905916E+00 -1.68317464541E+00 -1.64260236695E+00 -1.60300806768E+00
 -1.56436817379E+00 -1.52665967970E+00 -1.48986013438E+00 -1.45394762797E+00
 -1.41890077873E+00 -1.38469872034E+00 -1.35132108943E+00 -1.31874801350E+00
 -1.28696009905E+00 -1.25593842008E+00 -1.22566450676E+00 -1.19612033450E+00
 -1.16728831316E+00 -1.13915127663E+00 -1.11169247256E+00 -1.08489555241E+00
 -1.05874456174E+00 -1.03322393065E+00 -1.00831846458E+00 -9.84013335196E-01
 -9.60294071627E-01 -9.37146551798E-01 -9.14556994045E-01 -8.92511948907E-01
 -8.70998291116E-01 -8.50003211785E-01 -8.29514210779E-01 -8.09519089274E-01
 -7.90005942494E-01 -7.70963152624E-01 -7.52379381892E-01 -7.34243565816E-01
 -7.16544906622E-01 -6.99272866812E-01 -6.82417162889E-01 -6.65967759236E-01
 -6.49914862141E-01 -6.34248913966E-01 -6.18960587456E-01 -6.04040780185E-01
 -5.89480609139E-01 -5.75271405425E-01 -5.61404709110E-01 -5.47872264185E-01
 -5.34666013648E-01 -5.21778094709E-01 -5.09200834106E-01 -4.96926743541E-01
 -4.84948515215E-01 -4.73259017483E-01 -4.61851290605E-01 -4.50718542603E-01
 -4.39854145216E-01 -4.29251629956E-01 -4.18904684255E-01 -4.08807147707E-01
 -3.98953008399E-01 -3.89336399336E-01 -3.79951594941E-01 -3.70793007652E-01
 -3.61855184592E-01 -3.53132804325E-01 -3.44620673685E-01 -3.36313724686E-01
 -3.28207011501E-01 -3.20295707526E-01 -3.12575102494E-01 -3.05040599682E-01
 -2.97687713167E-01 -2.90512065157E-01 -2.83509383388E-01 -2.76675498573E-01
 -2.70006341927E-01 -2.63497942741E-01 -2.57146426019E-01 -2.50948010168E-01
 -2.44899004750E-01 -2.38995808286E-01 -2.33234906105E-01 -2.27612868259E-01
 -2.22126347476E-01 -2.16772077170E-01 -2.11546869494E-01 -2.06447613442E-01
 -2.01471272999E-01 -1.96614885331E-01 -1.91875559023E-01 -1.87250472356E-01
 -1.82736871627E-01 -1.78332069510E-01 -1.74033443456E-01 -1.69838434133E-01
 -1.65744543899E-01 -1.61749335317E-01 -1.57850429703E-01 -1.54045505712E-01
 -1.50332297953E-01 -1.46708595640E-01 -1.43172241281E-01 -1.39721129385E-01
 -1.36353205216E-01 -1.33066463566E-01 -1.29858947561E-01 -1.26728747498E-01
 -1.23673999705E-01 -1.20692885435E-01 -1.17783629779E-01 -1.14944500614E-01
 -1.12173807567E-01 -1.09469901012E-01 -1.06831171086E-01 -1.04256046732E-01
 -1.01742994762E-01
</PP_LOCAL>


<PP_NONLOCAL>
  <PP_BETA>
    1    0             Beta    L
   377
  5.47373760945E-03  5.60893892840E-03  5.74747971993E-03  5.88944246901E-03
  6.03491169916E-03  6.18397401875E-03  6.33671817714E-03  6.49323511569E-03
  6.65361802203E-03  6.81796238552E-03  6.98636605410E-03  7.15892929254E-03
  7.33575484217E-03  7.51694798201E-03  7.70261659147E-03  7.89287121457E-03
  8.08782512578E-03  8.28759439742E-03  8.49229796881E-03  8.70205771705E-03
  8.91699852960E-03  9.13724837864E-03  9.36293839725E-03  9.59420295748E-03
  9.83117975037E-03  1.00740098679E-02  1.03228378871E-02  1.05778119558E-02
  1.08390838814E-02  1.11068092207E-02  1.13811473727E-02  1.16622616738E-02
  1.19503194946E-02  1.22454923396E-02  1.25479559498E-02  1.28578904066E-02
  1.31754802397E-02  1.35009145365E-02  1.38343870548E-02  1.41760963383E-02
  1.45262458347E-02  1.48850440166E-02  1.52527045060E-02  1.56294462015E-02
  1.60154934081E-02  1.64110759714E-02  1.68164294138E-02  1.72317950754E-02
  1.76574202572E-02  1.80935583683E-02  1.85404690772E-02  1.89984184659E-02
  1.94676791889E-02  1.99485306348E-02  2.04412590931E-02  2.09461579247E-02
  2.14635277364E-02  2.19936765596E-02  2.25369200343E-02  2.30935815964E-02
  2.36639926707E-02  2.42484928680E-02  2.48474301872E-02  2.54611612228E-02
  2.60900513768E-02  2.67344750766E-02  2.73948159975E-02  2.80714672916E-02
  2.87648318213E-02  2.94753223998E-02  3.02033620361E-02  3.09493841874E-02
  3.17138330169E-02  3.24971636583E-02  3.32998424867E-02  3.41223473960E-02
  3.49651680839E-02  3.58288063430E-02  3.67137763596E-02  3.76206050198E-02
  3.85498322232E-02  3.95020112042E-02  4.04777088612E-02  4.14775060946E-02
  4.25019981516E-02  4.35517949815E-02  4.46275215981E-02  4.57298184521E-02
  4.68593418120E-02  4.80167641550E-02  4.92027745669E-02  5.04180791527E-02