<PP_INFO>
Generated using Andrea Dal Corso code (rrkj3)
Author: Andrea Dal Corso   Generation date: unknown
Info:   CU LDA 3d10 4s1 RRKJ3 US
    0        The Pseudo was generated with a Non-Relativistic Calculation
  2.80000000000E+00    Local Potential cutoff radius
nl pn  l   occ               Rcut            Rcut US             E pseu
3D  3  2 10.00      1.80000000000      2.50000000000      0.00000000000
3D  3  2  0.00      1.80000000000      2.50000000000      0.00000000000
4P  2  1 -1.00      2.80000000000      2.80000000000      0.00000000000
4S  1  0  1.00      2.80000000000      2.80000000000      0.00000000000
</PP_INFO>


<PP_HEADER>
   0                   Version Number
  Cu                   Element
   US                  Ultrasoft pseudopotential
    F                  Nonlinear Core Correction
 SLA  PZ   NOGX NOGC   PZ   Exchange-Correlation functional
   11.00000000000      Z valence
  -87.51026251800      Total energy
  0.0000000  0.0000000 Suggested cutoff for wfc and rho
    2                  Max angular momentum component
  899                  Number of points in mesh
    2    3             Number of Wavefunctions, Number of Projectors
 Wavefunctions         nl  l   occ
                       3D  2 10.00
                       4S  0  1.00
</PP_HEADER>


<PP_MESH>
  <PP_R>
  1.40923153050E-04  1.43052933768E-04  1.45214902000E-04  1.47409544197E-04
  1.49637354163E-04  1.51898833166E-04  1.54194490046E-04  1.56524841338E-04
  1.58890411379E-04  1.61291732433E-04  1.63729344807E-04  1.66203796975E-04
  1.68715645698E-04  1.71265456153E-04  1.73853802058E-04  1.76481265803E-04
  1.79148438576E-04  1.81855920504E-04  1.84604320781E-04  1.87394257810E-04
  1.90226359337E-04  1.93101262597E-04  1.96019614456E-04  1.98982071555E-04
  2.01989300460E-04  2.05041977809E-04  2.08140790469E-04  2.11286435684E-04
  2.14479621239E-04  2.17721065614E-04  2.21011498147E-04  2.24351659199E-04
  2.27742300321E-04  2.31184184422E-04  2.34678085939E-04  2.38224791016E-04
  2.41825097675E-04  2.45479816002E-04  2.49189768323E-04  2.52955789394E-04
  2.56778726584E-04  2.60659440070E-04  2.64598803031E-04  2.68597701838E-04
  2.72657036262E-04  2.76777719669E-04  2.80960679230E-04  2.85206856130E-04
  2.89517205776E-04  2.93892698014E-04  2.98334317349E-04  3.02843063164E-04
  3.07419949946E-04  3.12066007514E-04  3.16782281250E-04  3.21569832335E-04
  3.26429737990E-04  3.31363091713E-04  3.36371003529E-04  3.41454600240E-04
  3.46615025677E-04  3.51853440957E-04  3.57171024745E-04  3.62568973521E-04
  3.68048501846E-04  3.73610842636E-04  3.79257247442E-04  3.84988986728E-04
  3.90807350161E-04  3.96713646896E-04  4.02709205876E-04  4.08795376125E-04
  4.14973527059E-04  4.21245048788E-04  4.27611352429E-04  4.34073870429E-04
  4.40634056881E-04  4.47293387854E-04  4.54053361727E-04  4.60915499522E-04
  4.67881345248E-04  4.74952466252E-04  4.82130453563E-04  4.89416922261E-04
  4.96813511831E-04  5.04321886538E-04  5.11943735796E-04  5.19680774555E-04
  5.27534743680E-04  5.35507410348E-04  5.43600568443E-04  5.51816038959E-04
  5.60155670412E-04  5.68621339254E-04  5.77214950296E-04  5.85938437137E-04
  5.94793762598E-04  6.03782919165E-04  6.12907929437E-04  6.22170846578E-04
  6.31573754784E-04  6.41118769750E-04  6.50808039143E-04  6.60643743091E-04
  6.70628094668E-04  6.80763340396E-04  6.91051760748E-04  7.01495670661E-04
  7.12097420059E-04  7.22859394381E-04  7.33784015116E-04  7.44873740351E-04
  7.56131065319E-04  7.67558522967E-04  7.79158684521E-04  7.90934160067E-04
  8.02887599134E-04  8.15021691299E-04  8.27339166783E-04  8.39842797070E-04
  8.52535395529E-04  8.65419818049E-04  8.78498963679E-04  8.91775775282E-04
  9.05253240196E-04  9.18934390909E-04  9.32822305736E-04  9.46920109518E-04
  9.61230974319E-04  9.75758120144E-04  9.90504815663E-04  1.00547437894E-03
  1.02067017820E-03  1.03609563256E-03  1.05175421280E-03  1.06764944218E-03
  1.08378489719E-03  1.10016420837E-03  1.11679106113E-03  1.13366919660E-03
  1.15080241243E-03  1.16819456364E-03  1.18584956357E-03  1.20377138465E-03
  1.22196405937E-03  1.24043168115E-03  1.25917840530E-03  1.27820844990E-03
  1.29752609680E-03  1.31713569254E-03  1.33704164937E-03  1.35724844621E-03
  1.37776062968E-03  1.39858281510E-03  1.41971968755E-03  1.44117600293E-03
  1.46295658898E-03  1.48506634644E-03  1.50751025009E-03  1.53029334991E-03
  1.55342077219E-03  1.57689772070E-03  1.60072947784E-03  1.62492140587E-03
  1.64947894808E-03  1.67440763000E-03  1.69971306071E-03  1.72540093402E-03
  1.75147702982E-03  1.77794721535E-03  1.80481744650E-03  1.83209376919E-03
  1.85978232070E-03  1.88788933109E-03  1.91642112453E-03  1.94538412082E-03
  1.97478483674E-03  2.00462988758E-03  2.03492598860E-03  2.06567995656E-03
  2.09689871121E-03  2.12858927693E-03  2.16075878421E-03  2.19341447134E-03
  2.22656368597E-03  2.26021388683E-03  2.29437264535E-03  2.32904764739E-03
  2.36424669498E-03  2.39997770804E-03  2.43624872622E-03  2.47306791064E-03
  2.51044354577E-03  2.54838404130E-03  2.58689793398E-03  2.62599388961E-03
  2.66568070494E-03  2.70596730968E-03  2.74686276848E-03  2.78837628299E-03
  2.83051719393E-03  2.87329498318E-03  2.91671927592E-03  2.96079984280E-03
  3.00554660214E-03  3.05096962214E-03  3.09707912318E-03  3.14388548009E-03
  3.19139922449E-03  3.23963104719E-03  3.28859180054E-03  3.33829250091E-03
  3.38874433118E-03  3.43995864323E-03  3.49194696048E-03  3.54472098053E-03
  3.59829257775E-03  3.65267380598E-03  3.70787690123E-03  3.76391428443E-03
  3.82079856422E-03  3.87854253980E-03  3.93715920382E-03  3.99666174527E-03
  4.05706355248E-03  4.11837821609E-03  4.18061953219E-03  4.24380150531E-03
  4.30793835168E-03  4.37304450234E-03  4.43913460648E-03  4.50622353462E-03
  4.57432638207E-03  4.64345847226E-03  4.71363536019E-03  4.78487283596E-03
  4.85718692831E-03  4.93059390821E-03  5.00511029254E-03  5.08075284780E-03
  5.15753859388E-03  5.23548480791E-03  5.31460902811E-03  5.39492905776E-03
  5.47646296920E-03  5.55922910792E-03  5.64324609664E-03  5.72853283955E-03
  5.81510852650E-03  5.90299263741E-03  5.99220494657E-03  6.08276552712E-03
  6.17469475557E-03  6.26801331639E-03  6.36274220665E-03  6.45890274076E-03
  6.55651655522E-03  6.65560561358E-03  6.75619221127E-03  6.85829898072E-03
  6.96194889637E-03  7.06716527989E-03  7.17397180541E-03  7.28239250486E-03
  7.39245177334E-03  7.50417437466E-03  7.61758544688E-03  7.73271050795E-03
  7.84957546151E-03  7.96820660267E-03  8.08863062392E-03  8.21087462120E-03
  8.33496609990E-03  8.46093298114E-03  8.58880360799E-03  8.71860675189E-03
  8.85037161909E-03  8.98412785724E-03  9.11990556206E-03  9.25773528411E-03
  9.39764803566E-03  9.53967529765E-03  9.68384902684E-03  9.83020166291E-03
  9.97876613583E-03  1.01295758732E-02  1.02826648079E-02  1.04380673856E-02
  1.05958185725E-02  1.07559538632E-02  1.09185092889E-02  1.10835214253E-02
  1.12510274008E-02  1.14210649049E-02  1.15936721968E-02  1.17688881138E-02
  1.19467520803E-02  1.21273041165E-02  1.23105848472E-02  1.24966355115E-02
  1.26854979714E-02  1.28772147220E-02  1.30718289001E-02  1.32693842949E-02
  1.34699253572E-02  1.36734972095E-02  1.38801456563E-02  1.40899171945E-02
  1.43028590235E-02  1.45190190561E-02  1.47384459293E-02  1.49611890149E-02
  1.51872984312E-02  1.54168250538E-02  1.56498205270E-02  1.58863372758E-02
  1.61264285176E-02  1.63701482738E-02  1.66175513824E-02  1.68686935102E-02
  1.71236311652E-02  1.73824217095E-02  1.76451233719E-02  1.79117952616E-02
  1.81824973808E-02  1.84572906386E-02  1.87362368646E-02  1.90193988230E-02
  1.93068402264E-02  1.95986257503E-02  1.98948210476E-02  2.01954927636E-02
  2.05007085507E-02  2.08105370837E-02  2.11250480753E-02  2.14443122919E-02
  2.17684015692E-02  2.20973888287E-02  2.24313480939E-02  2.27703545071E-02
  2.31144843461E-02  2.34638150415E-02  2.38184251944E-02  2.41783945934E-02
  2.45438042332E-02  2.49147363325E-02  2.52912743526E-02  2.56735030161E-02
  2.60615083261E-02  2.64553775854E-02  2.68551994163E-02  2.72610637803E-02
  2.76730619987E-02  2.80912867728E-02  2.85158322049E-02  2.89467938196E-02
  2.93842685850E-02  2.98283549349E-02  3.02791527904E-02  3.07367635830E-02
  3.12012902771E-02  3.16728373932E-02  3.21515110312E-02  3.26374188949E-02
  3.31306703156E-02  3.36313762768E-02  3.41396494396E-02  3.46556041676E-02
  3.51793565526E-02  3.57110244414E-02  3.62507274612E-02  3.67985870477E-02
  3.73547264716E-02  3.79192708664E-02  3.84923472572E-02  3.90740845885E-02
  3.96646137537E-02  4.02640676243E-02  4.08725810800E-02  4.14902910389E-02
  4.21173364883E-02  4.27538585161E-02  4.34000003424E-02  4.40559073519E-02
  4.47217271264E-02  4.53976094782E-02  4.60837064836E-02  4.67801725175E-02
  4.74871642874E-02  4.82048408697E-02  4.89333637446E-02  4.96728968327E-02
  5.04236065322E-02  5.11856617559E-02  5.19592339694E-02  5.27444972298E-02
  5.35416282245E-02  5.43508063115E-02  5.51722135592E-02  5.60060347877E-02
  5.68524576103E-02  5.77116724758E-02  5.85838727110E-02  5.94692545647E-02
  6.03680172516E-02  6.12803629970E-02  6.22064970827E-02  6.31466278926E-02
  6.41009669602E-02  6.50697290158E-02  6.60531320350E-02  6.70513972875E-02
  6.80647493873E-02  6.90934163428E-02  7.01376296085E-02  7.11976241368E-02
  7.22736384308E-02  7.33659145985E-02  7.44746984064E-02  7.56002393356E-02
  7.67427906377E-02  7.79026093914E-02  7.90799565608E-02  8.02750970541E-02
  8.14882997830E-02  8.27198377230E-02  8.39699879755E-02  8.52390318296E-02
  8.65272548254E-02  8.78349468186E-02  8.91624020454E-02  9.05099191888E-02
  9.18778014458E-02  9.32663565958E-02  9.46758970695E-02  9.61067400195E-02
  9.75592073914E-02  9.90336259966E-02  1.00530327585E-01  1.02049648922E-01
  1.03591931860E-01  1.05157523420E-01  1.06746775866E-01  1.08360046788E-01
  1.09997699176E-01  1.11660101512E-01  1.13347627841E-01  1.15060657864E-01
  1.16799577021E-01  1.18564776576E-01  1.20356653706E-01  1.22175611590E-01
  1.24022059502E-01  1.25896412901E-01  1.27799093524E-01  1.29730529483E-01
  1.31691155357E-01  1.33681412298E-01  1.35701748120E-01  1.37752617407E-01
  1.39834481615E-01  1.41947809171E-01  1.44093075584E-01  1.46270763546E-01
  1.48481363046E-01  1.50725371480E-01  1.53003293759E-01  1.55315642424E-01
  1.57662937764E-01  1.60045707929E-01  1.62464489055E-01  1.64919825376E-01
  1.67412269353E-01  1.69942381797E-01  1.72510731994E-01  1.75117897834E-01
  1.77764465939E-01  1.80451031799E-01  1.83178199903E-01  1.85946583874E-01
  1.88756806611E-01  1.91609500426E-01  1.94505307187E-01  1.97444878463E-01
  2.00428875669E-01  2.03457970218E-01  2.06532843668E-01  2.09654187880E-01
  2.12822705168E-01  2.16039108463E-01  2.19304121469E-01  2.22618478827E-01
  2.25982926282E-01  2.29398220849E-01  2.32865130984E-01  2.36384436755E-01
  2.39956930022E-01  2.43583414610E-01  2.47264706495E-01  2.51001633981E-01
  2.54795037894E-01  2.58645771766E-01  2.62554702027E-01  2.66522708204E-01
  2.70550683114E-01  2.74639533070E-01  2.78790178079E-01  2.83003552055E-01
  2.87280603024E-01  2.91622293340E-01  2.96029599903E-01  3.00503514374E-01
  3.05045043404E-01  3.09655208856E-01  3.14335048036E-01  3.19085613928E-01
  3.23907975429E-01  3.28803217591E-01  3.33772441865E-01  3.38816766345E-01
  3.43937326028E-01  3.49135273060E-01  3.54411777001E-01  3.59768025088E-01
  3.65205222498E-01  3.70724592623E-01  3.76327377346E-01  3.82014837317E-01
  3.87788252237E-01  3.93648921151E-01  3.99598162732E-01  4.05637315586E-01
  4.11767738547E-01  4.17990810986E-01  4.24307933121E-01  4.30720526331E-01
  4.37230033477E-01  4.43837919225E-01  4.50545670377E-01  4.57354796206E-01
  4.64266828793E-01  4.71283323376E-01  4.78405858694E-01  4.85636037349E-01
  4.92975486161E-01  5.00425856538E-01  5.07988824843E-01  5.15666092777E-01
  5.23459387757E-01  5.31370463308E-01  5.39401099455E-01  5.47553103125E-01
  5.55828308553E-01  5.64228577695E-01  5.72755800648E-01  5.81411896072E-01
  5.90198811626E-01  5.99118524402E-01  6.08173041374E-01  6.17364399846E-01
  6.26694667912E-01  6.36165944922E-01  6.45780361954E-01  6.55540082292E-01
  6.65447301914E-01  6.75504249986E-01  6.85713189364E-01  6.96076417103E-01
  7.06596264972E-01  7.17275099982E-01  7.28115324915E-01  7.39119378868E-01
  7.50289737800E-01  7.61628915088E-01  7.73139462095E-01  7.84823968742E-01
  7.96685064094E-01  8.08725416946E-01  8.20947736429E-01  8.33354772615E-01
  8.45949317142E-01  8.58734203833E-01  8.71712309344E-01  8.84886553801E-01
  8.98259901466E-01  9.11835361399E-01  9.25615988134E-01  9.39604882372E-01
  9.53805191673E-01  9.68220111166E-01  9.82852884268E-01  9.97706803416E-01
  1.01278521080E+00  1.02809149914E+00  1.04362911239E+00  1.05940154660E+00
  1.07541235063E+00  1.09166512697E+00  1.10816353258E+00  1.12491127965E+00
  1.14191213651E+00  1.15916992841E+00  1.17668853844E+00  1.19447190835E+00
  1.21252403949E+00  1.23084899364E+00  1.24945089402E+00  1.26833392611E+00
  1.28750233869E+00  1.30696044473E+00  1.32671262238E+00  1.34676331597E+00
  1.36711703699E+00  1.38777836510E+00  1.40875194921E+00  1.43004250844E+00
  1.45165483328E+00  1.47359378657E+00  1.49586430468E+00  1.51847139858E+00
  1.54142015494E+00  1.56471573734E+00  1.58836338739E+00  1.61236842589E+00
  1.63673625410E+00  1.66147235487E+00  1.68658229392E+00  1.71207172111E+00
  1.73794637166E+00  1.76421206747E+00  1.79087471844E+00  1.81794032378E+00
  1.84541497336E+00  1.87330484910E+00  1.90161622633E+00  1.93035547523E+00
  1.95952906226E+00  1.98914355159E+00  2.01920560662E+00  2.04972199142E+00
  2.08069957232E+00  2.11214531941E+00  2.14406630810E+00  2.17646972075E+00
  2.20936284827E+00  2.24275309176E+00  2.27664796415E+00  2.31105509194E+00
  2.34598221688E+00  2.38143719771E+00  2.41742801195E+00  2.45396275770E+00
  2.49104965543E+00  2.52869704983E+00  2.56691341174E+00  2.60570733999E+00
  2.64508756339E+00  2.68506294265E+00  2.72564247240E+00  2.76683528320E+00
  2.80865064362E+00  2.85109796228E+00  2.89418679001E+00  2.93792682198E+00
  2.98232789987E+00  3.02740001413E+00  3.07315330616E+00  3.11959807065E+00
  3.16674475787E+00  3.21460397601E+00  3.26318649362E+00  3.31250324195E+00
  3.36256531748E+00  3.41338398440E+00  3.46497067712E+00  3.51733700285E+00
  3.57049474425E+00  3.62445586203E+00  3.67923249767E+00  3.73483697614E+00
  3.79128180869E+00  3.84857969565E+00  3.90674352926E+00  3.96578639666E+00
  4.02572158272E+00  4.08656257313E+00  4.14832305735E+00  4.21101693176E+00
  4.27465830275E+00  4.33926148989E+00  4.40484102917E+00  4.47141167627E+00
  4.53898840986E+00  4.60758643498E+00  4.67722118650E+00  4.74790833251E+00
  4.81966377793E+00  4.89250366803E+00  4.96644439210E+00  5.04150258711E+00
  5.11769514147E+00  5.19503919882E+00  5.27355216192E+00  5.35325169650E+00
  5.43415573529E+00  5.51628248205E+00  5.59965041564E+00  5.68427829419E+00
  5.77018515935E+00  5.85739034051E+00  5.94591345920E+00  6.03577443351E+00
  6.12699348253E+00  6.21959113093E+00  6.31358821358E+00  6.40900588021E+00
  6.50586560020E+00  6.60418916739E+00  6.70399870501E+00  6.80531667063E+00
  6.90816586120E+00  7.01256941824E+00  7.11855083298E+00  7.22613395169E+00
  7.33534298102E+00  7.44620249347E+00  7.55873743289E+00  7.67297312013E+00
  7.78893525869E+00  7.90664994054E+00  8.02614365199E+00  8.14744327962E+00
  8.27057611635E+00  8.39556986761E+00  8.52245265750E+00  8.65125303520E+00
  8.78199998133E+00  8.91472291450E+00  9.04945169794E+00  9.18621664619E+00
  9.32504853194E+00  9.46597859294E+00  9.60903853907E+00  9.75426055941E+00
  9.90167732952E+00  1.00513220188E+01  1.02032282979E+01  1.03574303465E+01
  1.05139628606E+01  1.06728610607E+01  1.08341606995E+01  1.09978980702E+01
  1.11641100144E+01  1.13328339304E+01  1.15041077819E+01  1.16779701061E+01
  1.18544600229E+01  1.20336172432E+01  1.22154820782E+01  1.24000954482E+01
  1.25874988919E+01  1.27777345760E+01  1.29708453043E+01  1.31668745275E+01
  1.33658663530E+01  1.35678655549E+01  1.37729175837E+01  1.39810685771E+01
  1.41923653699E+01  1.44068555048E+01  1.46245872429E+01  1.48456095749E+01
  1.50699722317E+01  1.52977256958E+01  1.55289212127E+01  1.57636108024E+01
  1.60018472710E+01  1.62436842228E+01  1.64891760720E+01  1.67383780555E+01
  1.69913462446E+01  1.72481375583E+01  1.75088097757E+01  1.77734215492E+01
  1.80420324175E+01  1.83147028192E+01  1.85914941064E+01  1.88724685581E+01
  1.91576893949E+01  1.94472207926E+01  1.97411278970E+01  2.00394768385E+01
  2.03423347468E+01  2.06497697663E+01  2.09618510711E+01  2.12786488808E+01
  2.16002344763E+01  2.19266802156E+01  2.22580595505E+01  2.25944470427E+01
  2.29359183808E+01  2.32825503974E+01  2.36344210859E+01  2.39916096190E+01
  2.43541963654E+01  2.47222629087E+01  2.50958920655E+01  2.54751679039E+01
  2.58601757625E+01  2.62510022698E+01  2.66477353633E+01  2.70504643097E+01
  2.74592797247E+01  2.78742735935E+01  2.82955392914E+01  2.87231716050E+01
  2.91572667535E+01  2.95979224099E+01  3.00452377238E+01  3.04993133429E+01
  3.09602514362E+01  3.14281557167E+01  3.19031314648E+01  3.23852855521E+01
  3.28747264652E+01  3.33715643305E+01  3.38759109386E+01  3.43878797695E+01
  3.49075860184E+01  3.54351466215E+01  3.59706802821E+01  3.65143074975E+01
  3.70661505861E+01  3.76263337149E+01  3.81949829276E+01  3.87722261726E+01
  3.93581933320E+01  3.99530162510E+01  4.05568287672E+01  4.11697667410E+01
  4.17919680860E+01  4.24235728001E+01  4.30647229970E+01  4.37155629383E+01
  4.43762390657E+01  4.50469000341E+01  4.57276967451E+01  4.64187823807E+01
  4.71203124382E+01  4.78324447648E+01  4.85553395933E+01  4.92891595780E+01
  5.00340698315E+01  5.07902379619E+01  5.15578341101E+01  5.23370309884E+01
  5.31280039195E+01  5.39309308757E+01  5.47459925188E+01  5.55733722412E+01
  5.64132562068E+01  5.72658333930E+01  5.81312956333E+01  5.90098376604E+01
  5.99016571500E+01  6.08069547651E+01  6.17259342015E+01  6.26588022336E+01
  6.36057687605E+01  6.45670468537E+01  6.55428528048E+01  6.65334061744E+01
  6.75389298410E+01  6.85596500517E+01  6.95957964730E+01  7.06476022421E+01
  7.17153040197E+01  7.27991420433E+01  7.38993601810E+01  7.50162059864E+01
  7.61499307547E+01  7.73007895787E+01  7.84690414065E+01  7.96549490996E+01
  8.08587794923E+01  8.20808034515E+01  8.33212959378E+01  8.45805360671E+01
  8.58588071739E+01  8.71563968746E+01  8.84735971322E+01  8.98107043225E+01
  9.11680193001E+01  9.25458474667E+01  9.39444988393E+01  9.53642881206E+01
  9.68055347690E+01  9.82685630711E+01  9.97537022145E+01
  </PP_R>
  <PP_RAB>
  2.11384729576E-06  2.14579400653E-06  2.17822353000E-06  2.21114316295E-06
  2.24456031245E-06  2.27848249749E-06  2.31291735070E-06  2.34787262007E-06
  2.38335617069E-06  2.41937598650E-06  2.45594017211E-06  2.49305695462E-06
  2.53073468547E-06  2.56898184230E-06  2.60780703087E-06  2.64721898704E-06
  2.68722657864E-06  2.72783880756E-06  2.76906481172E-06  2.81091386715E-06
  2.85339539005E-06  2.89651893895E-06  2.94029421684E-06  2.98473107333E-06
  3.02983950690E-06  3.07562966714E-06  3.12211185703E-06  3.16929653527E-06
  3.21719431859E-06  3.26581598421E-06  3.31517247220E-06  3.36527488799E-06
  3.41613450482E-06  3.46776276633E-06  3.52017128908E-06  3.57337186524E-06
  3.62737646513E-06  3.68219724003E-06  3.73784652485E-06  3.79433684090E-06
  3.85168089875E-06  3.90989160106E-06  3.96898204546E-06  4.02896552757E-06
  4.08985554393E-06  4.15166579503E-06  4.21441018846E-06  4.27810284195E-06
  4.34275808663E-06  4.40839047021E-06  4.47501476023E-06  4.54264594746E-06
  4.61129924919E-06  4.68099011271E-06  4.75173421875E-06  4.82354748503E-06
  4.89644606985E-06  4.97044637569E-06  5.04556505294E-06  5.12181900360E-06
  5.19922538516E-06  5.27780161435E-06  5.35756537118E-06  5.43853460282E-06
  5.52072752768E-06  5.60416263954E-06  5.68885871162E-06  5.77483480092E-06
  5.86211025241E-06  5.95070470344E-06  6.04063808814E-06  6.13193064188E-06
  6.22460290589E-06  6.31867573182E-06  6.41417028644E-06  6.51110805643E-06
  6.60951085321E-06  6.70940081781E-06  6.81080042590E-06  6.91373249282E-06
  7.01822017872E-06  7.12428699377E-06  7.23195680345E-06  7.34125383392E-06
  7.45220267747E-06  7.56482829807E-06  7.67915603694E-06  7.79521161832E-06
  7.91302115520E-06  8.03261115523E-06  8.15400852665E-06  8.27724058439E-06
  8.40233505618E-06  8.52932008881E-06  8.65822425444E-06  8.78907655705E-06
  8.92190643897E-06  9.05674378748E-06  9.19361894155E-06  9.33256269866E-06
  9.47360632176E-06  9.61678154624E-06  9.76212058715E-06  9.90965614637E-06
  1.00594214200E-05  1.02114501059E-05  1.03657764112E-05  1.05224350599E-05
  1.06814613009E-05  1.08428909157E-05  1.10067602267E-05  1.11731061053E-05
  1.13419659798E-05  1.15133778445E-05  1.16873802678E-05  1.18640124010E-05
  1.20433139870E-05  1.22253253695E-05  1.24100875017E-05  1.25976419560E-05
  1.27880309329E-05  1.29812972707E-05  1.31774844552E-05  1.33766366292E-05
  1.35787986029E-05  1.37840158636E-05  1.39923345860E-05  1.42038016428E-05
  1.44184646148E-05  1.46363718022E-05  1.48575722350E-05  1.50821156842E-05
  1.53100526730E-05  1.55414344884E-05  1.57763131920E-05  1.60147416327E-05
  1.62567734578E-05  1.65024631255E-05  1.67518659170E-05  1.70050379491E-05
  1.72620361864E-05  1.75229184547E-05  1.77877434535E-05  1.80565707697E-05
  1.83294608905E-05  1.86064752173E-05  1.88876760795E-05  1.91731267486E-05
  1.94628914520E-05  1.97570353881E-05  2.00556247405E-05  2.03587266932E-05
  2.06664094452E-05  2.09787422265E-05  2.12957953133E-05  2.16176400439E-05
  2.19443488347E-05  2.22759951966E-05  2.26126537514E-05  2.29544002487E-05
  2.33013115829E-05  2.36534658105E-05  2.40109421676E-05  2.43738210881E-05
  2.47421842211E-05  2.51161144500E-05  2.54956959106E-05  2.58810140103E-05
  2.62721554474E-05  2.66692082302E-05  2.70722616975E-05  2.74814065378E-05
  2.78967348105E-05  2.83183399663E-05  2.87463168680E-05  2.91807618123E-05
  2.96217725511E-05  3.00694483137E-05  3.05238898290E-05  3.09851993483E-05
  3.14534806682E-05  3.19288391539E-05  3.24113817632E-05  3.29012170701E-05
  3.33984552896E-05  3.39032083024E-05  3.44155896802E-05  3.49357147108E-05
  3.54637004246E-05  3.59996656207E-05  3.65437308933E-05  3.70960186596E-05
  3.76566531866E-05  3.82257606194E-05  3.88034690097E-05  3.93899083441E-05
  3.99852105741E-05  4.05895096452E-05  4.12029415272E-05  4.18256442448E-05
  4.24577579089E-05  4.30994247476E-05  4.37507891387E-05  4.44119976420E-05
  4.50831990321E-05  4.57645443321E-05  4.64561868477E-05  4.71582822013E-05
  4.78709883674E-05  4.85944657078E-05  4.93288770080E-05  5.00743875137E-05
  5.08311649678E-05  5.15993796484E-05  5.23792044072E-05  5.31708147079E-05
  5.39743886663E-05  5.47901070898E-05  5.56181535185E-05  5.64587142664E-05
  5.73119784633E-05  5.81781380970E-05  5.90573880573E-05  5.99499261791E-05
  6.08559532871E-05  6.17756732414E-05  6.27092929828E-05  6.36570225796E-05
  6.46190752751E-05  6.55956675352E-05  6.65870190971E-05  6.75933530193E-05
  6.86148957311E-05  6.96518770839E-05  7.07045304029E-05  7.17730925395E-05
  7.28578039247E-05  7.39589086232E-05  7.50766543881E-05  7.62112927170E-05
  7.73630789083E-05  7.85322721187E-05  7.97191354216E-05  8.09239358664E-05
  8.21469445381E-05  8.33884366189E-05  8.46486914497E-05  8.59279925932E-05
  8.72266278975E-05  8.85448895612E-05  8.98830741985E-05  9.12414829067E-05
  9.26204213335E-05  9.40201997459E-05  9.54411330998E-05  9.68835411114E-05
  9.83477483284E-05  9.98340842037E-05  1.01342883169E-04  1.02874484711E-04
  1.04429233446E-04  1.06007479198E-04  1.07609577081E-04  1.09235887573E-04
  1.10886776600E-04  1.12562615620E-04  1.14263781703E-04  1.15990657619E-04
  1.17743631923E-04  1.19523099040E-04  1.21329459359E-04  1.23163119318E-04
  1.25024491498E-04  1.26913994717E-04  1.28832054120E-04  1.30779101278E-04
  1.32755574286E-04  1.34761917859E-04  1.36798583431E-04  1.38866029262E-04
  1.40964720535E-04  1.43095129465E-04  1.45257735403E-04  1.47453024944E-04
  1.49681492037E-04  1.51943638098E-04  1.54239972119E-04  1.56571010784E-04
  1.58937278587E-04  1.61339307948E-04  1.63777639334E-04  1.66252821380E-04
  1.68765411012E-04  1.71315973573E-04  1.73905082952E-04  1.76533321707E-04
  1.79201281205E-04  1.81909561747E-04  1.84658772708E-04  1.87449532672E-04
  1.90282469571E-04  1.93158220829E-04  1.96077433502E-04  1.99040764424E-04
  2.02048880358E-04  2.05102458142E-04  2.08202184845E-04  2.11348757918E-04
  2.14542885353E-04  2.17785285842E-04  2.21076688939E-04  2.24417835224E-04
  2.27809476469E-04  2.31252375807E-04  2.34747307905E-04  2.38295059137E-04
  2.41896427764E-04  2.45552224107E-04  2.49263270736E-04  2.53030402653E-04
  2.56854467478E-04  2.60736325642E-04  2.64676850579E-04  2.68676928924E-04
  2.72737460712E-04  2.76859359579E-04  2.81043552970E-04  2.85290982345E-04
  2.89602603396E-04  2.93979386254E-04  2.98422315714E-04  3.02932391454E-04
  3.07510628260E-04  3.12158056255E-04  3.16875721130E-04  3.21664684378E-04
  3.26526023538E-04  3.31460832431E-04  3.36470221409E-04  3.41555317606E-04
  3.46717265191E-04  3.51957225623E-04  3.57276377916E-04  3.62675918901E-04
  3.68157063498E-04  3.73721044987E-04  3.79369115288E-04  3.85102545241E-04
  3.90922624891E-04  3.96830663781E-04  4.02827991244E-04  4.08915956705E-04
  4.15095929981E-04  4.21369301592E-04  4.27737483074E-04  4.34201907294E-04
  4.40764028776E-04  4.47425324023E-04  4.54187291855E-04  4.61051453745E-04
  4.68019354157E-04  4.75092560897E-04  4.82272665469E-04  4.89561283424E-04
  4.96960054734E-04  5.04470644153E-04  5.12094741594E-04  5.19834062513E-04
  5.27690348290E-04  5.35665366620E-04  5.43760911919E-04  5.51978805716E-04
  5.60320897073E-04  5.68789062996E-04  5.77385208858E-04  5.86111268828E-04
  5.94969206305E-04  6.03961014365E-04  6.13088716200E-04  6.22354365583E-04
  6.31760047324E-04  6.41307877741E-04  6.51000005136E-04  6.60838610278E-04
  6.70825906896E-04  6.80964142173E-04  6.91255597255E-04  7.01702587762E-04
  7.12307464312E-04  7.23072613046E-04  7.34000456169E-04  7.45093452491E-04
  7.56354097983E-04  7.67784926338E-04  7.79388509541E-04  7.91167458447E-04
  8.03124423368E-04  8.15262094673E-04  8.27583203388E-04  8.40090521816E-04
  8.52786864155E-04  8.65675087137E-04  8.78758090665E-04  8.92038818471E-04
  9.05520258774E-04  9.19205444956E-04  9.33097456240E-04  9.47199418389E-04
  9.61514504403E-04  9.76045935237E-04  9.90796980524E-04  1.00577095931E-03
  1.02097124081E-03  1.03640124514E-03  1.05206444413E-03  1.06796436205E-03
  1.08410457646E-03  1.10048871898E-03  1.11712047610E-03  1.13400359003E-03
  1.15114185957E-03  1.16853914087E-03  1.18619934841E-03  1.20412645581E-03
  1.22232449674E-03  1.24079756585E-03  1.25954981963E-03  1.27858547744E-03
  1.29790882238E-03  1.31752420228E-03  1.33743603068E-03  1.35764878783E-03
  1.37816702169E-03  1.39899534894E-03  1.42013845604E-03  1.44160110029E-03
  1.46338811087E-03  1.48550438995E-03  1.50795491378E-03  1.53074473383E-03
  1.55387897790E-03  1.57736285130E-03  1.60120163800E-03  1.62540070181E-03
  1.64996548765E-03  1.67490152267E-03  1.70021441761E-03  1.72590986797E-03
  1.75199365532E-03  1.77847164864E-03  1.80534980558E-03  1.83263417385E-03
  1.86033089254E-03  1.88844619352E-03  1.91698640287E-03  1.94595794224E-03
  1.97536733036E-03  2.00522118447E-03  2.03552622180E-03  2.06628926111E-03
  2.09751722423E-03  2.12921713757E-03  2.16139613375E-03  2.19406145318E-03
  2.22722044570E-03  2.26088057221E-03  2.29504940638E-03  2.32973463636E-03
  2.36494406645E-03  2.40068561894E-03  2.43696733582E-03  2.47379738064E-03
  2.51118404030E-03  2.54913572696E-03  2.58766097991E-03  2.62676846751E-03
  2.66646698909E-03  2.70676547699E-03  2.74767299854E-03  2.78919875811E-03
  2.83135209917E-03  2.87414250639E-03  2.91757960781E-03  2.96167317694E-03
  3.00643313504E-03  3.05186955327E-03  3.09799265503E-03  3.14481281820E-03
  3.19234057753E-03  3.24058662695E-03  3.28956182204E-03  3.33927718241E-03
  3.38974389424E-03  3.44097331274E-03  3.49297696476E-03  3.54576655133E-03
  3.59935395033E-03  3.65375121916E-03  3.70897059742E-03  3.76502450972E-03
  3.82192556841E-03  3.87968657648E-03  3.93832053040E-03  3.99784062306E-03
  4.05826024672E-03  4.11959299605E-03  4.18185267119E-03  4.24505328083E-03
  4.30920904536E-03  4.37433440010E-03  4.44044399854E-03  4.50755271561E-03
  4.57567565106E-03  4.64482813284E-03  4.71502572054E-03  4.78628420892E-03
  4.85861963144E-03  4.93204826387E-03  5.00658662797E-03  5.08225149518E-03
  5.15905989042E-03  5.23702909590E-03  5.31617665502E-03  5.39652037632E-03
  5.47807833747E-03  5.56086888935E-03  5.64491066019E-03  5.73022255975E-03
  5.81682378356E-03  5.90473381726E-03  5.99397244098E-03  6.08455973378E-03
  6.17651607820E-03  6.26986216479E-03  6.36461899682E-03  6.46080789497E-03
  6.55845050216E-03  6.65756878837E-03  6.75818505566E-03  6.86032194309E-03
  6.96400243190E-03  7.06924985063E-03  7.17608788041E-03  7.28454056024E-03
  7.39463229242E-03  7.50638784806E-03  7.61983237264E-03  7.73499139165E-03
  7.85189081636E-03  7.97055694962E-03  8.09101649182E-03  8.21329654687E-03
  8.33742462829E-03  8.46342866543E-03  8.59133700972E-03  8.72117844108E-03
  8.85298217439E-03  8.98677786603E-03  9.12259562061E-03  9.26046599768E-03
  9.40042001868E-03  9.54248917383E-03  9.68670542931E-03  9.83310123438E-03
  9.98170952871E-03  1.01325637498E-02  1.02856978405E-02  1.04411462565E-02
  1.05989439746E-02  1.07591264997E-02  1.09217298737E-02  1.10867906830E-02
  1.12543460670E-02  1.14244337263E-02  1.15970919314E-02  1.17723595311E-02
  1.19502759614E-02  1.21308812542E-02  1.23142160464E-02  1.25003215892E-02
  1.26892397571E-02  1.28810130575E-02  1.30756846402E-02  1.32732983070E-02
  1.34738985220E-02  1.36775304210E-02  1.38842398220E-02  1.40940732356E-02