<PP_INFO>
Generated using unknown code
Author: X. Gonze et al (see Phys. Rev. B 44, 8503 (1991))
Info: automatically converted from PWSCF format
    T        The Pseudo was generated with a Relativistic Calculation
  0.00000000000E+00    Local Potential cutoff radius
nl pn  l   occ               Rcut            Rcut US             E pseu
4S  0  0  2.00      0.00000000000      0.00000000000      0.00000000000
4P  0  1  1.00      0.00000000000      0.00000000000      0.00000000000
</PP_INFO>


<PP_HEADER>
   0                   Version Number
  Ga                   Element
   NC                  Norm - Conserving pseudopotential
    F                  Nonlinear Core Correction
 SLA  PZ   NOGX NOGC   PZ   Exchange-Correlation functional
    3.00000000000      Z valence
    0.00000000000      Total energy
  0.0000000  0.0000000 Suggested cutoff for wfc and rho
    1                  Max angular momentum component
  523                  Number of points in mesh
    2    2             Number of Wavefunctions, Number of Projectors
 Wavefunctions         nl  l   occ
                       4S  0  2.00
                       4P  1  1.00
</PP_HEADER>


<PP_MESH>
  <PP_R>
  2.17353129003E-04  2.22855449660E-04  2.28497062227E-04  2.34281492897E-04
  2.40212357127E-04  2.46293361899E-04  2.52528308040E-04  2.58921092593E-04
  2.65475711259E-04  2.72196260886E-04  2.79086942036E-04  2.86152061611E-04
  2.93396035539E-04  3.00823391540E-04  3.08438771953E-04  3.16246936639E-04
  3.24252765956E-04  3.32461263806E-04  3.40877560769E-04  3.49506917304E-04
  3.58354727040E-04  3.67426520146E-04  3.76727966787E-04  3.86264880671E-04
  3.96043222680E-04  4.06069104595E-04  4.16348792919E-04  4.26888712792E-04
  4.37695452006E-04  4.48775765127E-04  4.60136577710E-04  4.71784990632E-04
  4.83728284532E-04  4.95973924356E-04  5.08529564028E-04  5.21403051231E-04
  5.34602432315E-04  5.48135957322E-04  5.62012085145E-04  5.76239488817E-04
  5.90827060927E-04  6.05783919183E-04  6.21119412109E-04  6.36843124887E-04
  6.52964885349E-04  6.69494770119E-04  6.86443110915E-04  7.03820501001E-04
  7.21637801812E-04  7.39906149740E-04  7.58636963097E-04  7.77841949252E-04
  7.97533111946E-04  8.17722758798E-04  8.38423508992E-04  8.59648301173E-04
  8.81410401526E-04  9.03723412072E-04  9.26601279169E-04  9.50058302229E-04
  9.74109142655E-04  9.98768833006E-04  1.02405278639E-03  1.04997680610E-03
  1.07655709549E-03  1.10381026812E-03  1.13175335809E-03  1.16040383076E-03
  1.18977959359E-03  1.21989900740E-03  1.25078089780E-03  1.28244456697E-03
  1.31490980575E-03  1.34819690597E-03  1.38232667313E-03  1.41732043946E-03
  1.45320007721E-03  1.48998801231E-03  1.52770723842E-03  1.56638133129E-03
  1.60603446348E-03  1.64669141949E-03  1.68837761124E-03  1.73111909396E-03
  1.77494258246E-03  1.81987546786E-03  1.86594583467E-03  1.91318247837E-03
  1.96161492339E-03  2.01127344160E-03  2.06218907118E-03  2.11439363607E-03
  2.16791976580E-03  2.22280091596E-03  2.27907138905E-03  2.33676635594E-03
  2.39592187788E-03  2.45657492899E-03  2.51876341939E-03  2.58252621893E-03
  2.64790318142E-03  2.71493516959E-03  2.78366408062E-03  2.85413287233E-03
  2.92638558998E-03  3.00046739389E-03  3.07642458760E-03  3.15430464682E-03
  3.23415624912E-03  3.31602930436E-03  3.39997498587E-03  3.48604576241E-03
  3.57429543104E-03  3.66477915067E-03  3.75755347656E-03  3.85267639570E-03
  3.95020736300E-03  4.05020733849E-03  4.15273882541E-03  4.25786590928E-03
  4.36565429796E-03  4.47617136268E-03  4.58948618021E-03  4.70566957601E-03
  4.82479416847E-03  4.94693441435E-03  5.07216665528E-03  5.20056916548E-03
  5.33222220070E-03  5.46720804837E-03  5.60561107905E-03  5.74751779913E-03
  5.89301690493E-03  6.04219933813E-03  6.19515834260E-03  6.35198952272E-03
  6.51279090305E-03  6.67766298971E-03  6.84670883312E-03  7.02003409243E-03
  7.19774710156E-03  7.37995893694E-03  7.56678348690E-03  7.75833752285E-03
  7.95474077231E-03  8.15611599370E-03  8.36258905309E-03  8.57428900287E-03
  8.79134816239E-03  9.01390220069E-03  9.24209022130E-03  9.47605484915E-03
  9.71594231975E-03  9.96190257058E-03  1.02140893348E-02  1.04726602374E-02
  1.07377768935E-02  1.10096050097E-02  1.12883144875E-02  1.15740795292E-02
  1.18670787475E-02  1.21674952762E-02  1.24755168856E-02  1.27913360992E-02
  1.31151503142E-02  1.34471619251E-02  1.37875784500E-02  1.41366126602E-02
  1.44944827135E-02  1.48614122903E-02  1.52376307336E-02  1.56233731921E-02
  1.60188807675E-02  1.64244006648E-02  1.68401863471E-02  1.72664976942E-02
  1.77036011643E-02  1.81517699615E-02  1.86112842058E-02  1.90824311086E-02
  1.95655051520E-02  2.00608082731E-02  2.05686500523E-02  2.10893479074E-02
  2.16232272915E-02  2.21706218965E-02  2.27318738619E-02  2.33073339885E-02
  2.38973619575E-02  2.45023265556E-02  2.51226059055E-02  2.57585877019E-02
  2.64106694541E-02  2.70792587345E-02  2.77647734331E-02  2.84676420189E-02
  2.91883038076E-02  2.99272092364E-02  3.06848201452E-02  3.14616100654E-02
  3.22580645161E-02  3.30746813072E-02  3.39119708508E-02  3.47704564801E-02
  3.56506747766E-02  3.65531759054E-02  3.74785239590E-02  3.84272973101E-02
  3.94000889729E-02  4.03975069739E-02  4.14201747319E-02  4.24687314473E-02
  4.35438325025E-02  4.46461498703E-02  4.57763725353E-02  4.69352069232E-02
  4.81233773433E-02  4.93416264408E-02  5.05907156610E-02  5.18714257253E-02
  5.31845571194E-02  5.45309305929E-02  5.59113876731E-02  5.73267911908E-02
  5.87780258190E-02  6.02659986268E-02  6.17916396456E-02  6.33559024506E-02
  6.49597647571E-02  6.66042290312E-02  6.82903231165E-02  7.00191008769E-02
  7.17916428546E-02  7.36090569461E-02  7.54724790944E-02  7.73830739989E-02
  7.93420358438E-02  8.13505890438E-02  8.34099890102E-02  8.55215229349E-02
  8.76865105955E-02  8.99063051795E-02  9.21822941311E-02  9.45159000172E-02
  9.69085814176E-02  9.93618338361E-02  1.01877190635E-01  1.04456223995E-01
  1.07100545895E-01  1.09811809122E-01  1.12591708305E-01  1.15441980971E-01
  1.18364408633E-01  1.21360817903E-01  1.24433081635E-01  1.27583120094E-01
  1.30812902156E-01  1.34124446541E-01  1.37519823070E-01  1.41001153965E-01
  1.44570615172E-01  1.48230437720E-01  1.51982909116E-01  1.55830374778E-01
  1.59775239497E-01  1.63819968941E-01  1.67967091199E-01  1.72219198357E-01
  1.76578948120E-01  1.81049065474E-01  1.85632344387E-01  1.90331649559E-01
  1.95149918207E-01  2.00090161907E-01  2.05155468471E-01  2.10349003882E-01
  2.15674014267E-01  2.21133827932E-01  2.26731857438E-01  2.32471601736E-01
  2.38356648353E-01  2.44390675633E-01  2.50577455042E-01  2.56920853517E-01
  2.63424835889E-01  2.70093467359E-01  2.76930916038E-01  2.83941455554E-01
  2.91129467724E-01  2.98499445287E-01  3.06055994721E-01  3.13803839115E-01
  3.21747821123E-01  3.29892905993E-01  3.38244184669E-01  3.46806876970E-01
  3.55586334859E-01  3.64588045783E-01  3.73817636104E-01  3.83280874616E-01
  3.92983676152E-01  4.02932105278E-01  4.13132380086E-01  4.23590876080E-01
  4.34314130161E-01  4.45308844712E-01  4.56581891786E-01  4.68140317406E-01
  4.79991345964E-01  4.92142384737E-01  5.04601028522E-01  5.17375064376E-01
  5.30472476487E-01  5.43901451164E-01  5.57670381954E-01  5.71787874886E-01
  5.86262753853E-01  6.01104066126E-01  6.16321088007E-01  6.31923330632E-01
  6.47920545909E-01  6.64322732619E-01  6.81140142663E-01  6.98383287468E-01
  7.16062944563E-01  7.34190164307E-01  7.52776276805E-01  7.71832898980E-01
  7.91371941842E-01  8.11405617930E-01  8.31946448942E-01  8.53007273567E-01
  8.74601255505E-01  8.96741891699E-01  9.19443020767E-01  9.42718831653E-01
  9.66583872497E-01  9.91053059726E-01  1.01614168738E+00  1.04186543666E+00
  1.06824038576E+00  1.09528301988E+00  1.12301024154E+00  1.15143938115E+00
  1.18058820786E+00  1.21047494063E+00  1.24111825965E+00  1.27253731797E+00
  1.30475175355E+00  1.33778170145E+00  1.37164780645E+00  1.40637123599E+00
  1.44197369333E+00  1.47847743117E+00  1.51590526553E+00  1.55428059004E+00
  1.59362739050E+00  1.63397025996E+00  1.67533441403E+00  1.71774570664E+00
  1.76123064623E+00  1.80581641231E+00  1.85153087243E+00  1.89840259962E+00
  1.94646089024E+00  1.99573578227E+00  2.04625807413E+00  2.09805934390E+00
  2.15117196906E+00  2.20562914673E+00  2.26146491441E+00  2.31871417128E+00
  2.37741269999E+00  2.43759718902E+00  2.49930525565E+00  2.56257546943E+00
  2.62744737629E+00  2.69396152329E+00  2.76215948394E+00  2.83208388419E+00
  2.90377842905E+00  2.97728792996E+00  3.05265833274E+00  3.12993674635E+00
  3.20917147232E+00  3.29041203493E+00  3.37370921216E+00  3.45911506749E+00
  3.54668298233E+00  3.63646768949E+00  3.72852530733E+00  3.82291337486E+00
  3.91969088770E+00  4.01891833494E+00  4.12065773697E+00  4.22497268422E+00
  4.33192837693E+00  4.44159166590E+00  4.55403109424E+00  4.66931694026E+00
  4.78752126137E+00  4.90871793912E+00  5.03298272537E+00  5.16039328966E+00
  5.29102926774E+00  5.42497231135E+00  5.56230613925E+00  5.70311658956E+00
  5.84749167339E+00  5.99552162987E+00  6.14729898254E+00  6.30291859718E+00
  6.46247774112E+00  6.62607614403E+00  6.79381606022E+00  6.96580233260E+00
  7.14214245820E+00  7.32294665533E+00  7.50832793251E+00  7.69840215905E+00
  7.89328813756E+00  8.09310767809E+00  8.29798567438E+00  8.50805018184E+00
  8.72343249762E+00  8.94426724268E+00  9.17069244593E+00  9.40284963049E+00
  9.64088390216E+00  9.88494404011E+00  1.01351825899E+01  1.03917559587E+01
  1.06548245132E+01  1.09245526799E+01  1.12011090477E+01  1.14846664733E+01
  1.17754021892E+01  1.20734979148E+01  1.23791399697E+01  1.26925193900E+01
  1.30138320482E+01  1.33432787749E+01  1.36810654853E+01  1.40274033070E+01
  1.43825087123E+01  1.47466036538E+01  1.51199157027E+01  1.55026781910E+01
  1.58951303578E+01  1.62975174986E+01  1.67100911183E+01  1.71331090890E+01
  1.75668358105E+01  1.80115423763E+01  1.84675067424E+01  1.89350139013E+01
  1.94143560604E+01  1.99058328240E+01  2.04097513810E+01  2.09264266971E+01
  2.14561817111E+01  2.19993475371E+01  2.25562636715E+01  2.31272782049E+01
  2.37127480401E+01  2.43130391147E+01  2.49285266302E+01  2.55595952863E+01
  2.62066395215E+01  2.68700637596E+01  2.75502826621E+01  2.82477213882E+01
  2.89628158597E+01  2.96960130339E+01  3.04477711830E+01  3.12185601802E+01
  3.20088617937E+01  3.28191699879E+01  3.36499912316E+01  3.45018448153E+01
  3.53752631751E+01  3.62707922260E+01  3.71889917027E+01  3.81304355098E+01
  3.90957120804E+01  4.00854247437E+01  4.11001921024E+01  4.21406484190E+01
  4.32074440127E+01  4.43012456655E+01  4.54227370389E+01  4.65726191015E+01
  4.77516105672E+01  4.89604483440E+01  5.01998879947E+01  5.14707042096E+01
  5.27736912902E+01  5.41096636457E+01  5.54794563024E+01  5.68839254254E+01
  5.83239488534E+01  5.98004266481E+01  6.13142816561E+01  6.28664600861E+01
  6.44579321001E+01  6.60896924200E+01  6.77627609490E+01  6.94781834095E+01
  7.12370319964E+01  7.30404060472E+01  7.48894327294E+01  7.67852677449E+01
  7.87290960524E+01  8.07221326077E+01  8.27656231237E+01  8.48608448484E+01
  8.70091073635E+01  8.92117534031E+01  9.14701596927E+01  9.37857378097E+01
  9.61599350659E+01  9.85942354117E+01  1.01090160364E+02
  </PP_R>
  <PP_RAB>
  5.43382822507E-06  5.57138624150E-06  5.71242655569E-06  5.85703732243E-06
  6.00530892816E-06  6.15733404747E-06  6.31320770099E-06  6.47302731483E-06
  6.63689278147E-06  6.80490652214E-06  6.97717355090E-06  7.15380154026E-06
  7.33490088846E-06  7.52058478849E-06  7.71096929883E-06  7.90617341599E-06
  8.10631914890E-06  8.31153159516E-06  8.52193901924E-06  8.73767293261E-06
  8.95886817600E-06  9.18566300364E-06  9.41819916967E-06  9.65662201678E-06
  9.90108056699E-06  1.01517276149E-05  1.04087198230E-05  1.06722178198E-05
  1.09423863002E-05  1.12193941282E-05  1.15034144427E-05  1.17946247658E-05
  1.20932071133E-05  1.23993481089E-05  1.27132391007E-05  1.30350762808E-05
  1.33650608079E-05  1.37033989330E-05  1.40503021286E-05  1.44059872204E-05
  1.47706765232E-05  1.51445979796E-05  1.55279853027E-05  1.59210781222E-05
  1.63241221337E-05  1.67373692530E-05  1.71610777729E-05  1.75955125250E-05
  1.80409450453E-05  1.84976537435E-05  1.89659240774E-05  1.94460487313E-05
  1.99383277987E-05  2.04430689699E-05  2.09605877248E-05  2.14912075293E-05
  2.20352600381E-05  2.25930853018E-05  2.31650319792E-05  2.37514575557E-05
  2.43527285664E-05  2.49692208251E-05  2.56013196597E-05  2.62494201525E-05
  2.69139273874E-05  2.75952567030E-05  2.82938339523E-05  2.90100957689E-05
  2.97444898397E-05  3.04974751849E-05  3.12695224449E-05  3.20611141744E-05
  3.28727451438E-05  3.37049226491E-05  3.45581668283E-05  3.54330109866E-05
  3.63300019303E-05  3.72497003078E-05  3.81926809606E-05  3.91595332823E-05
  4.01508615870E-05  4.11672854872E-05  4.22094402810E-05  4.32779773490E-05
  4.43735645616E-05  4.54968866966E-05  4.66486458668E-05  4.78295619592E-05
  4.90403730849E-05  5.02818360401E-05  5.15547267796E-05  5.28598409016E-05
  5.41979941450E-05  5.55700228989E-05  5.69767847262E-05  5.84191588986E-05
  5.98980469470E-05  6.14143732247E-05  6.29690854848E-05  6.45631554732E-05
  6.61975795354E-05  6.78733792398E-05  6.95916020156E-05  7.13533218081E-05
  7.31596397495E-05  7.50116848473E-05  7.69106146900E-05  7.88576161704E-05
  8.08539062281E-05  8.29007326091E-05  8.49993746467E-05  8.71511440603E-05
  8.93573857761E-05  9.16194787667E-05  9.39388369141E-05  9.63169098925E-05
  9.87551840750E-05  1.01255183462E-04  1.03818470635E-04  1.06446647732E-04
  1.09141357449E-04  1.11904284067E-04  1.14737154505E-04  1.17641739400E-04
  1.20619854212E-04  1.23673360359E-04  1.26804166382E-04  1.30014229137E-04
  1.33305555017E-04  1.36680201209E-04  1.40140276976E-04  1.43687944978E-04
  1.47325422623E-04  1.51054983453E-04  1.54878958565E-04  1.58799738068E-04
  1.62819772576E-04  1.66941574743E-04  1.71167720828E-04  1.75500852311E-04
  1.79943677539E-04  1.84498973424E-04  1.89169587172E-04  1.93958438071E-04
  1.98868519308E-04  2.03902899843E-04  2.09064726327E-04  2.14357225072E-04
  2.19783704060E-04  2.25347555017E-04  2.31052255532E-04  2.36901371229E-04
  2.42898557994E-04  2.49047564265E-04  2.55352233370E-04  2.61816505934E-04
  2.68444422337E-04  2.75240125243E-04  2.82207862186E-04  2.89351988231E-04
  2.96676968687E-04  3.04187381906E-04  3.11887922141E-04  3.19783402480E-04
  3.27878757855E-04  3.36179048128E-04  3.44689461249E-04  3.53415316504E-04
  3.62362067836E-04  3.71535307257E-04  3.80940768340E-04  3.90584329803E-04
  4.00472019187E-04  4.10610016619E-04  4.21004658678E-04  4.31662442354E-04
  4.42590029108E-04  4.53794249038E-04  4.65282105146E-04  4.77060777715E-04
  4.89137628801E-04  5.01520206827E-04  5.14216251308E-04  5.27233697685E-04
  5.40580682287E-04  5.54265547412E-04  5.68296846547E-04  5.82683349711E-04
  5.97434048937E-04  6.12558163891E-04  6.28065147638E-04  6.43964692548E-04
  6.60266736353E-04  6.76981468362E-04  6.94119335827E-04  7.11691050471E-04
  7.29707595190E-04  7.48180230910E-04  7.67120503630E-04  7.86540251636E-04
  8.06451612903E-04  8.26867032681E-04  8.47799271271E-04  8.69261412004E-04
  8.91266869416E-04  9.13829397635E-04  9.36963098974E-04  9.60682432752E-04
  9.85002224323E-04  1.00993767435E-03  1.03550436830E-03  1.06171828618E-03
  1.08859581256E-03  1.11615374676E-03  1.14440931338E-03  1.17338017308E-03
  1.20308443358E-03  1.23354066102E-03  1.26476789152E-03  1.29678564313E-03
  1.32961392798E-03  1.36327326482E-03  1.39778469183E-03  1.43316977977E-03
  1.46945064548E-03  1.50664996567E-03  1.54479099114E-03  1.58389756127E-03
  1.62399411893E-03  1.66510572578E-03  1.70725807791E-03  1.75047752192E-03
  1.79479107136E-03  1.84022642365E-03  1.88681197736E-03  1.93457684997E-03
  1.98355089609E-03  2.03376472610E-03  2.08524972525E-03  2.13803807337E-03
  2.19216276489E-03  2.24765762949E-03  2.30455735328E-03  2.36289750043E-03
  2.42271453544E-03  2.48404584590E-03  2.54692976588E-03  2.61140559987E-03
  2.67751364737E-03  2.74529522806E-03  2.81479270763E-03  2.88604952428E-03
  2.95911021582E-03  3.03402044758E-03  3.11082704088E-03  3.18957800236E-03
  3.27032255391E-03  3.35311116351E-03  3.43799557675E-03  3.52502884914E-03
  3.61426537930E-03  3.70576094299E-03  3.79957272790E-03  3.89575936944E-03
  3.99438098742E-03  4.09549922353E-03  4.19917727998E-03  4.30547995893E-03
  4.41447370301E-03  4.52622663685E-03  4.64080860968E-03  4.75829123897E-03
  4.87874795517E-03  5.00225404767E-03  5.12888671178E-03  5.25872509704E-03
  5.39185035668E-03  5.52834569831E-03  5.66829643596E-03  5.81179004340E-03
  5.95891620882E-03  6.10976689084E-03  6.26443637605E-03  6.42302133793E-03
  6.58562089723E-03  6.75233668397E-03  6.92327290095E-03  7.09853638886E-03
  7.27823669309E-03  7.46248613218E-03  7.65139986803E-03  7.84509597787E-03
  8.04369552808E-03  8.24732264983E-03  8.45610461672E-03  8.67017192426E-03
  8.88965837149E-03  9.11470114458E-03  9.34544090260E-03  9.58202186540E-03
  9.82459190379E-03  1.00733026319E-02  1.03283095021E-02  1.05897719020E-02
  1.08578532540E-02  1.11327211178E-02  1.14145472947E-02  1.17035079352E-02
  1.19997836491E-02  1.23035596184E-02  1.26150257131E-02  1.29343766094E-02
  1.32618119122E-02  1.35975362791E-02  1.39417595488E-02  1.42946968721E-02
  1.46565688463E-02  1.50276016531E-02  1.54080272002E-02  1.57980832658E-02
  1.61980136477E-02  1.66080683155E-02  1.70285035666E-02  1.74595821867E-02
  1.79015736141E-02  1.83547541077E-02  1.88194069201E-02  1.92958224745E-02
  1.97842985461E-02  2.02851404482E-02  2.07986612235E-02  2.13251818392E-02
  2.18650313876E-02  2.24185472925E-02  2.29860755192E-02  2.35679707913E-02
  2.41645968124E-02  2.47763264931E-02  2.54035421845E-02  2.60466359166E-02
  2.67060096441E-02  2.73820754970E-02  2.80752560384E-02  2.87859845288E-02
  2.95147051965E-02  3.02618735158E-02  3.10279564912E-02  3.18134329494E-02
  3.26187938388E-02  3.34445425362E-02  3.42911951613E-02  3.51592808998E-02
  3.60493423333E-02  3.69619357793E-02  3.78976316384E-02  3.88570147509E-02
  3.98406847625E-02  4.08492564991E-02  4.18833603507E-02  4.29436426659E-02
  4.40307661558E-02  4.51454103078E-02  4.62882718108E-02  4.74600649906E-02
  4.86615222559E-02  4.98933945567E-02  5.11564518533E-02  5.24514835976E-02
  5.37792992266E-02  5.51407286682E-02  5.65366228602E-02  5.79678542820E-02
  5.94353174997E-02  6.09399297256E-02  6.24826313913E-02  6.40643867357E-02
  6.56861844072E-02  6.73490380823E-02  6.90539870985E-02  7.08020971046E-02
  7.25944607262E-02  7.44321982489E-02  7.63164583185E-02  7.82484186588E-02
  8.02292868080E-02  8.22603008731E-02  8.43427303041E-02  8.64778766871E-02
  8.86670745582E-02  9.09116922372E-02  9.32131326832E-02  9.55728343716E-02
  9.79922721925E-02  1.00472958374E-01  1.03016443424E-01  1.05624317105E-01
  1.08298209423E-01  1.11039791647E-01  1.13850777356E-01  1.16732923507E-01
  1.19688031534E-01  1.22717948478E-01  1.25824568134E-01  1.29009832241E-01
  1.32275731693E-01  1.35624307784E-01  1.39057653481E-01  1.42577914739E-01
  1.46187291835E-01  1.49888040747E-01  1.53682474563E-01  1.57572964929E-01
  1.61561943528E-01  1.65651903601E-01  1.69845401505E-01  1.74145058315E-01
  1.78553561455E-01  1.83073666383E-01  1.87708198313E-01  1.92460053976E-01
  1.97332203439E-01  2.02327691952E-01  2.07449641859E-01  2.12701254546E-01
  2.18085812440E-01  2.23606681067E-01  2.29267311148E-01  2.35071240762E-01
  2.41022097554E-01  2.47123601003E-01  2.53379564747E-01  2.59793898967E-01
  2.66370612830E-01  2.73113816998E-01  2.80027726193E-01  2.87116661831E-01
  2.94385054730E-01  3.01837447871E-01  3.09478499243E-01  3.17312984751E-01
  3.25345801204E-01  3.33581969373E-01  3.42026637133E-01  3.50685082674E-01
  3.59562717808E-01  3.68665091346E-01  3.77997892566E-01  3.87566954775E-01
  3.97378258946E-01  4.07437937465E-01  4.17752277958E-01  4.28327727224E-01
  4.39170895263E-01  4.50288559407E-01  4.61687668559E-01  4.73375347534E-01
  4.85358901510E-01  4.97645820599E-01  5.10243784526E-01  5.23160667428E-01
  5.36404542778E-01  5.49983688428E-01  5.63906591787E-01  5.78181955123E-01
  5.92818701002E-01  6.07825977867E-01  6.23213165754E-01  6.38989882158E-01
  6.55165988038E-01  6.71751593989E-01  6.88757066553E-01  7.06193034705E-01
  7.24070396492E-01  7.42400325848E-01  7.61194279574E-01  7.80464004504E-01
  8.00221544843E-01  8.20479249697E-01  8.41249780791E-01  8.62546120382E-01
  8.84381579378E-01  9.06769805649E-01  9.29724792567E-01  9.53260887746E-01
  9.77392802010E-01  1.00213561859E+00  1.02750480256E+00  1.05351621048E+00
  1.08018610032E+00  1.10753114164E+00  1.13556842597E+00  1.16431547754E+00
  1.19379026418E+00  1.22401120860E+00  1.25499719987E+00  1.28676760524E+00
  1.31934228225E+00  1.35274159114E+00  1.38698640756E+00  1.42209813563E+00
  1.45809872134E+00  1.49501066620E+00  1.53285704140E+00  1.57166150215E+00
  1.61144830250E+00  1.65224231050E+00  1.69406902373E+00  1.73695458524E+00
  1.78092579991E+00  1.82601015118E+00  1.87223581823E+00  1.91963169362E+00
  1.96822740131E+00  2.01805331519E+00  2.06914057809E+00  2.12152112121E+00
  2.17522768409E+00  2.23029383508E+00  2.28675399232E+00  2.34464344524E+00
  2.40399837665E+00  2.46485588529E+00  2.52725400910E+00
  </PP_RAB>
</PP_MESH>


<PP_LOCAL>
 -9.22930084867E-01 -9.22930099419E-01 -9.22930114670E-01 -9.22930130735E-01
 -9.22930147615E-01 -9.22930165310E-01 -9.22930183937E-01 -9.22930203611E-01
 -9.22930224100E-01 -9.22930245753E-01 -9.22930268687E-01 -9.22930292552E-01
 -9.22930317698E-01 -9.22930344124E-01 -9.22930372064E-01 -9.22930401284E-01
 -9.22930431901E-01 -9.22930464265E-01 -9.22930498375E-01 -9.22930534114E-01
 -9.22930571483E-01 -9.22930611065E-01 -9.22930652392E-01 -9.22930696048E-01
 -9.22930742032E-01 -9.22930790111E-01 -9.22930840985E-01 -9.22930894187E-01
 -9.22930950182E-01 -9.22931009089E-01 -9.22931071022E-01 -9.22931136098E-01
 -9.22931204550E-01 -9.22931276378E-01 -9.22931351932E-01 -9.22931431560E-01
 -9.22931515030E-01 -9.22931602807E-01 -9.22931695241E-01 -9.22931792331E-01
 -9.22931894311E-01 -9.22932001762E-01 -9.22932114452E-01 -9.22932232963E-01
 -9.22932357644E-01 -9.22932488611E-01 -9.22932626447E-01 -9.22932771267E-01
 -9.22932923422E-01 -9.22933083610E-01 -9.22933252063E-01 -9.22933428898E-01
 -9.22933614813E-01 -9.22933810391E-01 -9.22934015747E-01 -9.22934232047E-01
 -9.22934459057E-01 -9.22934697825E-01 -9.22934948932E-01 -9.22935212729E-01
 -9.22935490264E-01 -9.22935781884E-01 -9.22936088406E-01 -9.22936410760E-01
 -9.22936749528E-01 -9.22937105875E-01 -9.22937480384E-01 -9.22937873984E-01
 -9.22938287957E-01 -9.22938723117E-01 -9.22939180396E-01 -9.22939661192E-01
 -9.22940166784E-01 -9.22940698336E-01 -9.22941257013E-01 -9.22941844212E-01
 -9.22942461795E-01 -9.22943110811E-01 -9.22943793121E-01 -9.22944510472E-01
 -9.22945264494E-01 -9.22946057399E-01 -9.22946890816E-01 -9.22947766958E-01
 -9.22948688269E-01 -9.22949656378E-01 -9.22950674314E-01 -9.22951744637E-01
 -9.22952869674E-01 -9.22954052337E-01 -9.22955295769E-01 -9.22956602881E-01
 -9.22957976931E-01 -9.22959421412E-01 -9.22960940166E-01 -9.22962536570E-01
 -9.22964214929E-01 -9.22965979320E-01 -9.22967834165E-01 -9.22969784238E-01
 -9.22971834079E-01 -9.22973989276E-01 -9.22976254602E-01 -9.22978636459E-01
 -9.22981140087E-01 -9.22983772121E-01 -9.22986539314E-01 -9.22989448300E-01
 -9.22992506530E-01 -9.22995721339E-01 -9.22999101109E-01 -9.23002654104E-01
 -9.23006389290E-01 -9.23010315979E-01 -9.23014444066E-01 -9.23018783680E-01
 -9.23023345880E-01 -9.23028141842E-01 -9.23033183673E-01 -9.23038484063E-01
 -9.23044056282E-01 -9.23049914069E-01 -9.23056072206E-01 -9.23062546179E-01
 -9.23069351935E-01 -9.23076506704E-01 -9.23084028182E-01 -9.23091935343E-01
 -9.23100247863E-01 -9.23108986579E-01 -9.23118173261E-01 -9.23127830960E-01
 -9.23137983773E-01 -9.23148657312E-01 -9.23159877653E-01 -9.23171673436E-01
 -9.23184073879E-01 -9.23197110184E-01 -9.23210814828E-01 -9.23225221923E-01
 -9.23240367556E-01 -9.23256289796E-01 -9.23273028340E-01 -9.23290624633E-01
 -9.23309123376E-01 -9.23328570323E-01 -9.23349014251E-01 -9.23370506032E-01
 -9.23393099685E-01 -9.23416851670E-01 -9.23441821011E-01 -9.23468070338E-01
 -9.23495665542E-01 -9.23524674959E-01 -9.23555171583E-01 -9.23587231548E-01
 -9.23620934598E-01 -9.23656365485E-01 -9.23693612567E-01 -9.23732768744E-01
 -9.23773931805E-01 -9.23817204894E-01 -9.23862695927E-01 -9.23910518526E-01
 -9.23960792250E-01 -9.24013642711E-01 -9.24069201807E-01 -9.24127608305E-01
 -9.24189008074E-01 -9.24253554782E-01 -9.24321409082E-01 -9.24392740824E-01
 -9.24467727891E-01 -9.24546557828E-01 -9.24629427027E-01 -9.24716542591E-01
 -9.24808121868E-01 -9.24904393498E-01 -9.25005597761E-01 -9.25111987046E-01
 -9.25223826780E-01 -9.25341396476E-01 -9.25464989035E-01 -9.25594912726E-01
 -9.25731491647E-01 -9.25875066197E-01 -9.26025994704E-01 -9.26184653188E-01
 -9.26351437229E-01 -9.26526762312E-01 -9.26711065462E-01 -9.26904805354E-01
 -9.27108465228E-01 -9.27322551841E-01 -9.27547598374E-01 -9.27784164902E-01
 -9.28032840020E-01 -9.28294242709E-01 -9.28569022915E-01 -9.28857864114E-01
 -9.29161484237E-01 -9.29480637657E-01 -9.29816117976E-01 -9.30168757215E-01
 -9.30539431982E-01 -9.30929061491E-01 -9.31338612805E-01 -9.31769101182E-01
 -9.32221594034E-01 -9.32697212440E-01 -9.33197133709E-01 -9.33722595801E-01
 -9.34274898493E-01 -9.34855407337E-01 -9.35465557151E-01 -9.36106854351E-01
 -9.36780881835E-01 -9.37489302014E-01 -9.38233861001E-01 -9.39016392338E-01
 -9.39838821534E-01 -9.40703171073E-01 -9.41611564253E-01 -9.42566230427E-01
 -9.43569510709E-01 -9.44623862626E-01 -9.45731865824E-01 -9.46896229056E-01
 -9.48119794019E-01 -9.49405544554E-01 -9.50756611535E-01 -9.52176280203E-01
 -9.53667997499E-01 -9.55235380097E-01 -9.56882221974E-01 -9.58612502087E-01
 -9.60430394160E-01 -9.62340274942E-01 -9.64346733061E-01 -9.66454579728E-01
 -9.68668857473E-01 -9.70994851319E-01 -9.73438099609E-01 -9.76004404714E-01
 -9.78699844680E-01 -9.81530784629E-01 -9.84503890271E-01 -9.87626138842E-01
 -9.90904833307E-01 -9.94347615750E-01 -9.97962479712E-01 -1.00175778556E+00
 -1.00574227434E+00 -1.00992508186E+00 -1.01431575487E+00 -1.01892426377E+00
 -1.02376102074E+00 -1.02883689222E+00 -1.03416321671E+00 -1.03975181759E+00
 -1.04561502091E+00 -1.05176566856E+00 -1.05821713444E+00 -1.06498333800E+00
 -1.07207875792E+00 -1.07951844600E+00 -1.08731803950E+00 -1.09549377218E+00
 -1.10406248458E+00 -1.11304163246E+00 -1.12244929501E+00 -1.13230417797E+00
 -1.14262561908E+00 -1.15343358659E+00 -1.16474867694E+00 -1.17659210984E+00
 -1.18898571795E+00 -1.20195193414E+00 -1.21551377268E+00 -1.22969480569E+00
 -1.24451913580E+00 -1.26001135935E+00 -1.27619652625E+00 -1.29310008977E+00
 -1.31074785034E+00 -1.32916589046E+00 -1.34838049905E+00 -1.36841808783E+00
 -1.38930509728E+00 -1.41106789059E+00 -1.43373263802E+00 -1.45732518809E+00
 -1.48187092901E+00 -1.50739463710E+00 -1.53392031358E+00 -1.56147101161E+00
 -1.59006865195E+00 -1.61973382917E+00 -1.65048561059E+00 -1.68234133068E+00
 -1.71531637944E+00 -1.74942399317E+00 -1.78467504866E+00 -1.82107786369E+00
 -1.85863801371E+00 -1.89735816594E+00 -1.93723794038E+00 -1.97827380488E+00
 -2.02045901038E+00 -2.06378357834E+00 -2.10823434358E+00 -2.15379506699E+00
 -2.20044662047E+00 -2.24816725194E+00 -2.29693293676E+00 -2.34671781107E+00
 -2.39749469067E+00 -2.44923565869E+00 -2.50191271224E+00 -2.55549843836E+00
 -2.60996668646E+00 -2.66529318650E+00 -2.72145605227E+00 -2.77843609103E+00
 -2.83621682483E+00 -2.89478411293E+00 -2.95412524824E+00 -3.01422738831E+00
 -3.07507517264E+00 -3.13664737489E+00 -3.19891244976E+00 -3.26182285114E+00
 -3.32530803929E+00 -3.38926614882E+00 -3.45355437160E+00 -3.51797821332E+00
 -3.58227991540E+00 -3.64612648895E+00 -3.70909798727E+00 -3.77067683313E+00
 -3.83023920850E+00 -3.88704968939E+00 -3.94026044122E+00 -3.98891635911E+00
 -4.03196750383E+00 -4.06829002411E+00 -4.09671643210E+00 -4.11607559557E+00
 -4.12524211428E+00 -4.12319387379E+00 -4.10907555100E+00 -4.08226475591E+00
 -4.04243642919E+00 -3.98962021470E+00 -3.92424494111E+00 -3.84716424371E+00
 -3.75965788440E+00 -3.66340458742E+00 -3.56042423231E+00 -3.45298995708E+00
 -3.34351392361E+00 -3.23441385748E+00 -3.12797055799E+00 -3.02618888569E+00
 -2.93067579019E+00 -2.84254836248E+00 -2.76238250768E+00 -2.69020873973E+00
 -2.62555622067E+00 -2.56754022070E+00 -2.51498257547E+00 -2.46655042525E+00
 -2.42089634080E+00 -2.37678333913E+00 -2.33318125460E+00 -2.28932593550E+00
 -2.24473883500E+00 -2.19921059110E+00 -2.15275701670E+00 -2.10555873237E+00
 -2.05789614303E+00 -2.01008980325E+00 -1.96245309113E+00 -1.91526041308E+00
 -1.86873076165E+00 -1.82302397919E+00 -1.77824582019E+00 -1.73445777881E+00
 -1.69168833479E+00 -1.64994335044E+00 -1.60921444917E+00 -1.56948507482E+00
 -1.53073447421E+00 -1.49294008705E+00 -1.45607885312E+00 -1.42012785806E+00
 -1.38506461459E+00 -1.35086716319E+00 -1.31751409347E+00 -1.28498453623E+00
 -1.25325814713E+00 -1.22231509004E+00 -1.19213602171E+00 -1.16270207801E+00
 -1.13399486126E+00 -1.10599642833E+00 -1.07868927920E+00 -1.05205634600E+00
 -1.02608098226E+00 -1.00074695254E+00 -9.76038422248E-01 -9.51939947739E-01
 -9.28436466685E-01 -9.05513288647E-01 -8.83156085891E-01 -8.61350884437E-01
 -8.40084055326E-01 -8.19342306096E-01 -7.99112672480E-01 -7.79382510297E-01
 -7.60139487554E-01 -7.41371576736E-01 -7.23067047287E-01 -7.05214458280E-01
 -6.87802651266E-01 -6.70820743299E-01 -6.54258120134E-01 -6.38104429591E-01
 -6.22349575090E-01 -6.06983709332E-01 -5.91997228151E-01 -5.77380764509E-01
 -5.63125182640E-01 -5.49221572341E-01 -5.35661243404E-01 -5.22435720182E-01
 -5.09536736291E-01 -4.96956229447E-01 -4.84686336424E-01 -4.72719388139E-01
 -4.61047904860E-01 -4.49664591530E-01 -4.38562333207E-01 -4.27734190619E-01
 -4.17173395824E-01 -4.06873347982E-01 -3.96827609227E-01 -3.87029900646E-01