<UPF version="2">
  <PP_INFO>
    Generated using "atomic" code by A. Dal Corso (espresso distribution)
    Author: "Lorenzo Paulatto" /paulatto@sissa.it/
    Generation date:  4Apr2008
    Pseudopotential type: PAW
    Element: Ge

    Suggested minimum cutoff for wavefunctions:  17. Ry
    Suggested minimum cutoff for charge density:  69. Ry
    The Pseudo was generated with a Scalar-Relativistic Calculation
    L component and cutoff radius for Local Potential:  2   2.1500

    Valence configuration: 
    nl pn  l   occ       Rcut    Rcut US     E pseu
    4S  1  0  2.00      1.500      2.350     -0.862
    4P  2  1  2.00      1.500      2.350     -0.286
  </PP_INFO>
  <!--                               -->
  <!-- END OF HUMAN READABLE SECTION -->
  <!--                               -->
  <PP_HEADER version="0" element="Ge" pseudo_type="PAW" relativistic="scalar" is_ultrasoft="T" is_paw="T" is_coulomb="F"
has_so="F" has_gipaw="F" nlcc="T" functional=" SLA  PW   PBX  PBC " z_valence="4.000000000000000E+000"
total_psenergy="-1.637874114302571E+002" wfc_cutoff="1.729797073466374E+001" rho_cutoff="6.919188293865494E+001" l_max="1"
l_max_rho="2" l_local="2" mesh_size="1207" number_of_wfc="2" number_of_proj="4">
    <PP_GENERATED value='Generated using "atomic" code by A. Dal Corso (espresso distribution)'/>
    <PP_AUTHOR value='"Lorenzo Paulatto" &lt;paulatto@sissa.it&gt;'/>
    <PP_DATE value=" 4Apr2008"/>
    <PP_COMMENT value=""/>
  </PP_HEADER>
  <PP_MESH dx="1.250000000000000E-002" mesh="1207" xmin="-7.000000000000000E+000" rmax="1.000000000000000E+002"
zmesh="3.200000000000000E+001">
    <PP_R type="real" size="1207" columns="4">
 2.849631142357863E-005  2.885475089590694E-005  2.921769898176819E-005  2.958521239253919E-005 
 2.995734855293812E-005  3.033416560999715E-005  3.071572244214808E-005  3.110207866842223E-005 
 3.149329465776595E-005  3.188943153847358E-005  3.229055120773866E-005  3.269671634132558E-005 
 3.310799040336282E-005  3.352443765625928E-005  3.394612317074556E-005  3.437311283604119E-005 
 3.480547337015010E-005  3.524327233028539E-005  3.568657812342523E-005  3.613546001700181E-005 
 3.658998814972420E-005  3.705023354253790E-005  3.751626810972190E-005  3.798816467012546E-005 
 3.846599695854628E-005  3.894983963725155E-005  3.943976830764420E-005  3.993585952207576E-005 
 4.043819079580775E-005  4.094684061912375E-005  4.146188846959348E-005  4.198341482449146E-005 
 4.251150117337168E-005  4.304623003080053E-005  4.358768494924996E-005  4.413595053215255E-005 
 4.469111244712108E-005  4.525325743933424E-005  4.582247334509072E-005  4.639884910553396E-005 
 4.698247478054914E-005  4.757344156283536E-005  4.817184179215470E-005  4.877776896976038E-005 
 4.939131777300678E-005  5.001258407014263E-005  5.064166493529083E-005  5.127865866361644E-005 
 5.192366478668543E-005  5.257678408801691E-005  5.323811861883044E-005  5.390777171399195E-005 
 5.458584800815999E-005  5.527245345213502E-005  5.596769532941468E-005  5.667168227295673E-005 
 5.738452428215335E-005  5.810633274001878E-005  5.883722043059304E-005  5.957730155656489E-005 
 6.032669175711592E-005  6.108550812598960E-005  6.185386922978740E-005  6.263189512649497E-005 
 6.341970738424169E-005  6.421742910029559E-005  6.502518492029779E-005  6.584310105773857E-005 
 6.667130531367838E-005  6.750992709671733E-005  6.835909744321516E-005  6.921894903776615E-005 
 7.008961623393135E-005  7.097123507523147E-005  7.186394331640425E-005  7.276788044492856E-005 
 7.368318770281978E-005  7.461000810869917E-005  7.554848648014073E-005  7.649876945629947E-005 
 7.746100552082370E-005  7.843534502505620E-005  7.942194021152682E-005  8.042094523774062E-005 
 8.143251620026557E-005  8.245681115912255E-005  8.349399016248283E-005  8.454421527167583E-005 
 8.560765058651151E-005  8.668446227092152E-005  8.777481857892227E-005  8.887888988090524E-005 
 8.999684869025759E-005  9.112886969031774E-005  9.227512976167021E-005  9.343580800978313E-005 
 9.461108579299423E-005  9.580114675084822E-005  9.700617683279090E-005  9.822636432722439E-005 
 9.946189989092709E-005  1.007129765788446E-004  1.019797898742546E-004  1.032625377193119E-004 
 1.045614205459773E-004  1.058766413073347E-004  1.072084055093042E-004  1.085569212427517E-004 
 1.099223992160040E-004  1.113050527877728E-004  1.127050980004916E-004  1.141227536140732E-004 
 1.155582411400916E-004  1.170117848763931E-004  1.184836119421440E-004  1.199739523133176E-004 
 1.214830388586291E-004  1.230111073759214E-004  1.245583966290091E-004  1.261251483849862E-004 
 1.277116074520021E-004  1.293180217175136E-004  1.309446421870181E-004  1.325917230232731E-004 
 1.342595215860106E-004  1.359482984721490E-004  1.376583175565127E-004  1.393898460330626E-004 
 1.411431544566458E-004  1.429185167852710E-004  1.447162104229139E-004  1.465365162628628E-004 
 1.483797187316087E-004  1.502461058332871E-004  1.521359691946801E-004  1.540496041107829E-004 
 1.559873095909443E-004  1.579493884055879E-004  1.599361471335204E-004  1.619478962098351E-004 
 1.639849499744183E-004  1.660476267210649E-004  1.681362487472131E-004  1.702511424043039E-004 
 1.723926381487741E-004  1.745610705936906E-004  1.767567785610346E-004  1.789801051346433E-004 
 1.812313977138169E-004  1.835110080676016E-004  1.858192923897529E-004  1.881566113543925E-004 
 1.905233301723637E-004  1.929198186482969E-004  1.953464512383925E-004  1.978036071089296E-004 
 2.002916701955120E-004  2.028110292630590E-004  2.053620779665504E-004  2.079452149125367E-004 
 2.105608437214208E-004  2.132093730905259E-004  2.158912168579541E-004  2.186067940672503E-004 
 2.213565290328789E-004  2.241408514065218E-004  2.269601962442154E-004  2.298150040743261E-004 
 2.327057209663856E-004  2.356327986007899E-004  2.385966943393738E-004  2.415978712968772E-004 
 2.446367984133054E-004  2.477139505272029E-004  2.508298084498488E-004  2.539848590403816E-004 
 2.571795952818759E-004  2.604145163583690E-004  2.636901277328603E-004  2.670069412262921E-004 
 2.703654750975198E-004  2.737662541242946E-004  2.772098096852581E-004  2.806966798429724E-004 
 2.842274094279945E-004  2.878025501240044E-004  2.914226605540102E-004  2.950883063676316E-004 
 2.988000603294845E-004  3.025585024086779E-004  3.063642198694321E-004  3.102178073628441E-004 
 3.141198670197996E-004  3.180710085450584E-004  3.220718493125234E-004  3.261230144617033E-004 
 3.302251369953955E-004  3.343788578785915E-004  3.385848261386297E-004  3.428436989666090E-004 
 3.471561418200721E-004  3.515228285269895E-004  3.559444413910430E-004  3.604216712982382E-004 
 3.649552178248579E-004  3.695457893467693E-004  3.741941031501132E-004  3.789008855433781E-004 
 3.836668719708886E-004  3.884928071277216E-004  3.933794450760624E-004  3.983275493630334E-004 
 4.033378931399960E-004  4.084112592833587E-004  4.135484405169044E-004  4.187502395356509E-004 
 4.240174691312792E-004  4.293509523191295E-004  4.347515224668006E-004  4.402200234243667E-004 
 4.457573096562267E-004  4.513642463746212E-004  4.570417096748194E-004  4.627905866720125E-004 
 4.686117756399287E-004  4.745061861511858E-004  4.804747392194198E-004  4.865183674431903E-004 
 4.926380151517027E-004  4.988346385523632E-004  5.051092058801836E-004  5.114626975490759E-004 
 5.178961063050392E-004  5.244104373812800E-004  5.310067086552839E-004  5.376859508078557E-004 
 5.444492074841723E-004  5.512975354568489E-004  5.582320047910636E-004  5.652536990117598E-004 
 5.723637152729431E-004  5.795631645291214E-004  5.868531717088878E-004  5.942348758906955E-004 
 6.017094304808416E-004  6.092780033936873E-004  6.169417772341494E-004  6.247019494824822E-004 
 6.325597326813872E-004  6.405163546254768E-004  6.485730585531169E-004  6.567311033406885E-004 
 6.649917636992867E-004  6.733563303738991E-004  6.818261103450867E-004  6.904024270332013E-004 
 6.990866205051750E-004  7.078800476839054E-004  7.167840825602791E-004  7.258001164078617E-004 
 7.349295580002846E-004  7.441738338313712E-004  7.535343883380274E-004  7.630126841259386E-004 
 7.726102021981062E-004  7.823284421862546E-004  7.921689225851545E-004  8.021331809898886E-004 
 8.122227743361046E-004  8.224392791432911E-004  8.327842917611089E-004  8.432594286188277E-004 
 8.538663264778928E-004  8.646066426876743E-004  8.754820554444319E-004  8.864942640535344E-004 
 8.976449891949823E-004  9.089359731922649E-004  9.203689802846028E-004  9.319457969026159E-004 
 9.436682319474532E-004  9.555381170734405E-004  9.675573069742779E-004  9.797276796728403E-004 
 9.920511368146235E-004  1.004529603964877E-003  1.017165030909482E-003  1.029959391959605E-003 
 1.042914686260190E-003  1.056032938102330E-003  1.069316197239564E-003  1.082766539208157E-003 
 1.096386065651407E-003  1.110176904648030E-003  1.124141211044677E-003  1.138281166792632E-003 
 1.152598981288750E-003  1.167096891720676E-003  1.181777163416409E-003  1.196642090198271E-003 
 1.211693994741313E-003  1.226935228936244E-003  1.242368174256916E-003  1.257995242132433E-003 
 1.273818874323945E-003  1.289841543306173E-003  1.306065752653747E-003  1.322494037432385E-003 
 1.339128964595006E-003  1.355973133382824E-003  1.373029175731482E-003  1.390299756682298E-003 
 1.407787574798682E-003  1.425495362587794E-003  1.443425886927504E-003  1.461581949498718E-003 
 1.479966387223154E-003  1.498582072706609E-003  1.517431914687812E-003  1.536518858492924E-003 
 1.555845886495748E-003  1.575416018583731E-003  1.595232312629825E-003  1.615297864970294E-003 
 1.635615810888512E-003  1.656189325104869E-003  1.677021622272817E-003  1.698115957481172E-003 
 1.719475626762727E-003  1.741103967609262E-003  1.763004359493042E-003  1.785180224394853E-003 
 1.807635027338703E-003  1.830372276933236E-003  1.853395525919960E-003  1.876708371728373E-003 
 1.900314457038062E-003  1.924217470347882E-003  1.948421146552296E-003  1.972929267524949E-003 
 1.997745662709612E-003  2.022874209718517E-003  2.048318834938261E-003  2.074083514143301E-003 
 2.100172273117180E-003  2.126589188281569E-003  2.153338387333206E-003  2.180424049888865E-003 
 2.207850408138426E-003  2.235621747506163E-003  2.263742407320358E-003  2.292216781491317E-003 
 2.321049319197935E-003  2.350244525582888E-003  2.379806962456573E-003  2.409741249009897E-003 
 2.440052062536037E-003  2.470744139161271E-003  2.501822274585018E-003  2.533291324829164E-003 
 2.565156206996837E-003  2.597421900040705E-003  2.630093445540950E-003  2.663175948493027E-003 
 2.696674578105328E-003  2.730594568606887E-003  2.764941220065229E-003  2.799719899214522E-003 
 2.834936040294142E-003  2.870595145897778E-003  2.906702787833234E-003  2.943264607993022E-003 
 2.980286319235927E-003  3.017773706279652E-003  3.055732626604689E-003  3.094169011369572E-003 
 3.133088866337617E-003  3.172498272815346E-003  3.212403388602701E-003  3.252810448955208E-003 
 3.293725767558260E-003  3.335155737513632E-003  3.377106832338416E-003  3.419585606976531E-003 
 3.462598698822936E-003  3.506152828760742E-003  3.550254802211368E-003  3.594911510197888E-003 
 3.640129930421782E-003  3.685917128353206E-003  3.732280258334988E-003  3.779226564700522E-003 
 3.826763382905686E-003  3.874898140675040E-003  3.923638359162416E-003  3.972991654126112E-003 
 4.022965737118882E-003  4.073568416692866E-003  4.124807599619696E-003  4.176691292125953E-003 
 4.229227601144147E-003  4.282424735579452E-003  4.336291007592353E-003  4.390834833897443E-003 
 4.446064737078552E-003  4.501989346920415E-003  4.558617401757107E-003  4.615957749837402E-003 
 4.674019350707348E-003  4.732811276610209E-003  4.792342713904015E-003  4.852622964496969E-003 
 4.913661447300864E-003  4.975467699702823E-003  5.038051379055527E-003  5.101422264186200E-003 
 5.165590256924580E-003  5.230565383650080E-003  5.296357796858444E-003  5.362977776748089E-003 
 5.430435732826411E-003  5.498742205536297E-003  5.567907867903078E-003  5.637943527202214E-003 
 5.708860126647962E-003  5.780668747103259E-003  5.853380608811158E-003  5.927007073147979E-003 
 6.001559644398569E-003  6.077049971553864E-003  6.153489850131064E-003  6.230891224016724E-003 
 6.309266187332983E-003  6.388626986327316E-003  6.468986021286025E-003  6.550355848471807E-003 
 6.632749182085722E-003  6.716178896253771E-003  6.800658027038531E-003  6.886199774476062E-003 
 6.972817504638432E-003  7.060524751722215E-003  7.149335220163203E-003  7.239262786777778E-003 
 7.330321502931182E-003  7.422525596733067E-003  7.515889475260693E-003  7.610427726810025E-003 
 7.706155123175206E-003  7.803086621956679E-003  7.901237368898327E-003  8.000622700254065E-003 
 8.101258145184113E-003  8.203159428181481E-003  8.306342471528961E-003  8.410823397786996E-003 
 8.516618532312895E-003  8.623744405811663E-003  8.732217756918983E-003  8.842055534816658E-003 
 8.953274901880940E-003  9.065893236364230E-003  9.179928135110404E-003  9.295397416304398E-003 
 9.412319122256322E-003  9.530711522220603E-003  9.650593115250622E-003  9.771982633089184E-003 
 9.894899043095418E-003  1.001936155120847E-002  1.014538960494843E-002  1.027300289645513E-002 
 1.040222136556499E-002  1.053306520292670E-002  1.066555485315606E-002  1.079971101803045E-002 
 1.093555465972361E-002  1.107310700408090E-002  1.121238954393599E-002  1.135342404246911E-002 
 1.149623253660757E-002  1.164083734046916E-002  1.178726104884866E-002  1.193552654074841E-002 
 1.208565698295317E-002  1.223767583364997E-002  1.239160684609353E-002  1.254747407231771E-002 
 1.270530186689373E-002  1.286511489073559E-002  1.302693811495339E-002  1.319079682475517E-002 
 1.335671662339771E-002  1.352472343618711E-002  1.369484351452967E-002  1.386710344003375E-002 
 1.404153012866318E-002  1.421815083494293E-002  1.439699315621769E-002  1.457808503696402E-002 
 1.476145477315671E-002  1.494713101669013E-002  1.513514277985508E-002  1.532551943987207E-002 
 1.551829074348156E-002  1.571348681159190E-002  1.591113814398592E-002  1.611127562408638E-002 
 1.631393052378176E-002  1.651913450831243E-002  1.672691964121845E-002  1.693731838934960E-002 
 1.715036362793833E-002  1.736608864573662E-002  1.758452715021738E-002  1.780571327284134E-002 
 1.802968157439021E-002  1.825646705036675E-002  1.848610513646298E-002  1.871863171409706E-002 
 1.895408311601979E-002  1.919249613199181E-002  1.943390801453189E-002  1.967835648473782E-002 
 1.992587973818043E-002  2.017651645087163E-002  2.043030578530773E-002  2.068728739658857E-002 
 2.094750143861374E-002  2.121098857035671E-002  2.147778996221788E-002  2.174794730245757E-002 
 2.202150280370980E-002  2.229849920957822E-002  2.257897980131477E-002  2.286298840458256E-002 
 2.315056939630369E-002  2.344176771159319E-002  2.373662885078028E-002  2.403519888651785E-002 
 2.433752447098140E-002  2.464365284315865E-002  2.495363183623054E-002  2.526750988504540E-002 
 2.558533603368695E-002  2.590715994313751E-002  2.623303189903773E-002  2.656300281954370E-002 
 2.689712426328307E-002  2.723544843741120E-002  2.757802820576861E-002  2.792491709714112E-002 
 2.827616931362375E-002  2.863183973908994E-002  2.899198394776730E-002  2.935665821292112E-002 
 2.972591951564732E-002  3.009982555377569E-002  3.047843475088541E-002  3.086180626543382E-002 
 3.125000000000000E-002  3.164307661064483E-002  3.204109751638842E-002  3.244412490880705E-002 
 3.285222176175077E-002  3.326545184118310E-002  3.368387971514474E-002  3.410757076384225E-002 
 3.453659118986400E-002  3.497100802852442E-002  3.541088915833832E-002  3.585630331162726E-002 
 3.630732008525886E-002  3.676400995152160E-002  3.722644426913622E-002  3.769469529440565E-002 
 3.816883619250531E-002  3.864894104891516E-002  3.913508488099578E-002  3.962734364971001E-002 
 4.012579427149192E-002  4.063051463026535E-002  4.114158358961319E-002  4.165908100510011E-002 
 4.218308773675013E-002  4.271368566168113E-002  4.325095768689849E-002  4.379498776224918E-002 
 4.434586089353931E-002  4.490366315581642E-002  4.546848170681879E-002  4.604040480059424E-002 
 4.661952180128971E-002  4.720592319711479E-002  4.779970061448062E-002  4.840094683231666E-002 
 4.900975579656779E-002  4.962622263487325E-002  5.025044367143074E-002  5.088251644204722E-002 
 5.152253970937901E-002  5.217061347836385E-002  5.282683901184662E-002  5.349131884640204E-002 
 5.416415680835614E-002  5.484545803000933E-002  5.553532896606371E-002  5.623387741025654E-002 
 5.694121251220344E-002  5.765744479445316E-002  5.838268616975695E-002  5.911704995855532E-002 
 5.986065090668427E-002  6.061360520330485E-002  6.137603049905777E-002  6.214804592444662E-002 
 6.292977210845241E-002  6.372133119738174E-002  6.452284687395274E-002  6.533444437662053E-002 
 6.615625051914609E-002  6.698839371041124E-002  6.783100397448259E-002  6.868421297092822E-002 
 6.954815401538966E-002  7.042296210041277E-002  7.130877391654075E-002  7.220572787367202E-002 
 7.311396412268725E-002  7.403362457734818E-002  7.496485293647182E-002  7.590779470638402E-002 
 7.686259722365471E-002  7.782940967811976E-002  7.880838313619218E-002  7.979967056446646E-002 
 8.080342685362021E-002  8.181980884261568E-002  8.284897534320650E-002  8.389108716475226E-002 
 8.494630713934516E-002  8.601480014725335E-002  8.709673314268286E-002  8.819227517986561E-002 
 8.930159743947393E-002  9.042487325536754E-002  9.156227814167828E-002  9.271398982023339E-002 
 9.388018824832600E-002  9.506105564683330E-002  9.625677652868847E-002  9.746753772771236E-002 
 9.869352842780528E-002  9.993494019250858E-002  1.011919669949363E-001  1.024648052480835E-001 
 1.037536538355172E-001  1.050587141424510E-001  1.063801900872131E-001  1.077182881531087E-001 
 1.090732174206825E-001  1.104451896003898E-001  1.118344190656744E-001  1.132411228864669E-001 
 1.146655208631015E-001  1.161078355606595E-001  1.175682923437473E-001  1.190471194117082E-001 
 1.205445478342804E-001  1.220608115877017E-001  1.235961475912680E-001  1.251507957443540E-001 
 1.267249989638961E-001  1.283190032223503E-001  1.299330575861253E-001  1.315674142544987E-001 
 1.332223285990257E-001  1.348980592034389E-001  1.365948679040549E-001  1.383130198306856E-001 
 1.400527834480645E-001  1.418144305977971E-001  1.435982365408341E-001  1.454044800004834E-001 
 1.472334432059608E-001  1.490854119364876E-001  1.509606755659464E-001  1.528595271080939E-001 
 1.547822632623473E-001  1.567291844601426E-001  1.587005949118775E-001  1.606968026544466E-001 
 1.627181195993703E-001  1.647648615815341E-001  1.668373484085369E-001  1.689359039106615E-001 
 1.710608559914752E-001  1.732125366790633E-001  1.753912821779111E-001  1.775974329214359E-001 
 1.798313336251791E-001  1.820933333406712E-001  1.843837855099693E-001  1.867030480208851E-001 
 1.890514832629047E-001  1.914294581838121E-001  1.938373443470272E-001  1.962755179896614E-001 
 1.987443600813072E-001  2.012442563835645E-001  2.037755975103160E-001  2.063387789887636E-001 
 2.089342013212273E-001  2.115622700477273E-001  2.142233958093495E-001  2.169179944124074E-001 
 2.196464868934156E-001  2.224092995848749E-001  2.252068641818895E-001  2.280396178096199E-001 
 2.309080030915828E-001  2.338124682188152E-001  2.367534670199015E-001  2.397314590318884E-001 
 2.427469095720868E-001  2.458002898107779E-001  2.488920768448369E-001  2.520227537722773E-001 
 2.551928097677389E-001  2.584027401589211E-001  2.616530465039770E-001  2.649442366698869E-001 
 2.682768249118093E-001  2.716513319534375E-001  2.750682850683629E-001  2.785282181624605E-001 
 2.820316718573166E-001  2.855791935746977E-001  2.891713376220903E-001  2.928086652793105E-001 
 2.964917448862039E-001  3.002211519314535E-001  3.039974691424965E-001  3.078212865765806E-001 
 3.116932017129602E-001  3.156138195462517E-001  3.195837526809691E-001  3.236036214272405E-001 
 3.276740538977366E-001  3.317956861058128E-001  3.359691620648861E-001  3.401951338890672E-001 
 3.444742618950501E-001  3.488072147052926E-001  3.531946693524872E-001  3.576373113853475E-001 
 3.621358349757313E-001  3.666909430271004E-001  3.713033472843561E-001  3.759737684450481E-001 
 3.807029362719835E-001  3.854915897072583E-001  3.903404769877129E-001  3.952503557618507E-001 
 4.002219932082201E-001  4.052561661552854E-001  4.103536612028134E-001  4.155152748447746E-001 
 4.207418135938034E-001  4.260340941072114E-001  4.313929433145967E-001  4.368191985470515E-001 
 4.423137076679940E-001  4.478773292056547E-001  4.535109324872164E-001  4.592153977746544E-001 
 4.649916164022765E-001  4.708404909159935E-001  4.767629352143494E-001  4.827598746913133E-001 
 4.888322463808804E-001  4.949809991034823E-001  5.012070936142399E-001  5.075115027530893E-001 
 5.138952115967832E-001  5.203592176128170E-001  5.269045308152828E-001  5.335321739226832E-001 
 5.402431825177395E-001  5.470386052091966E-001  5.539195037956763E-001  5.608869534315830E-001 
 5.679420427950959E-001  5.750858742582835E-001  5.823195640593443E-001  5.896442424770276E-001 
 5.970610540072396E-001  6.045711575418693E-001  6.121757265498756E-001  6.198759492606354E-001 
 6.276730288496146E-001  6.355681836263634E-001  6.435626472248761E-001  6.516576687963573E-001 
 6.598545132043946E-001  6.681544612226045E-001  6.765588097347524E-001  6.850688719373897E-001 
 6.936859775450520E-001  7.024114729980195E-001  7.112467216727103E-001  7.201931040947063E-001 
 7.292520181544601E-001  7.384248793257265E-001  7.477131208867235E-001  7.571181941440931E-001 
 7.666415686596679E-001  7.762847324800890E-001  7.860491923693249E-001  7.959364740440967E-001 
 8.059481224122832E-001  8.160857018143123E-001  8.263507962675876E-001  8.367450097140049E-001 
 8.472699662705596E-001  8.579273104831281E-001  8.687187075834278E-001  8.796458437492080E-001 
 8.907104263677287E-001  9.019141843025323E-001  9.132588681635919E-001  9.247462505808431E-001 
 9.363781264811570E-001  9.481563133688112E-001  9.600826516094667E-001  9.721590047177394E-001 
 9.843872596483739E-001  9.967693270910781E-001  1.009307141769085E+000  1.022002662741443E+000 
 1.034857873709135E+000  1.047874783325030E+000  1.061055425507736E+000  1.074401859759413E+000 
 1.087916171487564E+000  1.101600472330892E+000  1.115456900489247E+000  1.129487621057717E+000 
 1.143694826364939E+000  1.158080736315644E+000  1.172647598737531E+000  1.187397689732494E+000 
 1.202333314032254E+000  1.217456805358501E+000  1.232770526787517E+000  1.248276871119435E+000 
 1.263978261252107E+000  1.279877150559681E+000  1.295976023275963E+000  1.312277394882563E+000 
 1.328783812501962E+000  1.345497855295499E+000  1.362422134866360E+000  1.379559295667665E+000 
 1.396912015415652E+000  1.414483005508086E+000  1.432275011447922E+000  1.450290813272280E+000 
 1.468533225986855E+000  1.487005100005741E+000  1.505709321596838E+000  1.524648813332827E+000 
 1.543826534547818E+000  1.563245481799775E+000  1.582908689338708E+000  1.602819229580803E+000 
 1.622980213588484E+000  1.643394791556514E+000  1.664066153304240E+000  1.684997528773986E+000 
 1.706192188535757E+000  1.727653444298265E+000  1.749384649426380E+000  1.771389199465121E+000 
 1.793670532670195E+000  1.816232130545250E+000  1.839077518385858E+000  1.862210265830343E+000 
 1.885633987417564E+000  1.909352343151668E+000  1.933369039073996E+000  1.957687827842154E+000 
 1.982312509316354E+000  2.007246931153186E+000  2.032494989406782E+000  2.058060629137616E+000 
 2.083947845028913E+000  2.110160682010817E+000  2.136703235892444E+000  2.163579654001833E+000 
 2.190794135833996E+000  2.218350933707092E+000  2.246254353426846E+000  2.274508754959367E+000 
 2.303118553112370E+000  2.332088218225028E+000  2.361422276866459E+000  2.391125312542997E+000 
 2.421201966414405E+000  2.451656938019036E+000  2.482494986008167E+000  2.513720928889541E+000 
 2.545339645780254E+000  2.577356077169160E+000  2.609775225688790E+000  2.642602156897063E+000 
 2.675842000068771E+000  2.709499948997028E+000  2.743581262804841E+000  2.778091266766823E+000 
 2.813035353141307E+000  2.848418982012889E+000  2.884247682145559E+000  2.920527051846617E+000 
 2.957262759841380E+000  2.994460546158965E+000  3.032126223029170E+000  3.070265675790627E+000 
 3.108884863810436E+000  3.147989821415285E+000  3.187586658834365E+000  3.227681563154089E+000 
 3.268280799284820E+000  3.309390710939813E+000  3.351017721626393E+000  3.393168335649675E+000 
 3.435849139128863E+000  3.479066801026323E+000  3.522828074189666E+000  3.567139796406845E+000 
 3.612008891474614E+000  3.657442370280372E+000  3.703447331897604E+000  3.750030964695174E+000 
 3.797200547460468E+000  3.844963450536767E+000  3.893327136974858E+000  3.942299163699130E+000 
 3.991887182688407E+000  4.042098942171530E+000  4.092942287838081E+000  4.144425164064271E+000 
 4.196555615154235E+000  4.249341786597035E+000  4.302791926339335E+000  4.356914386074224E+000 
 4.411717622546156E+000  4.467210198872313E+000  4.523400785880661E+000  4.580298163464724E+000 
 4.637911221955519E+000  4.696248963510656E+000  4.755320503520926E+000  4.815135072034654E+000 
 4.875702015199847E+000  4.937030796724608E+000  4.999130999355834E+000  5.062012326376511E+000 
 5.125684603121937E+000  5.190157778514878E+000  5.255441926620170E+000  5.321547248218786E+000 
 5.388484072401698E+000  5.456262858183889E+000  5.524894196138514E+000  5.594388810051771E+000 
 5.664757558598480E+000  5.736011437038750E+000  5.808161578936073E+000  5.881219257896890E+000 
 5.955195889332187E+000  6.030103032241144E+000  6.105952391017217E+000  6.182755817277054E+000 
 6.260525311712245E+000  6.339273025964528E+000  6.419011264524480E+000  6.499752486654082E+000 
 6.581509308333586E+000  6.664294504232689E+000  6.748121009706691E+000  6.833001922817631E+000 
 6.918950506380849E+000  7.005980190037415E+000  7.094104572352441E+000  7.183337422939964E+000 
 7.273692684614447E+000  7.365184475569332E+000  7.457827091583121E+000  7.551635008253024E+000 
 7.646622883256887E+000  7.742805558643448E+000  7.840198063151393E+000  7.938815614557727E+000 
 8.038673622055468E+000  8.139787688661462E+000  8.242173613654352E+000  8.345847395043192E+000 
 8.450825232067281E+000  8.557123527727205E+000  8.664758891347937E+000  8.773748141174048E+000 
 8.884108306997529E+000  8.995856632818855E+000  9.109010579541255E+000  9.223587827699134E+000 
 9.339606280220643E+000  9.457084065224995E+000  9.576039538855143E+000  9.696491288145825E+000 
 9.818458133927944E+000  9.941959133769315E+000  1.006701358495239E+001  1.019364102748963E+001 
 1.032186124717653E+001  1.045169427868328E+001  1.058316040868524E+001  1.071628017903264E+001 
 1.085107438996047E+001  1.098756410333840E+001  1.112577064596185E+001  1.126571561288430E+001 
 1.140742087079153E+001  1.155090856141841E+001  1.169620110500851E+001  1.184332120381736E+001 
 1.199229184565976E+001  1.214313630750152E+001  1.229587815909676E+001  1.245054126667050E+001 
 1.260714979664797E+001  1.276572821943064E+001  1.292630131321965E+001  1.308889416788763E+001 
 1.325353218889889E+001  1.342024110127918E+001  1.358904695363527E+001  1.375997612222497E+001 
 1.393305531507867E+001  1.410831157617236E+001  1.428577228965340E+001  1.446546518411936E+001 
 1.464741833695053E+001  1.483166017869728E+001  1.501821949752217E+001  1.520712544369835E+001 
 1.539840753416427E+001  1.559209565713569E+001  1.578822007677592E+001  1.598681143792451E+001 
 1.618790077088569E+001  1.639151949627689E+001  1.659769942993816E+001  1.680647278790367E+001 
 1.701787219143529E+001  1.723193067211996E+001  1.744868167703081E+001  1.766815907395329E+001 
 1.789039715667725E+001  1.811543065035520E+001  1.834329471692840E+001  1.857402496062088E+001 
 1.880765743350257E+001  1.904422864112275E+001  1.928377554821386E+001  1.952633558446753E+001 
 1.977194665038294E+001  2.002064712318878E+001  2.027247586283997E+001  2.052747221808937E+001 
 2.078567603263631E+001  2.104712765135217E+001  2.131186792658423E+001  2.157993822453920E+001 
 2.185138043174643E+001  2.212623696160311E+001  2.240455076100125E+001  2.268636531703817E+001 
 2.297172466381168E+001  2.326067338930022E+001  2.355325664233004E+001  2.384952013962974E+001 
 2.414951017297344E+001  2.445327361641427E+001  2.476085793360819E+001  2.507231118523059E+001 
 2.538768203648575E+001  2.570701976471070E+001  2.603037426707527E+001  2.635779606837824E+001 
 2.668933632894224E+001  2.702504685260756E+001  2.736498009482644E+001  2.770918917085966E+001 
 2.805772786407557E+001  2.841065063435413E+001  2.876801262659628E+001  2.912986967934026E+001 
 2.949627833348687E+001  2.986729584113368E+001  3.024298017452114E+001  3.062339003509076E+001 
 3.100858486265707E+001  3.139862484469568E+001  3.179357092574723E+001  3.219348481694043E+001 
 3.259842900563450E+001  3.300846676518266E+001  3.342366216481919E+001  3.384408007966988E+001 
 3.426978620088933E+001  3.470084704592516E+001  3.513732996891127E+001  3.557930317119254E+001 
 3.602683571198089E+001  3.647999751914642E+001  3.693885940014350E+001  3.740349305307448E+001 
 3.787397107789307E+001  3.835036698774771E+001  3.883275522046862E+001  3.932121115019864E+001 
 3.981581109917044E+001  4.031663234963245E+001  4.082375315592384E+001  4.133725275670242E+001 
 4.185721138732560E+001  4.238371029238714E+001  4.291683173841226E+001  4.345665902671141E+001 
 4.400327650639674E+001  4.455676958756163E+001  4.511722475462595E+001  4.568472957984998E+001 
 4.625937273701707E+001  4.684124401528975E+001  4.743043433323916E+001  4.802703575305101E+001 
 4.863114149491113E+001  4.924284595157057E+001  4.986224470309529E+001  5.048943453180048E+001 
 5.112451343737272E+001  5.176758065218328E+001  5.241873665679261E+001  5.307808319565132E+001 
 5.374572329299763E+001  5.442176126895491E+001  5.510630275583249E+001  5.579945471463022E+001 
 5.650132545175197E+001  5.721202463592851E+001  5.793166331535308E+001  5.866035393503365E+001 
 5.939821035436189E+001  6.014534786490460E+001  6.090188320841796E+001  6.166793459508838E+001 