<PP_INFO>
Generated using unknown code                                                    
Author: unknown    Generation date: as well                                     
Info: automatically converted from CPMD format                                  
    0        The Pseudo was generated with a Non-Relativistic Calculation
  0.00000000000E+00    Local Potential cutoff radius
nl pn  l   occ               Rcut            Rcut US             E pseu
1S  0  0  1.00      0.00000000000      0.00000000000      0.00000000000
</PP_INFO>


<PP_HEADER>
   0                   Version Number
  H                    Element
   NC                  Norm - Conserving pseudopotential
    F                  Nonlinear Core Correction
    BLYP               Exchange-Correlation functional
    1.00000000000      Z valence
    0.00000000000      Total energy
  0.0000000  0.0000000 Suggested cutoff for wfc and rho
  0                    Max angular momentum component
  809                  Number of points in mesh
    1    0             Number of Wavefunctions, Number of Projectors
 Wavefunctions         nl  l   occ
                       1S  0  1.00
</PP_HEADER>


<PP_MESH>
  <PP_R>
  1.12299116651E-03  1.15141982324E-03  1.18056815484E-03  1.21045437997E-03
  1.24109717849E-03  1.27251570314E-03  1.30472959154E-03  1.33775897840E-03
  1.37162450817E-03  1.40634734791E-03  1.44194920052E-03  1.47845231832E-03
  1.51587951695E-03  1.55425418962E-03  1.59360032176E-03  1.63394250597E-03
  1.67530595744E-03  1.71771652967E-03  1.76120073064E-03  1.80578573941E-03
  1.85149942304E-03  1.89837035409E-03  1.94642782840E-03  1.99570188347E-03
  2.04622331718E-03  2.09802370707E-03  2.15113543008E-03  2.20559168276E-03
  2.26142650203E-03  2.31867478649E-03  2.37737231817E-03  2.43755578493E-03
  2.49926280341E-03  2.56253194250E-03  2.62740274748E-03  2.69391576469E-03
  2.76211256696E-03  2.83203577949E-03  2.90372910658E-03  2.97723735889E-03
  3.05260648146E-03  3.12988358245E-03  3.20911696256E-03  3.29035614525E-03
  3.37365190763E-03  3.45905631228E-03  3.54662273973E-03  3.63640592184E-03
  3.72846197603E-03  3.82284844032E-03  3.91962430933E-03  4.01885007114E-03
  4.12058774506E-03  4.22490092045E-03  4.33185479646E-03  4.44151622273E-03
  4.55395374122E-03  4.66923762904E-03  4.78743994237E-03  4.90863456152E-03
  5.03289723705E-03  5.16030563720E-03  5.29093939634E-03  5.42488016485E-03
  5.56221166005E-03  5.70301971861E-03  5.84739235014E-03  5.99541979224E-03
  6.14719456687E-03  6.30281153822E-03  6.46236797195E-03  6.62596359604E-03
  6.79370066306E-03  6.96568401415E-03  7.14202114451E-03  7.32282227057E-03
  7.50820039893E-03  7.69827139695E-03  7.89315406519E-03  8.09297021167E-03
  8.29784472798E-03  8.50790566736E-03  8.72328432474E-03  8.94411531879E-03
  9.17053667607E-03  9.40268991730E-03  9.64072014581E-03  9.88477613824E-03
  1.01350104375E-02  1.03915794483E-02  1.06546435345E-02  1.09243671197E-02
  1.12009187900E-02  1.14844713991E-02  1.17752021767E-02  1.20732928390E-02
  1.23789297024E-02  1.26923037998E-02  1.30136110002E-02  1.33430521311E-02
  1.36808331040E-02  1.40271650429E-02  1.43822644166E-02  1.47463531737E-02
  1.51196588816E-02  1.55024148684E-02  1.58948603693E-02  1.62972406752E-02
  1.67098072871E-02  1.71328180725E-02  1.75665374270E-02  1.80112364391E-02
  1.84671930604E-02  1.89346922785E-02  1.94140262956E-02  1.99054947111E-02
  2.04094047088E-02  2.09260712489E-02  2.14558172646E-02  2.19989738646E-02
  2.25558805394E-02  2.31268853738E-02  2.37123452644E-02  2.43126261427E-02
  2.49281032038E-02  2.55591611408E-02  2.62061943856E-02  2.68696073550E-02
  2.75498147036E-02  2.82472415832E-02  2.89623239084E-02  2.96955086288E-02
  3.04472540088E-02  3.12180299137E-02  3.20083181035E-02  3.28186125340E-02
  3.36494196658E-02  3.45012587802E-02  3.53746623045E-02  3.62701761442E-02
  3.71883600247E-02  3.81297878409E-02  3.90950480156E-02  4.00847438681E-02
  4.10994939903E-02  4.21399326341E-02  4.32067101076E-02  4.43004931815E-02
  4.54219655057E-02  4.65718280369E-02  4.77507994767E-02  4.89596167206E-02
  5.01990353187E-02  5.14698299480E-02  5.27727948965E-02  5.41087445597E-02
  5.54785139497E-02  5.68829592168E-02  5.83229581852E-02  5.97994109010E-02
  6.13132401952E-02  6.28653922605E-02  6.44568372424E-02  6.60885698458E-02
  6.77616099568E-02  6.94770032798E-02  7.12358219915E-02  7.30391654108E-02
  7.48881606862E-02  7.67839634998E-02  7.87277587902E-02  8.07207614926E-02
  8.27642172986E-02  8.48594034346E-02  8.70076294602E-02  8.92102380865E-02
  9.14686060157E-02  9.37841448012E-02  9.61583017301E-02  9.85925607278E-02
  1.01088443285E-01  1.03647509411E-01  1.06271358604E-01  1.08961630855E-01
  1.11720007673E-01  1.14548213132E-01  1.17448014953E-01  1.20421225607E-01
  1.23469703447E-01  1.26595353871E-01  1.29800130512E-01  1.33086036460E-01
  1.36455125513E-01  1.39909503462E-01  1.43451329404E-01  1.47082817097E-01
  1.50806236339E-01  1.54623914388E-01  1.58538237417E-01  1.62551652005E-01
  1.66666666667E-01  1.70885853421E-01  1.75211849396E-01  1.79647358481E-01
  1.84195153013E-01  1.88858075511E-01  1.93639040455E-01  1.98541036102E-01
  2.03567126360E-01  2.08720452699E-01  2.14004236115E-01  2.19421779145E-01
  2.24976467929E-01  2.30671774330E-01  2.36511258099E-01  2.42498569103E-01
  2.48637449607E-01  2.54931736611E-01  2.61385364248E-01  2.68002366248E-01
  2.74786878450E-01  2.81743141397E-01  2.88875502978E-01  2.96188421152E-01
  3.03686466732E-01  3.11374326239E-01  3.19256804836E-01  3.27338829328E-01
  3.35625451245E-01  3.44121849994E-01  3.52833336102E-01  3.61765354531E-01
  3.70923488082E-01  3.80313460888E-01  3.89941141988E-01  3.99812548995E-01
  4.09933851859E-01  4.20311376726E-01  4.30951609886E-01  4.41861201830E-01
  4.53046971410E-01  4.64515910094E-01  4.76275186344E-01  4.88332150089E-01
  5.00694337324E-01  5.13369474820E-01  5.26365484948E-01  5.39690490640E-01
  5.53352820456E-01  5.67361013798E-01  5.81723826244E-01  5.96450235017E-01
  6.11549444603E-01  6.27030892500E-01  6.42904255116E-01  6.59179453820E-01
  6.75866661141E-01  6.92976307126E-01  7.10519085861E-01  7.28505962155E-01
  7.46948178390E-01  7.65857261551E-01  7.85245030432E-01  8.05123603018E-01
  8.25505404066E-01  8.46403172863E-01  8.67829971197E-01  8.89799191512E-01
  9.12324565288E-01  9.35420171616E-01  9.59100446001E-01  9.83380189387E-01
  1.00827457740E+00  1.03379916985E+00  1.05996992043E+00  1.08680318672E+00
  1.11431574038E+00  1.14252477765E+00  1.17144793010E+00  1.20110327564E+00
  1.23150934982E+00  1.26268515744E+00  1.29465018438E+00  1.32742440984E+00
  1.36102831876E+00  1.39548291469E+00  1.43080973286E+00  1.46703085370E+00
  1.50416891657E+00  1.54224713398E+00  1.58128930606E+00  1.62131983543E+00
  1.66236374247E+00  1.70444668097E+00  1.74759495412E+00  1.79183553101E+00
  1.83719606344E+00  1.88370490321E+00  1.93139111987E+00  1.98028451885E+00
  2.03041566012E+00  2.08181587727E+00  2.13451729711E+00  2.18855285975E+00
  2.24395633917E+00  2.30076236434E+00  2.35900644090E+00  2.41872497327E+00
  2.47995528748E+00  2.54273565448E+00  2.60710531403E+00  2.67310449928E+00
  2.74077446185E+00  2.81015749768E+00  2.88129697343E+00  2.95423735358E+00
  3.02902422824E+00  3.10570434165E+00  3.18432562137E+00  3.26493720827E+00
  3.34758948720E+00  3.43233411853E+00  3.51922407042E+00  3.60831365192E+00
  3.69965854691E+00  3.79331584892E+00  3.88934409682E+00  3.98780331140E+00
  4.08875503285E+00  4.19226235930E+00  4.29838998620E+00  4.40720424676E+00
  4.51877315344E+00  4.63316644044E+00  4.75045560729E+00  4.87071396354E+00
  4.99401667457E+00  5.12044080858E+00  5.25006538479E+00  5.38297142277E+00
  5.51924199312E+00  5.65896226937E+00  5.80221958127E+00  5.94910346928E+00
  6.09970574061E+00  6.25412052660E+00  6.41244434151E+00  6.57477614287E+00
  6.74121739334E+00  6.91187212414E+00  7.08684700001E+00  7.26625138595E+00
  7.45019741555E+00  7.63880006106E+00  7.83217720526E+00  8.03044971518E+00
  8.23374151759E+00  8.44217967647E+00  8.65589447247E+00  8.87501948429E+00
  9.09969167219E+00  9.33005146361E+00  9.56624284091E+00  9.80841343139E+00
  1.00567145996E+01  1.03113015417E+01  1.05723333830E+01  1.08399732768E+01
  1.11143885068E+01  1.13957505914E+01  1.16842353911E+01  1.19800232183E+01
  1.22832989499E+01  1.25942521433E+01  1.29130771542E+01  1.32399732587E+01
  1.35751447775E+01  1.39188012037E+01  1.42711573337E+01  1.46324334016E+01
  1.50028552168E+01  1.53826543048E+01  1.57720680525E+01  1.61713398562E+01
  1.65807192737E+01  1.70004621804E+01  1.74308309295E+01  1.78720945153E+01
  1.83245287420E+01  1.87884163957E+01  1.92640474212E+01  1.97517191035E+01
  2.02517362531E+01  2.07644113972E+01  2.12900649743E+01  2.18290255351E+01
  2.23816299475E+01  2.29482236071E+01  2.35291606536E+01  2.41248041914E+01
  2.47355265171E+01  2.53617093521E+01  2.60037440811E+01  2.66620319966E+01
  2.73369845500E+01  2.80290236086E+01  2.87385817195E+01  2.94661023794E+01
  3.02120403125E+01  3.09768617543E+01  3.17610447431E+01  3.25650794188E+01
  3.33894683291E+01  3.42347267441E+01  3.51013829778E+01  3.59899787184E+01
  3.69010693674E+01  3.78352243859E+01  3.87930276513E+01  3.97750778218E+01
  4.07819887107E+01  4.18143896701E+01  4.28729259843E+01  4.39582592728E+01
  4.50710679044E+01  4.62120474205E+01  4.73819109707E+01  4.85813897576E+01
  4.98112334945E+01  5.10722108739E+01  5.23651100476E+01  5.36907391197E+01
  5.50499266516E+01  5.64435221797E+01  5.78723967465E+01  5.93374434451E+01
  6.08395779776E+01  6.23797392267E+01  6.39588898435E+01  6.55780168485E+01
  6.72381322488E+01  6.89402736705E+01  7.06855050075E+01  7.24749170861E+01
  7.43096283471E+01  7.61907855448E+01  7.81195644637E+01  8.00971706535E+01
  8.21248401822E+01  8.42038404095E+01  8.63354707781E+01  8.85210636263E+01
  9.07619850210E+01  9.30596356108E+01  9.54154515023E+01  9.78309051570E+01
  1.00307506312E+02  1.02846802924E+02  1.05450382135E+02  1.08119871268E+02
  1.10856938841E+02  1.13663295608E+02  1.16540695636E+02  1.19490937392E+02
  1.22515864874E+02  1.25617368759E+02  1.28797387589E+02  1.32057908979E+02
  1.35400970861E+02  1.38828662758E+02  1.42343127088E+02  1.45946560506E+02
  1.49641215275E+02  1.53429400675E+02  1.57313484445E+02  1.61295894264E+02
  1.65379119268E+02  1.69565711604E+02  1.73858288030E+02  1.78259531546E+02
  1.82772193071E+02  1.87399093168E+02  1.92143123797E+02  1.97007250134E+02
  2.01994512415E+02  2.07108027842E+02  2.12350992529E+02  2.17726683498E+02
  2.23238460732E+02  2.28889769272E+02  2.34684141367E+02  2.40625198691E+02
  2.46716654597E+02  2.52962316444E+02  2.59366087973E+02  2.65931971750E+02
  2.72664071666E+02  2.79566595503E+02  2.86643857563E+02  2.93900281364E+02
  3.01340402409E+02  3.08968871015E+02  3.16790455223E+02  3.24810043778E+02
  3.33032649184E+02  3.41463410837E+02  3.50107598237E+02  3.58970614283E+02
  3.68057998648E+02  3.77375431244E+02  3.86928735769E+02  3.96723883349E+02
  4.06766996271E+02  4.17064351807E+02  4.27622386139E+02  4.38447698383E+02
  4.49547054711E+02  4.60927392583E+02  4.72595825079E+02  4.84559645350E+02
  4.96826331174E+02  5.09403549627E+02  5.22299161881E+02  5.35521228114E+02
  5.49078012547E+02  5.62977988612E+02  5.77229844247E+02  5.91842487324E+02
  6.06825051222E+02  6.22186900531E+02  6.37937636907E+02  6.54087105072E+02
  6.70645398970E+02  6.87622868074E+02  7.05030123855E+02  7.22878046414E+02
  7.41177791283E+02  7.59940796400E+02  7.79178789252E+02  7.98903794212E+02
  8.19128140050E+02  8.39864467640E+02  8.61125737863E+02  8.82925239703E+02
  9.05276598560E+02  9.28193784761E+02  9.51691122292E+02  9.75783297755E+02
  1.00048536954E+03  1.02581277726E+03  1.05178135135E+03  1.07840732302E+03
  1.10570733438E+03  1.13369844881E+03  1.16239816168E+03  1.19182441124E+03
  1.22199558986E+03  1.25293055550E+03  1.28464864352E+03  1.31716967876E+03
  1.35051398793E+03  1.38470241230E+03  1.41975632076E+03  1.45569762314E+03
  1.49254878391E+03  1.53033283627E+03  1.56907339646E+03  1.60879467860E+03
  1.64952150979E+03  1.69127934562E+03  1.73409428609E+03  1.77799309195E+03
  1.82300320136E+03  1.86915274712E+03  1.91647057419E+03  1.96498625776E+03
  2.01473012170E+03  2.06573325756E+03  2.11802754394E+03  2.17164566649E+03
  2.22662113828E+03  2.28298832075E+03  2.34078244525E+03  2.40003963497E+03
  2.46079692760E+03  2.52309229840E+03  2.58696468403E+03  2.65245400680E+03
  2.71960119967E+03  2.78844823182E+03  2.85903813488E+03  2.93141502985E+03
  3.00562415464E+03  3.08171189236E+03  3.15972580034E+03  3.23971463980E+03
  3.32172840637E+03  3.40581836133E+03  3.49203706363E+03  3.58043840277E+03
  3.67107763247E+03  3.76401140519E+03  3.85929780757E+03  3.95699639670E+03
  4.05716823740E+03  4.15987594032E+03  4.26518370111E+03  4.37315734057E+03
  4.48386434572E+03  4.59737391204E+03  4.71375698672E+03  4.83308631296E+03
  4.95543647548E+03  5.08088394711E+03  5.20950713660E+03  5.34138643764E+03
  5.47660427907E+03  5.61524517646E+03  5.75739578488E+03  5.90314495308E+03
  6.05258377904E+03  6.20580566689E+03  6.36290638530E+03  6.52398412733E+03
  6.68913957181E+03  6.85847594628E+03  7.03209909147E+03  7.21011752751E+03
  7.39264252172E+03  7.57978815815E+03  7.77167140892E+03  7.96841220731E+03
  8.17013352273E+03  8.37696143756E+03  8.58902522598E+03  8.80645743476E+03
  9.02939396612E+03  9.25797416263E+03  9.49234089437E+03  9.73264064817E+03
  9.97902361920E+03  1.02316438048E+04  1.04906591009E+04  1.07562314004E+04
  1.10285266947E+04  1.13077151772E+04  1.15939713498E+04  1.18874741319E+04
  1.21884069722E+04  1.24969579637E+04  1.28133199608E+04  1.31376906999E+04
  1.34702729234E+04  1.38112745059E+04  1.41609085847E+04  1.45193936922E+04
  1.48869538935E+04  1.52638189255E+04  1.56502243413E+04  1.60464116567E+04
  1.64526285018E+04  1.68691287753E+04  1.72961728033E+04  1.77340275025E+04
  1.81829665461E+04  1.86432705357E+04  1.91152271763E+04  1.95991314561E+04
  2.00952858311E+04  2.06040004139E+04  2.11255931676E+04  2.16603901048E+04
  2.22087254909E+04  2.27709420534E+04  2.33473911960E+04  2.39384332180E+04
  2.45444375401E+04  2.51657829346E+04  2.58028577627E+04  2.64560602168E+04
  2.71257985698E+04  2.78124914300E+04  2.85165680026E+04  2.92384683585E+04
  2.99786437090E+04  3.07375566876E+04  3.15156816398E+04  3.23135049189E+04
  3.31315251905E+04  3.39702537438E+04  3.48302148116E+04  3.57119458975E+04
  3.66159981120E+04  3.75429365174E+04  3.84933404801E+04  3.94678040338E+04
  4.04669362497E+04  4.14913616181E+04  4.25417204382E+04  4.36186692184E+04
  4.47228810868E+04  4.58550462117E+04  4.70158722332E+04  4.82060847054E+04
  4.94264275497E+04  5.06776635202E+04  5.19605746801E+04  5.32759628907E+04
  5.46246503123E+04  5.60074799186E+04  5.74253160230E+04  5.88790448192E+04
  6.03695749352E+04  6.18978380007E+04  6.34647892299E+04  6.50714080183E+04
  6.67186985550E+04  6.84076904501E+04  7.01394393787E+04  7.19150277401E+04
  7.37355653348E+04  7.56021900582E+04  7.75160686114E+04  7.94783972309E+04
  8.14904024359E+04  8.35533417952E+04  8.56685047129E+04  8.78372132349E+04
  9.00608228744E+04  9.23407234600E+04  9.46783400037E+04  9.70751335920E+04
  9.95326022988E+04  1.02052282122E+05  1.04635747944E+05  1.07284614514E+05
  1.10000537461E+05  1.12785214325E+05  1.15640385619E+05  1.18567835918E+05
  1.21569394975E+05  1.24646938860E+05  1.27802391141E+05  1.31037724076E+05
  1.34354959854E+05  1.37756171856E+05  1.41243485949E+05  1.44819081819E+05
  1.48485194330E+05  1.52244114920E+05  1.56098193039E+05  1.60049837609E+05
  1.64101518538E+05  1.68255768258E+05  1.72515183311E+05  1.76882425968E+05
  1.81360225900E+05  1.85951381877E+05  1.90658763521E+05  1.95485313099E+05
  2.00434047361E+05  2.05508059427E+05  2.10710520720E+05  2.16044682948E+05
  2.21513880135E+05  2.27121530709E+05  2.32871139632E+05  2.38766300599E+05
  2.44810698276E+05  2.51008110608E+05  2.57362411181E+05  2.63877571638E+05
  2.70557664168E+05  2.77406864045E+05  2.84429452243E+05  2.91629818107E+05
  2.99012462101E+05  3.06581998617E+05  3.14343158863E+05  3.22300793816E+05
  3.30459877256E+05  3.38825508877E+05  3.47402917471E+05  3.56197464198E+05
  3.65214645934E+05  3.74460098714E+05  3.83939601244E+05  3.93659078524E+05
  4.03624605542E+05  4.13842411078E+05  4.24318881593E+05  4.35060565221E+05
  4.46074175865E+05  4.57366597390E+05  4.68944887926E+05  4.80816284284E+05
  4.92988206470E+05  5.05468262334E+05  5.18264252317E+05  5.31384174327E+05
  5.44836228745E+05  5.58628823542E+05  5.72770579539E+05  5.87270335792E+05
  6.02137155123E+05  6.17380329778E+05  6.33009387235E+05  6.49034096166E+05
  6.65464472535E+05
  </PP_R>
  <PP_RAB>
  2.80747791629E-05  2.87854955811E-05  2.95142038711E-05  3.02613594992E-05
  3.10274294622E-05  3.18128925786E-05  3.26182397884E-05  3.34439744600E-05
  3.42906127043E-05  3.51586836977E-05  3.60487300130E-05  3.69613079580E-05
  3.78969879237E-05  3.88563547405E-05  3.98400080439E-05  4.08485626493E-05
  4.18826489360E-05  4.29429132417E-05  4.40300182661E-05  4.51446434852E-05
  4.62874855760E-05  4.74592588521E-05  4.86606957100E-05  4.98925470867E-05
  5.11555829295E-05  5.24505926768E-05  5.37783857520E-05  5.51397920689E-05
  5.65356625508E-05  5.79668696622E-05  5.94343079542E-05  6.09388946233E-05
  6.24815700853E-05  6.40632985626E-05  6.56850686869E-05  6.73478941174E-05
  6.90528141740E-05  7.08008944874E-05  7.25932276646E-05  7.44309339721E-05
  7.63151620364E-05  7.82470895612E-05  8.02279240641E-05  8.22589036312E-05
  8.43412976909E-05  8.64764078071E-05  8.86655684932E-05  9.09101480460E-05
  9.32115494007E-05  9.55712110080E-05  9.79906077334E-05  1.00471251778E-04
  1.03014693626E-04  1.05622523011E-04  1.08296369911E-04  1.11037905568E-04
  1.13848843530E-04  1.16730940726E-04  1.19685998559E-04  1.22715864038E-04
  1.25822430926E-04  1.29007640930E-04  1.32273484909E-04  1.35622004121E-04
  1.39055291501E-04  1.42575492965E-04  1.46184808754E-04  1.49885494806E-04
  1.53679864172E-04  1.57570288456E-04  1.61559199299E-04  1.65649089901E-04
  1.69842516577E-04  1.74142100354E-04  1.78550528613E-04  1.83070556764E-04
  1.87705009973E-04  1.92456784924E-04  1.97328851630E-04  2.02324255292E-04
  2.07446118199E-04  2.12697641684E-04  2.18082108118E-04  2.23602882970E-04
  2.29263416902E-04  2.35067247932E-04  2.41018003645E-04  2.47119403456E-04
  2.53375260938E-04  2.59789486207E-04  2.66366088361E-04  2.73109177992E-04
  2.80022969749E-04  2.87111784978E-04  2.94380054418E-04  3.01832320976E-04
  3.09473242560E-04  3.17307594994E-04  3.25340275005E-04  3.33576303278E-04
  3.42020827600E-04  3.50679126072E-04  3.59556610414E-04  3.68658829342E-04
  3.77991472039E-04  3.87560371711E-04  3.97371509231E-04  4.07431016881E-04
  4.17745182178E-04  4.28320451814E-04  4.39163435674E-04  4.50280910978E-04
  4.61679826510E-04  4.73367306962E-04  4.85350657390E-04  4.97637367778E-04
  5.10235117721E-04  5.23151781222E-04  5.36395431616E-04  5.49974346616E-04
  5.63897013486E-04  5.78172134346E-04  5.92808631610E-04  6.07815653568E-04
  6.23202580094E-04  6.38979028521E-04  6.55154859640E-04  6.71740183874E-04
  6.88745367590E-04  7.06181039581E-04  7.24058097710E-04  7.42387715720E-04
  7.61181350220E-04  7.80450747841E-04  8.00207952586E-04  8.20465313351E-04
  8.41235491644E-04  8.62531469505E-04  8.84366557611E-04  9.06754403605E-04
  9.29709000618E-04  9.53244696022E-04  9.77376200391E-04  1.00211859670E-03
  1.02748734976E-03  1.05349831585E-03  1.08016775269E-03  1.10751232954E-03
  1.13554913764E-03  1.16429570092E-03  1.19376998692E-03  1.22399041801E-03
  1.25497588297E-03  1.28674574870E-03  1.31931987241E-03  1.35271861399E-03
  1.38696284874E-03  1.42207398042E-03  1.45807395463E-03  1.49498527252E-03
  1.53283100488E-03  1.57163480651E-03  1.61142093106E-03  1.65221424615E-03
  1.69404024892E-03  1.73692508199E-03  1.78089554979E-03  1.82597913527E-03
  1.87220401716E-03  1.91959908750E-03  1.96819396975E-03  2.01801903731E-03
  2.06910543246E-03  2.12148508586E-03  2.17519073650E-03  2.23025595216E-03
  2.28671515039E-03  2.34460362003E-03  2.40395754325E-03  2.46481401820E-03
  2.52721108214E-03  2.59118773527E-03  2.65678396509E-03  2.72404077137E-03
  2.79300019182E-03  2.86370532830E-03  2.93620037383E-03  3.01053064018E-03
  3.08674258617E-03  3.16488384677E-03  3.24500326280E-03  3.32715091150E-03
  3.41137813782E-03  3.49773758654E-03  3.58628323510E-03  3.67707042744E-03
  3.77015590848E-03  3.86559785970E-03  3.96345593542E-03  4.06379130012E-03
  4.16666666667E-03  4.27214633552E-03  4.38029623490E-03  4.49118396202E-03
  4.60487882532E-03  4.72145188778E-03  4.84097601137E-03  4.96352590255E-03
  5.08917815900E-03  5.21801131747E-03  5.35010590287E-03  5.48554447862E-03
  5.62441169823E-03  5.76679435825E-03  5.91278145247E-03  6.06246422758E-03
  6.21593624017E-03  6.37329341526E-03  6.53463410621E-03  6.70005915619E-03
  6.86967196125E-03  7.04357853491E-03  7.22188757445E-03  7.40471052881E-03
  7.59216166829E-03  7.78435815597E-03  7.98142012089E-03  8.18347073321E-03
  8.39063628113E-03  8.60304624986E-03  8.82083340255E-03  9.04413386326E-03
  9.27308720205E-03  9.50783652221E-03  9.74852854969E-03  9.99531372486E-03
  1.02483462965E-02  1.05077844182E-02  1.07737902471E-02  1.10465300458E-02
  1.13261742852E-02  1.16128977524E-02  1.19068796586E-02  1.22083037522E-02
  1.25173584331E-02  1.28342368705E-02  1.31591371237E-02  1.34922622660E-02
  1.38338205114E-02  1.41840253450E-02  1.45430956561E-02  1.49112558754E-02
  1.52887361151E-02  1.56757723125E-02  1.60726063779E-02  1.64794863455E-02
  1.68966665285E-02  1.73244076782E-02  1.77629771465E-02  1.82126490539E-02
  1.86737044597E-02  1.91464315388E-02  1.96311257608E-02  2.01280900755E-02
  2.06376351016E-02  2.11600793216E-02  2.16957492799E-02  2.22449797878E-02
  2.28081141322E-02  2.33855042904E-02  2.39775111500E-02  2.45845047347E-02
  2.52068644351E-02  2.58449792463E-02  2.64992480108E-02  2.71700796680E-02
  2.78578935095E-02  2.85631194412E-02  2.92861982525E-02  3.00275818909E-02
  3.07877337455E-02  3.15671289360E-02  3.23662546096E-02  3.31856102460E-02
  3.40257079690E-02  3.48870728672E-02  3.57702433216E-02  3.66757713424E-02
  3.76042229143E-02  3.85561783496E-02  3.95322326515E-02  4.05329958857E-02
  4.15590935617E-02  4.26111670241E-02  4.36898738530E-02  4.47958882753E-02
  4.59299015860E-02  4.70926225803E-02  4.82847779968E-02  4.95071129712E-02
  5.07603915029E-02  5.20453969317E-02  5.33629324278E-02  5.47138214937E-02
  5.60989084792E-02  5.75190591086E-02  5.89751610224E-02  6.04681243316E-02
  6.19988821870E-02  6.35683913619E-02  6.51776328508E-02  6.68276124819E-02
  6.85193615462E-02  7.02539374420E-02  7.20324243357E-02  7.38559338394E-02
  7.57256057060E-02  7.76426085412E-02  7.96081405343E-02  8.16234302067E-02
  8.36897371799E-02  8.58083529633E-02  8.79806017606E-02  9.02078412980E-02
  9.24914636727E-02  9.48328962230E-02  9.72336024206E-02  9.96950827849E-02
  1.02218875821E-01  1.04806558983E-01  1.07459749655E-01  1.10180106169E-01
  1.12969328836E-01  1.15829161011E-01  1.18761390182E-01  1.21767849088E-01
  1.24850416864E-01  1.28011020215E-01  1.31251634620E-01  1.34574285569E-01
  1.37981049828E-01  1.41474056734E-01  1.45055489532E-01  1.48727586732E-01
  1.52492643515E-01  1.56353013165E-01  1.60311108538E-01  1.64369403572E-01
  1.68530434834E-01  1.72796803103E-01  1.77171175000E-01  1.81656284649E-01
  1.86254935389E-01  1.90970001526E-01  1.95804430132E-01  2.00761242880E-01
  2.05843537940E-01  2.11054491912E-01  2.16397361812E-01  2.21875487107E-01
  2.27492291805E-01  2.33251286590E-01  2.39156071023E-01  2.45210335785E-01
  2.51417864989E-01  2.57782538543E-01  2.64308334576E-01  2.70999331921E-01
  2.77859712671E-01  2.84893764786E-01  2.92105884778E-01  2.99500580457E-01
  3.07082473748E-01  3.14856303582E-01  3.22826928855E-01  3.30999331468E-01
  3.39378619437E-01  3.47970030092E-01  3.56778933343E-01  3.65810835041E-01
  3.75071380419E-01  3.84566357619E-01  3.94301701312E-01  4.04283496404E-01
  4.14517981841E-01  4.25011554511E-01  4.35770773238E-01  4.46802362884E-01
  4.58113218551E-01  4.69710409892E-01  4.81601185530E-01  4.93792977586E-01
  5.06293406328E-01  5.19110284930E-01  5.32251624358E-01  5.45725638378E-01
  5.59540748687E-01  5.73705590179E-01  5.88229016339E-01  6.03120104784E-01
  6.18388162927E-01  6.34042733803E-01  6.50093602027E-01  6.66550799914E-01
  6.83424613750E-01  7.00725590216E-01  7.18464542987E-01  7.36652559485E-01
  7.55301007813E-01  7.74421543858E-01  7.94026118578E-01  8.14126985469E-01
  8.34736708228E-01  8.55868168603E-01  8.77534574444E-01  8.99749467961E-01
  9.22526734184E-01  9.45880609647E-01  9.69825691282E-01  9.94376945544E-01
  1.01954971777E+00  1.04535974175E+00  1.07182314961E+00  1.09895648182E+00
  1.12677669761E+00  1.15530118551E+00  1.18454777427E+00  1.21453474394E+00
  1.24528083736E+00  1.27680527185E+00  1.30912775119E+00  1.34226847799E+00
  1.37624816629E+00  1.41108805449E+00  1.44680991866E+00  1.48343608613E+00
  1.52098944944E+00  1.55949348067E+00  1.59897224609E+00  1.63945042121E+00
  1.68095330622E+00  1.72350684176E+00  1.76713762519E+00  1.81187292715E+00
  1.85774070868E+00  1.90476963862E+00  1.95298911159E+00  2.00242926634E+00
  2.05312100456E+00  2.10509601024E+00  2.15838676945E+00  2.21302659066E+00
  2.26904962552E+00  2.32649089027E+00  2.38538628756E+00  2.44577262892E+00
  2.50768765780E+00  2.57117007310E+00  2.63625955338E+00  2.70299678171E+00
  2.77142347102E+00  2.84158239021E+00  2.91351739090E+00  2.98727343480E+00
  3.06289662184E+00  3.14043421898E+00  3.21993468973E+00  3.30144772448E+00
  3.38502427153E+00  3.47071656894E+00  3.55857817719E+00  3.64866401264E+00
  3.74103038188E+00  3.83573501688E+00  3.93283711113E+00  4.03239735660E+00
  4.13447798169E+00  4.23914279010E+00  4.34645720075E+00  4.45648828864E+00
  4.56930482679E+00  4.68497732919E+00  4.80357809493E+00  4.92518125335E+00
  5.04986281039E+00  5.17770069606E+00  5.30877481322E+00  5.44316708746E+00
  5.58096151831E+00  5.72224423179E+00  5.86710353419E+00  6.01562996728E+00
  6.16791636494E+00  6.32405791110E+00  6.48415219932E+00  6.64829929375E+00
  6.81660179165E+00  6.98916488757E+00  7.16609643907E+00  7.34750703411E+00
  7.53351006023E+00  7.72422177538E+00  7.91976138058E+00  8.12025109446E+00
  8.32581622960E+00  8.53658527092E+00  8.75268995592E+00  8.97426535706E+00
  9.20144996620E+00  9.43438578109E+00  9.67321839421E+00  9.91809708372E+00
  1.01691749068E+01  1.04266087952E+01  1.06905596535E+01  1.09611924596E+01
  1.12386763678E+01  1.15231848146E+01  1.18148956270E+01  1.21139911338E+01
  1.24206582793E+01  1.27350887407E+01  1.30574790470E+01  1.33880307029E+01
  1.37269503137E+01  1.40744497153E+01  1.44307461062E+01  1.47960621831E+01
  1.51706262806E+01  1.55546725133E+01  1.59484409227E+01  1.63521776268E+01
  1.67661349743E+01  1.71905717019E+01  1.76257530964E+01  1.80719511603E+01
  1.85294447821E+01  1.89985199100E+01  1.94794697313E+01  1.99725948553E+01
  2.04782035012E+01  2.09966116910E+01  2.15281434466E+01  2.20731309926E+01
  2.26319149640E+01  2.32048446190E+01  2.37922780573E+01  2.43945824439E+01
  2.50121342386E+01  2.56453194314E+01  2.62945337837E+01  2.69601830756E+01
  2.76426833595E+01  2.83424612204E+01  2.90599540421E+01  2.97956102811E+01
  3.05498897465E+01  3.13232638874E+01  3.21162160880E+01  3.29292419690E+01
  3.37628496982E+01  3.46175603076E+01  3.54939080190E+01  3.63924405784E+01
  3.73137195978E+01  3.82583209067E+01  3.92268349115E+01  4.02198669651E+01
  4.12380377448E+01  4.22819836405E+01  4.33523571523E+01  4.44498272987E+01
  4.55750800340E+01  4.67288186780E+01  4.79117643548E+01  4.91246564440E+01
  5.03682530426E+01  5.16433314389E+01  5.29506885986E+01  5.42911416623E+01
  5.56655284569E+01  5.70747080189E+01  5.85195611313E+01  6.00009908743E+01
  6.15199231899E+01  6.30773074601E+01  6.46741171008E+01  6.63113501700E+01
  6.79900299917E+01  6.97112057954E+01  7.14759533720E+01  7.32853757463E+01
  7.51406038660E+01  7.70427973091E+01  7.89931450085E+01  8.09928659950E+01
  8.30432101593E+01  8.51454590332E+01  8.73009265907E+01  8.95109600693E+01
  9.17769408117E+01  9.41002851297E+01  9.64824451891E+01  9.89249099176E+01
  1.01429205935E+02  1.03996898508E+02  1.06629592528E+02  1.09328933514E+02
  1.12096608643E+02  1.14934347801E+02  1.17843924668E+02  1.20827157824E+02
  1.23885911887E+02  1.27022098678E+02  1.30237678415E+02  1.33534660941E+02
  1.36915106977E+02  1.40381129412E+02  1.43934894622E+02  1.47578623827E+02
  1.51314594476E+02  1.55145141672E+02  1.59072659633E+02  1.63099603183E+02
  1.67228489295E+02  1.71461898657E+02  1.75802477287E+02  1.80252938188E+02
  1.84816063043E+02  1.89494703954E+02  1.94291785223E+02  1.99210305183E+02
  2.04253338068E+02  2.09424035939E+02  2.14725630649E+02  2.20161435869E+02
  2.25734849153E+02  2.31449354066E+02  2.37308522359E+02  2.43316016204E+02
  2.49475590480E+02  2.55791095121E+02  2.62266477523E+02  2.68905785011E+02
  2.75713167368E+02  2.82692879430E+02  2.89849283745E+02  2.97186853296E+02
  3.04710174306E+02  3.12423949093E+02  3.20332999019E+02  3.28442267498E+02
  3.36756823085E+02  3.45281862648E+02  3.54022714616E+02  3.62984842305E+02
  3.72173847337E+02  3.81595473138E+02  3.91255608532E+02  4.01160291418E+02
  4.11315712545E+02  4.21728219381E+02  4.32404320084E+02  4.43350687562E+02
  4.54574163652E+02  4.66081763392E+02  4.77880679407E+02  4.89978286402E+02
  5.02382145777E+02  5.15100010347E+02  5.28139829191E+02  5.41509752620E+02
  5.55218137273E+02  5.69273551335E+02  5.83684779899E+02  5.98460830450E+02
  6.13610938502E+02  6.29144573366E+02  6.45071444068E+02  6.61401505421E+02
  6.78144964246E+02  6.95312285749E+02  7.12914200065E+02  7.30961708963E+02