<PP_INFO>
Generated using Andrea Dal Corso code (rrkj3)
Author: Andrea Dal Corso   Generation date: unknown
Info:   H LDA 1s1 RRKJ3 US
    0        The Pseudo was generated with a Non-Relativistic Calculation
  1.10000000000E+00    Local Potential cutoff radius
nl pn  l   occ               Rcut            Rcut US             E pseu
1S  1  0  1.00      1.10000000000      1.20000000000      0.00000000000
1S  1  0  0.00      1.10000000000      1.20000000000      0.00000000000
2P  2  1  0.00      1.10000000000      1.10000000000      0.00000000000
</PP_INFO>


<PP_HEADER>
   0                   Version Number
  H                    Element
   US                  Ultrasoft pseudopotential
    F                  Nonlinear Core Correction
 SLA  PW   PBE  PBE    PBE  Exchange-Correlation functional
    1.00000000000      Z valence
   -0.61916649298      Total energy
  0.0000000  0.0000000 Suggested cutoff for wfc and rho
    1                  Max angular momentum component
 1061                  Number of points in mesh
    1    2             Number of Wavefunctions, Number of Projectors
 Wavefunctions         nl  l   occ
                       1S  0  1.00
</PP_HEADER>


<PP_MESH>
  <PP_R>
  2.47875217667E-03  2.50366405020E-03  2.52882629223E-03  2.55424141899E-03
  2.57991197203E-03  2.60584051841E-03  2.63202965101E-03  2.65848198878E-03
  2.68520017695E-03  2.71218688739E-03  2.73944481877E-03  2.76697669691E-03
  2.79478527504E-03  2.82287333402E-03  2.85124368268E-03  2.87989915809E-03
  2.90884262581E-03  2.93807698022E-03  2.96760514478E-03  2.99743007233E-03
  3.02755474538E-03  3.05798217642E-03  3.08871540824E-03  3.11975751416E-03
  3.15111159844E-03  3.18278079651E-03  3.21476827531E-03  3.24707723361E-03
  3.27971090234E-03  3.31267254490E-03  3.34596545747E-03  3.37959296938E-03
  3.41355844340E-03  3.44786527610E-03  3.48251689821E-03  3.51751677491E-03
  3.55286840622E-03  3.58857532733E-03  3.62464110897E-03  3.66106935773E-03
  3.69786371648E-03  3.73502786469E-03  3.77256551879E-03  3.81048043259E-03
  3.84877639761E-03  3.88745724348E-03  3.92652683831E-03  3.96598908909E-03
  4.00584794209E-03  4.04610738322E-03  4.08677143846E-03  4.12784417426E-03
  4.16932969790E-03  4.21123215800E-03  4.25355574482E-03  4.29630469075E-03
  4.33948327074E-03  4.38309580267E-03  4.42714664783E-03  4.47164021135E-03
  4.51658094261E-03  4.56197333574E-03  4.60782192999E-03  4.65413131028E-03
  4.70090610758E-03  4.74815099941E-03  4.79587071030E-03  4.84407001225E-03
  4.89275372524E-03  4.94192671768E-03  4.99159390691E-03  5.04176025969E-03
  5.09243079270E-03  5.14361057303E-03  5.19530471871E-03  5.24751839918E-03
  5.30025683587E-03  5.35352530266E-03  5.40732912644E-03  5.46167368764E-03
  5.51656442076E-03  5.57200681492E-03  5.62800641440E-03  5.68456881922E-03
  5.74169968565E-03  5.79940472684E-03  5.85768971334E-03  5.91656047368E-03
  5.97602289501E-03  6.03608292360E-03  6.09674656552E-03  6.15801988717E-03
  6.21990901594E-03  6.28242014080E-03  6.34555951291E-03  6.40933344626E-03
  6.47374831829E-03  6.53881057055E-03  6.60452670931E-03  6.67090330626E-03
  6.73794699909E-03  6.80566449223E-03  6.87406255750E-03  6.94314803475E-03
  7.01292783259E-03  7.08340892905E-03  7.15459837231E-03  7.22650328138E-03
  7.29913084679E-03  7.37248833137E-03  7.44658307092E-03  7.52142247499E-03
  7.59701402758E-03  7.67336528790E-03  7.75048389114E-03  7.82837754923E-03
  7.90705405159E-03  7.98652126596E-03  8.06678713910E-03  8.14785969768E-03
  8.22974704902E-03  8.31245738192E-03  8.39599896749E-03  8.48038015995E-03
  8.56560939750E-03  8.65169520312E-03  8.73864618547E-03  8.82647103973E-03
  8.91517854844E-03  9.00477758244E-03  9.09527710170E-03  9.18668615624E-03
  9.27901388706E-03  9.37226952701E-03  9.46646240171E-03  9.56160193054E-03
  9.65769762754E-03  9.75475910234E-03  9.85279606119E-03  9.95181830785E-03
  1.00518357446E-02  1.01528583734E-02  1.02548962964E-02  1.03579597176E-02
  1.04620589434E-02  1.05672043839E-02  1.06734065535E-02  1.07806760727E-02
  1.08890236686E-02  1.09984601758E-02  1.11089965382E-02  1.12206438096E-02
  1.13334131547E-02  1.14473158505E-02  1.15623632875E-02  1.16785669704E-02
  1.17959385198E-02  1.19144896728E-02  1.20342322847E-02  1.21551783299E-02
  1.22773399031E-02  1.24007292204E-02  1.25253586211E-02  1.26512405680E-02
  1.27783876495E-02  1.29068125805E-02  1.30365282034E-02  1.31675474901E-02
  1.32998835424E-02  1.34335495942E-02  1.35685590122E-02  1.37049252974E-02
  1.38426620865E-02  1.39817831533E-02  1.41223024102E-02  1.42642339090E-02
  1.44075918431E-02  1.45523905484E-02  1.46986445049E-02  1.48463683381E-02
  1.49955768205E-02  1.51462848730E-02  1.52985075667E-02  1.54522601239E-02
  1.56075579200E-02  1.57644164849E-02  1.59228515045E-02  1.60828788226E-02
  1.62445144419E-02  1.64077745263E-02  1.65726754018E-02  1.67392335586E-02
  1.69074656527E-02  1.70773885075E-02  1.72490191153E-02  1.74223746395E-02
  1.75974724156E-02  1.77743299537E-02  1.79529649395E-02  1.81333952368E-02
  1.83156388887E-02  1.84997141198E-02  1.86856393377E-02  1.88734331352E-02
  1.90631142916E-02  1.92547017754E-02  1.94482147454E-02  1.96436725531E-02
  1.98410947444E-02  2.00405010617E-02  2.02419114458E-02  2.04453460379E-02
  2.06508251817E-02  2.08583694252E-02  2.10679995230E-02  2.12797364384E-02
  2.14936013451E-02  2.17096156298E-02  2.19278008943E-02  2.21481789570E-02
  2.23707718562E-02  2.25956018511E-02  2.28226914251E-02  2.30520632872E-02
  2.32837403749E-02  2.35177458560E-02  2.37541031313E-02  2.39928358367E-02
  2.42339678457E-02  2.44775232717E-02  2.47235264703E-02  2.49720020423E-02
  2.52229748352E-02  2.54764699467E-02  2.57325127264E-02  2.59911287788E-02
  2.62523439657E-02  2.65161844089E-02  2.67826764926E-02  2.70518468664E-02
  2.73237224473E-02  2.75983304232E-02  2.78756982552E-02  2.81558536803E-02
  2.84388247142E-02  2.87246396542E-02  2.90133270822E-02  2.93049158670E-02
  2.95994351679E-02  2.98969144369E-02  3.01973834223E-02  3.05008721712E-02
  3.08074110328E-02  3.11170306611E-02  3.14297620184E-02  3.17456363781E-02
  3.20646853279E-02  3.23869407729E-02  3.27124349390E-02  3.30412003759E-02
  3.33732699603E-02  3.37086768996E-02  3.40474547346E-02  3.43896373435E-02
  3.47352589447E-02  3.50843541008E-02  3.54369577216E-02  3.57931050677E-02
  3.61528317540E-02  3.65161737537E-02  3.68831674012E-02  3.72538493962E-02
  3.76282568072E-02  3.80064270752E-02  3.83883980176E-02  3.87742078317E-02
  3.91638950990E-02  3.95574987884E-02  3.99550582607E-02  4.03566132720E-02
  4.07622039784E-02  4.11718709391E-02  4.15856551212E-02  4.20035979034E-02
  4.24257410805E-02  4.28521268670E-02  4.32827979020E-02  4.37177972528E-02
  4.41571684197E-02  4.46009553403E-02  4.50492023936E-02  4.55019544046E-02
  4.59592566490E-02  4.64211548574E-02  4.68876952200E-02  4.73589243911E-02
  4.78348894942E-02  4.83156381261E-02  4.88012183620E-02  4.92916787605E-02
  4.97870683679E-02  5.02874367236E-02  5.07928338649E-02  5.13033103319E-02
  5.18189171727E-02  5.23397059484E-02  5.28657287384E-02  5.33970381452E-02
  5.39336873004E-02  5.44757298692E-02  5.50232200564E-02  5.55762126115E-02
  5.61347628341E-02  5.66989265798E-02  5.72687602655E-02  5.78443208748E-02
  5.84256659645E-02  5.90128536694E-02  5.96059427089E-02  6.02049923924E-02
  6.08100626252E-02  6.14212139150E-02  6.20385073774E-02  6.26620047422E-02
  6.32917683596E-02  6.39278612067E-02  6.45703468932E-02  6.52192896681E-02
  6.58747544264E-02  6.65368067150E-02  6.72055127397E-02  6.78809393718E-02
  6.85631541543E-02  6.92522253093E-02  6.99482217447E-02  7.06512130604E-02
  7.13612695564E-02  7.20784622388E-02  7.28028628274E-02  7.35345437631E-02
  7.42735782143E-02  7.50200400853E-02  7.57740040228E-02  7.65355454239E-02
  7.73047404433E-02  7.80816660012E-02  7.88663997907E-02  7.96590202859E-02
  8.04596067495E-02  8.12682392409E-02  8.20849986239E-02  8.29099665752E-02
  8.37432255922E-02  8.45848590016E-02  8.54349509673E-02  8.62935864994E-02
  8.71608514620E-02  8.80368325824E-02  8.89216174594E-02  8.98152945722E-02
  9.07179532894E-02  9.16296838775E-02  9.25505775103E-02  9.34807262781E-02
  9.44202231963E-02  9.53691622155E-02  9.63276382305E-02  9.72957470895E-02
  9.82735856044E-02  9.92612515596E-02  1.00258843723E-01  1.01266461854E-01
  1.02284206716E-01  1.03312180083E-01  1.04350484755E-01  1.05399224562E-01
  1.06458504379E-01  1.07528430136E-01  1.08609108825E-01  1.09700648516E-01
  1.10803158362E-01  1.11916748617E-01  1.13041530640E-01  1.14177616911E-01
  1.15325121038E-01  1.16484157773E-01  1.17654843022E-01  1.18837293852E-01
  1.20031628511E-01  1.21237966433E-01  1.22456428253E-01  1.23687135817E-01
  1.24930212199E-01  1.26185781705E-01  1.27453969895E-01  1.28734903588E-01
  1.30028710878E-01  1.31335521148E-01  1.32655465080E-01  1.33988674669E-01
  1.35335283237E-01  1.36695425446E-01  1.38069237311E-01  1.39456856215E-01
  1.40858420921E-01  1.42274071587E-01  1.43703949778E-01  1.45148198484E-01
  1.46606962130E-01  1.48080386595E-01  1.49568619223E-01  1.51071808836E-01
  1.52590105757E-01  1.54123661815E-01  1.55672630368E-01  1.57237166314E-01
  1.58817426107E-01  1.60413567775E-01  1.62025750934E-01  1.63654136803E-01
  1.65298888222E-01  1.66960169667E-01  1.68638147269E-01  1.70332988825E-01
  1.72044863823E-01  1.73773943450E-01  1.75520400617E-01  1.77284409970E-01
  1.79066147911E-01  1.80865792617E-01  1.82683524053E-01  1.84519523993E-01
  1.86373976039E-01  1.88247065639E-01  1.90138980102E-01  1.92049908621E-01
  1.93980042291E-01  1.95929574127E-01  1.97898699084E-01  1.99887614075E-01
  2.01896517995E-01  2.03925611734E-01  2.05975098205E-01  2.08045182357E-01
  2.10136071201E-01  2.12247973827E-01  2.14381101427E-01  2.16535667316E-01
  2.18711886952E-01  2.20909977959E-01  2.23130160148E-01  2.25372655539E-01
  2.27637688384E-01  2.29925485187E-01  2.32236274730E-01  2.34570288094E-01
  2.36927758682E-01  2.39308922244E-01  2.41714016897E-01  2.44143283153E-01
  2.46596963942E-01  2.49075304632E-01  2.51578553060E-01  2.54106959553E-01
  2.56660776954E-01  2.59240260646E-01  2.61845668580E-01  2.64477261300E-01
  2.67135301966E-01  2.69820056385E-01  2.72531793034E-01  2.75270783090E-01
  2.78037300453E-01  2.80831621778E-01  2.83654026500E-01  2.86504796860E-01
  2.89384217939E-01  2.92292577681E-01  2.95230166924E-01  2.98197279430E-01
  3.01194211912E-01  3.04221264067E-01  3.07278738601E-01  3.10366941265E-01
  3.13486180883E-01  3.16636769379E-01  3.19819021816E-01  3.23033256422E-01
  3.26279794623E-01  3.29558961075E-01  3.32871083698E-01  3.36216493707E-01
  3.39595525645E-01  3.43008517419E-01  3.46455810330E-01  3.49937749111E-01
  3.53454681959E-01  3.57006960569E-01  3.60594940173E-01  3.64218979572E-01
  3.67879441171E-01  3.71576691022E-01  3.75311098851E-01  3.79083038103E-01
  3.82892885975E-01  3.86741023455E-01  3.90627835359E-01  3.94553710372E-01
  3.98519041085E-01  4.02524224034E-01  4.06569659741E-01  4.10655752752E-01
  4.14782911682E-01  4.18951549248E-01  4.23162082318E-01  4.27414931949E-01
  4.31710523429E-01  4.36049286322E-01  4.40431654506E-01  4.44858066223E-01
  4.49328964117E-01  4.53844795282E-01  4.58406011305E-01  4.63013068311E-01
  4.67666427010E-01  4.72366552741E-01  4.77113915521E-01  4.81908990090E-01
  4.86752255960E-01  4.91644197461E-01  4.96585303791E-01  5.01576069066E-01
  5.06616992366E-01  5.11708577787E-01  5.16851334492E-01  5.22045776761E-01
  5.27292424043E-01  5.32591801007E-01  5.37944437595E-01  5.43350869074E-01
  5.48811636094E-01  5.54327284735E-01  5.59898366565E-01  5.65525438700E-01
  5.71209063849E-01  5.76949810380E-01  5.82748252374E-01  5.88604969678E-01
  5.94520547970E-01  6.00495578812E-01  6.06530659713E-01  6.12626394184E-01
  6.18783391806E-01  6.25002268283E-01  6.31283645507E-01  6.37628151622E-01
  6.44036421083E-01  6.50509094723E-01  6.57046819815E-01  6.63650250136E-01
  6.70320046036E-01  6.77056874498E-01  6.83861409212E-01  6.90734330637E-01
  6.97676326071E-01  7.04688089719E-01  7.11770322763E-01  7.18923733432E-01
  7.26149037074E-01  7.33446956224E-01  7.40818220682E-01  7.48263567579E-01
  7.55783741456E-01  7.63379494337E-01  7.71051585804E-01  7.78800783071E-01
  7.86627861067E-01  7.94533602503E-01  8.02518797962E-01  8.10584245970E-01
  8.18730753078E-01  8.26959133943E-01  8.35270211411E-01  8.43664816596E-01
  8.52143788966E-01  8.60707976425E-01  8.69358235399E-01  8.78095430921E-01
  8.86920436717E-01  8.95834135297E-01  9.04837418036E-01  9.13931185271E-01
  9.23116346387E-01  9.32393819906E-01  9.41764533584E-01  9.51229424501E-01
  9.60789439152E-01  9.70445533549E-01  9.80198673307E-01  9.90049833749E-01
  1.00000000000E+00  1.01005016708E+00  1.02020134003E+00  1.03045453395E+00
  1.04081077419E+00  1.05127109638E+00  1.06183654655E+00  1.07250818125E+00
  1.08328706767E+00  1.09417428371E+00  1.10517091808E+00  1.11627807046E+00
  1.12749685158E+00  1.13882838332E+00  1.15027379886E+00  1.16183424273E+00
  1.17351087099E+00  1.18530485132E+00  1.19721736312E+00  1.20924959766E+00
  1.22140275816E+00  1.23367805996E+00  1.24607673059E+00  1.25860000993E+00
  1.27124915032E+00  1.28402541669E+00  1.29693008667E+00  1.30996445073E+00
  1.32312981234E+00  1.33642748803E+00  1.34985880758E+00  1.36342511413E+00
  1.37712776434E+00  1.39096812846E+00  1.40494759056E+00  1.41906754859E+00
  1.43332941456E+00  1.44773461466E+00  1.46228458943E+00  1.47698079388E+00
  1.49182469764E+00  1.50681778511E+00  1.52196155562E+00  1.53725752355E+00
  1.55270721851E+00  1.56831218549E+00  1.58407398499E+00  1.59999419322E+00
  1.61607440219E+00  1.63231621996E+00  1.64872127070E+00  1.66529119495E+00
  1.68202764970E+00  1.69893230862E+00  1.71600686218E+00  1.73325301787E+00
  1.75067250030E+00  1.76826705143E+00  1.78603843075E+00  1.80398841540E+00
  1.82211880039E+00  1.84043139878E+00  1.85892804185E+00  1.87761057926E+00
  1.89648087930E+00  1.91554082901E+00  1.93479233440E+00  1.95423732064E+00
  1.97387773223E+00  1.99371553324E+00  2.01375270747E+00  2.03399125865E+00
  2.05443321064E+00  2.07508060767E+00  2.09593551449E+00  2.11700001661E+00
  2.13827622050E+00  2.15976625378E+00  2.18147226550E+00  2.20339642626E+00
  2.22554092849E+00  2.24790798668E+00  2.27049983753E+00  2.29331874026E+00
  2.31636697678E+00  2.33964685193E+00  2.36316069371E+00  2.38691085352E+00
  2.41089970642E+00  2.43512965129E+00  2.45960311116E+00  2.48432253338E+00
  2.50929038994E+00  2.53450917762E+00  2.55998141833E+00  2.58570965932E+00
  2.61169647342E+00  2.63794445935E+00  2.66445624193E+00  2.69123447235E+00
  2.71828182846E+00  2.74560101502E+00  2.77319476396E+00  2.80106583470E+00
  2.82921701435E+00  2.85765111806E+00  2.88637098927E+00  2.91537949998E+00
  2.94467955107E+00  2.97427407256E+00  3.00416602395E+00  3.03435839444E+00
  3.06485420329E+00  3.09565650012E+00  3.12676836519E+00  3.15819290969E+00
  3.18993327612E+00  3.22199263853E+00  3.25437420289E+00  3.28708120738E+00
  3.32011692274E+00  3.35348465255E+00  3.38718773362E+00  3.42122953629E+00
  3.45561346476E+00  3.49034295746E+00  3.52542148737E+00  3.56085256236E+00
  3.59663972557E+00  3.63278655575E+00  3.66929666762E+00  3.70617371221E+00
  3.74342137726E+00  3.78104338757E+00  3.81904350537E+00  3.85742553070E+00
  3.89619330180E+00  3.93535069547E+00  3.97490162749E+00  4.01485005299E+00
  4.05519996684E+00  4.09595540407E+00  4.13712044025E+00  4.17869919192E+00
  4.22069581700E+00  4.26311451517E+00  4.30595952835E+00  4.34923514106E+00
  4.39294568092E+00  4.43709551900E+00  4.48168907034E+00  4.52673079431E+00
  4.57222519514E+00  4.61817682230E+00  4.66459027099E+00  4.71147018259E+00
  4.75882124514E+00  4.80664819378E+00  4.85495581124E+00  4.90374892833E+00
  4.95303242440E+00  5.00281122783E+00  5.05309031656E+00  5.10387471854E+00
  5.15516951223E+00  5.20697982718E+00  5.25931084445E+00  5.31216779718E+00
  5.36555597112E+00  5.41948070513E+00  5.47394739173E+00  5.52896147762E+00
  5.58452846428E+00  5.64065390843E+00  5.69734342267E+00  5.75460267601E+00
  5.81243739440E+00  5.87085336138E+00  5.92985641859E+00  5.98945246638E+00
  6.04964746441E+00  6.11044743223E+00  6.17185844988E+00  6.23388665852E+00
  6.29653826103E+00  6.35981952260E+00  6.42373677143E+00  6.48829639929E+00
  6.55350486219E+00  6.61936868104E+00  6.68589444228E+00  6.75308879853E+00
  6.82095846929E+00  6.88951024158E+00  6.95875097064E+00  7.02868758059E+00
  7.09932706516E+00  7.17067648835E+00  7.24274298516E+00  7.31553376231E+00
  7.38905609893E+00  7.46331734732E+00  7.53832493366E+00  7.61408635878E+00
  7.69060919888E+00  7.76790110631E+00  7.84596981032E+00  7.92482311785E+00
  8.00446891430E+00  8.08491516431E+00  8.16616991257E+00  8.24824128463E+00
  8.33113748769E+00  8.41486681144E+00  8.49943762889E+00  8.58485839718E+00
  8.67113765846E+00  8.75828404074E+00  8.84630625872E+00  8.93521311470E+00
  9.02501349943E+00  9.11571639304E+00  9.20733086588E+00  9.29986607948E+00
  9.39333128744E+00  9.48773583636E+00  9.58308916676E+00  9.67940081407E+00
  9.77668040953E+00  9.87493768117E+00  9.97418245481E+00  1.00744246550E+01
  1.01756743061E+01  1.02779415330E+01  1.03812365627E+01  1.04855697247E+01
  1.05909514524E+01  1.06973922841E+01  1.08049028639E+01  1.09134939430E+01
  1.10231763806E+01  1.11339611451E+01  1.12458593149E+01  1.13588820800E+01
  1.14730407428E+01  1.15883467192E+01  1.17048115400E+01  1.18224468516E+01
  1.19412644178E+01  1.20612761204E+01  1.21824939607E+01  1.23049300605E+01
  1.24285966636E+01  1.25535061367E+01  1.26796709708E+01  1.28071037827E+01
  1.29358173155E+01  1.30658244409E+01  1.31971381597E+01  1.33297716032E+01
  1.34637380350E+01  1.35990508518E+01  1.37357235851E+01  1.38737699021E+01
  1.40132036077E+01  1.41540386454E+01  1.42962890987E+01  1.44399691928E+01
  1.45850932959E+01  1.47316759204E+01  1.48797317249E+01  1.50292755149E+01
  1.51803222450E+01  1.53328870199E+01  1.54869850963E+01  1.56426318842E+01
  1.57998429483E+01  1.59586340098E+01  1.61190209480E+01  1.62810198018E+01
  1.64446467711E+01  1.66099182188E+01  1.67768506721E+01  1.69454608245E+01
  1.71157655371E+01  1.72877818406E+01  1.74615269366E+01  1.76370181998E+01
  1.78142731796E+01  1.79933096016E+01  1.81741453694E+01  1.83567985670E+01
  1.85412874597E+01  1.87276304967E+01  1.89158463123E+01  1.91059537282E+01
  1.92979717555E+01  1.94919195960E+01  1.96878166448E+01  1.98856824916E+01
  2.00855369232E+01  2.02873999252E+01  2.04912916842E+01  2.06972325894E+01
  2.09052432351E+01  2.11153444225E+01  2.13275571620E+01  2.15419026750E+01
  2.17584023962E+01  2.19770779758E+01  2.21979512814E+01  2.24210444007E+01
  2.26463796432E+01  2.28739795424E+01  2.31038668587E+01  2.33360645809E+01
  2.35705959291E+01  2.38074843564E+01  2.40467535521E+01  2.42884274431E+01
  2.45325301971E+01  2.47790862246E+01  2.50281201813E+01  2.52796569710E+01
  2.55337217474E+01  2.57903399172E+01  2.60495371425E+01  2.63113393433E+01
  2.65757726999E+01  2.68428636559E+01  2.71126389207E+01  2.73851254719E+01
  2.76603505585E+01  2.79383417032E+01  2.82191267054E+01  2.85027336438E+01
  2.87891908792E+01  2.90785270578E+01  2.93707711133E+01  2.96659522704E+01
  2.99641000474E+01  3.02652442594E+01  3.05694150211E+01  3.08766427497E+01
  3.11869581683E+01  3.15003923087E+01  3.18169765147E+01  3.21367424448E+01
  3.24597220759E+01  3.27859477062E+01  3.31154519587E+01  3.34482677839E+01
  3.37844284638E+01  3.41239676148E+01  3.44669191909E+01  3.48133174876E+01
  3.51631971451E+01  3.55165931516E+01  3.58735408471E+01  3.62340759265E+01
  3.65982344437E+01  3.69660528148E+01  3.73375678221E+01  3.77128166172E+01
  3.80918367254E+01  3.84746660490E+01  3.88613428713E+01  3.92519058603E+01
  3.96463940726E+01  4.00448469573E+01  4.04473043601E+01  4.08538065270E+01
  4.12643941086E+01  4.16791081640E+01  4.20979901650E+01  4.25210820001E+01
  4.29484259788E+01  4.33800648359E+01  4.38160417356E+01  4.42564002760E+01
  4.47011844933E+01  4.51504388663E+01  4.56042083208E+01  4.60625382342E+01
  4.65254744398E+01  4.69930632316E+01  4.74653513689E+01  4.79423860808E+01
  4.84242150713E+01  4.89108865237E+01  4.94024491055E+01  4.98989519734E+01
  5.04004447781E+01  5.09069776692E+01  5.14186013005E+01  5.19353668348E+01
  5.24573259491E+01  5.29845308397E+01  5.35170342275E+01  5.40548893633E+01
  5.45981500331E+01  5.51468705635E+01  5.57011058268E+01  5.62609112471E+01
  5.68263428055E+01  5.73974570454E+01  5.79743110790E+01  5.85569625919E+01
  5.91454698499E+01  5.97398917041E+01  6.03402875974E+01  6.09467175696E+01
  6.15592422644E+01  6.21779229348E+01  6.28028214492E+01  6.34340002981E+01
  6.40715225999E+01  6.47154521074E+01  6.53658532140E+01  6.60227909604E+01
  6.66863310409E+01  6.73565398101E+01  6.80334842894E+01  6.87172321738E+01
  6.94078518388E+01  7.01054123467E+01  7.08099834543E+01  7.15216356192E+01
  7.22404400073E+01  7.29664684996E+01  7.36997936996E+01  7.44404889403E+01
  7.51886282920E+01  7.59442865692E+01  7.67075393383E+01  7.74784629253E+01
  7.82571344231E+01  7.90436316996E+01  7.98380334051E+01  8.06404189805E+01
  8.14508686650E+01  8.22694635042E+01  8.30962853583E+01  8.39314169103E+01
  8.47749416738E+01  8.56269440022E+01  8.64875090963E+01  8.73567230134E+01
  8.82346726757E+01  8.91214458787E+01  9.00171313005E+01  9.09218185105E+01
  9.18355979782E+01  9.27585610821E+01  9.36908001195E+01  9.46324083149E+01
  9.55834798301E+01  9.65441097728E+01  9.75143942071E+01  9.84944301619E+01
  9.94843156419E+01
  </PP_R>
  <PP_RAB>
  2.47875217667E-05  2.50366405020E-05  2.52882629223E-05  2.55424141899E-05
  2.57991197203E-05  2.60584051841E-05  2.63202965101E-05  2.65848198878E-05
  2.68520017695E-05  2.71218688739E-05  2.73944481877E-05  2.76697669691E-05
  2.79478527504E-05  2.82287333402E-05  2.85124368268E-05  2.87989915809E-05
  2.90884262581E-05  2.93807698022E-05  2.96760514478E-05  2.99743007233E-05
  3.02755474538E-05  3.05798217642E-05  3.08871540824E-05  3.11975751416E-05
  3.15111159844E-05  3.18278079651E-05  3.21476827531E-05  3.24707723361E-05
  3.27971090234E-05  3.31267254490E-05  3.34596545747E-05  3.37959296938E-05
  3.41355844340E-05  3.44786527610E-05  3.48251689821E-05  3.51751677491E-05
  3.55286840622E-05  3.58857532733E-05  3.62464110897E-05  3.66106935773E-05
  3.69786371648E-05  3.73502786469E-05  3.77256551879E-05  3.81048043259E-05
  3.84877639761E-05  3.88745724348E-05  3.92652683831E-05  3.96598908909E-05
  4.00584794209E-05  4.04610738322E-05  4.08677143846E-05  4.12784417426E-05
  4.16932969790E-05  4.21123215800E-05  4.25355574482E-05  4.29630469075E-05
  4.33948327074E-05  4.38309580267E-05  4.42714664783E-05  4.47164021135E-05
  4.51658094261E-05  4.56197333574E-05  4.60782192999E-05  4.65413131028E-05
  4.70090610758E-05  4.74815099941E-05  4.79587071030E-05  4.84407001225E-05
  4.89275372524E-05  4.94192671768E-05  4.99159390691E-05  5.04176025969E-05
  5.09243079270E-05  5.14361057303E-05  5.19530471871E-05  5.24751839918E-05
  5.30025683587E-05  5.35352530266E-05  5.40732912644E-05  5.46167368764E-05
  5.51656442076E-05  5.57200681492E-05  5.62800641440E-05  5.68456881922E-05
  5.74169968565E-05  5.79940472684E-05  5.85768971334E-05  5.91656047368E-05
  5.97602289501E-05  6.03608292360E-05  6.09674656552E-05  6.15801988717E-05
  6.21990901594E-05  6.28242014080E-05  6.34555951291E-05  6.40933344626E-05
  6.47374831829E-05  6.53881057055E-05  6.60452670931E-05  6.67090330626E-05
  6.73794699909E-05  6.80566449223E-05  6.87406255750E-05  6.94314803475E-05
  7.01292783259E-05  7.08340892905E-05  7.15459837231E-05  7.22650328138E-05
  7.29913084679E-05  7.37248833137E-05  7.44658307092E-05  7.52142247499E-05
  7.59701402758E-05  7.67336528790E-05  7.75048389114E-05  7.82837754923E-05
  7.90705405159E-05  7.98652126596E-05  8.06678713910E-05  8.14785969768E-05
  8.22974704902E-05  8.31245738192E-05  8.39599896749E-05  8.48038015995E-05
  8.56560939750E-05  8.65169520312E-05  8.73864618547E-05  8.82647103973E-05
  8.91517854844E-05  9.00477758244E-05  9.09527710170E-05  9.18668615624E-05
  9.27901388706E-05  9.37226952701E-05  9.46646240171E-05  9.56160193054E-05
  9.65769762754E-05  9.75475910234E-05  9.85279606119E-05  9.95181830785E-05
  1.00518357446E-04  1.01528583734E-04  1.02548962964E-04  1.03579597176E-04
  1.04620589434E-04  1.05672043839E-04  1.06734065535E-04  1.07806760727E-04
  1.08890236686E-04  1.09984601758E-04  1.11089965382E-04  1.12206438096E-04
  1.13334131547E-04  1.14473158505E-04  1.15623632875E-04  1.16785669704E-04
  1.17959385198E-04  1.19144896728E-04  1.20342322847E-04  1.21551783299E-04
  1.22773399031E-04  1.24007292204E-04  1.25253586211E-04  1.26512405680E-04
  1.27783876495E-04  1.29068125805E-04  1.30365282034E-04  1.31675474901E-04
  1.32998835424E-04  1.34335495942E-04  1.35685590122E-04  1.37049252974E-04
  1.38426620865E-04  1.39817831533E-04  1.41223024102E-04  1.42642339090E-04
  1.44075918431E-04  1.45523905484E-04  1.46986445049E-04  1.48463683381E-04
  1.49955768205E-04  1.51462848730E-04  1.52985075667E-04  1.54522601239E-04
  1.56075579200E-04  1.57644164849E-04  1.59228515045E-04  1.60828788226E-04
  1.62445144419E-04  1.64077745263E-04  1.65726754018E-04  1.67392335586E-04
  1.69074656527E-04  1.70773885075E-04  1.72490191153E-04  1.74223746395E-04
  1.75974724156E-04  1.77743299537E-04  1.79529649395E-04  1.81333952368E-04
  1.83156388887E-04  1.84997141198E-04  1.86856393377E-04  1.88734331352E-04
  1.90631142916E-04  1.92547017754E-04  1.94482147454E-04  1.96436725531E-04
  1.98410947444E-04  2.00405010617E-04  2.02419114458E-04  2.04453460379E-04
  2.06508251817E-04  2.08583694252E-04  2.10679995230E-04  2.12797364384E-04
  2.14936013451E-04  2.17096156298E-04  2.19278008943E-04  2.21481789570E-04
  2.23707718562E-04  2.25956018511E-04  2.28226914251E-04  2.30520632872E-04
  2.32837403749E-04  2.35177458560E-04  2.37541031313E-04  2.39928358367E-04
  2.42339678457E-04  2.44775232717E-04  2.47235264703E-04  2.49720020423E-04
  2.52229748352E-04  2.54764699467E-04  2.57325127264E-04  2.59911287788E-04
  2.62523439657E-04  2.65161844089E-04  2.67826764926E-04  2.70518468664E-04
  2.73237224473E-04  2.75983304232E-04  2.78756982552E-04  2.81558536803E-04
  2.84388247142E-04  2.87246396542E-04  2.90133270822E-04  2.93049158670E-04
  2.95994351679E-04  2.98969144369E-04  3.01973834223E-04  3.05008721712E-04
  3.08074110328E-04  3.11170306611E-04  3.14297620184E-04  3.17456363781E-04
  3.20646853279E-04  3.23869407729E-04  3.27124349390E-04  3.30412003759E-04
  3.33732699603E-04  3.37086768996E-04  3.40474547346E-04  3.43896373435E-04
  3.47352589447E-04  3.50843541008E-04  3.54369577216E-04  3.57931050677E-04
  3.61528317540E-04  3.65161737537E-04  3.68831674012E-04  3.72538493962E-04
  3.76282568072E-04  3.80064270752E-04  3.83883980176E-04  3.87742078317E-04
  3.91638950990E-04  3.95574987884E-04  3.99550582607E-04  4.03566132720E-04
  4.07622039784E-04  4.11718709391E-04  4.15856551212E-04  4.20035979034E-04
  4.24257410805E-04  4.28521268670E-04  4.32827979020E-04  4.37177972528E-04
  4.41571684197E-04  4.46009553403E-04  4.50492023936E-04  4.55019544046E-04
  4.59592566490E-04  4.64211548574E-04  4.68876952200E-04  4.73589243911E-04
  4.78348894942E-04  4.83156381261E-04  4.88012183620E-04  4.92916787605E-04
  4.97870683679E-04  5.02874367236E-04  5.07928338649E-04  5.13033103319E-04
  5.18189171727E-04  5.23397059484E-04  5.28657287384E-04  5.33970381452E-04
  5.39336873004E-04  5.44757298692E-04  5.50232200564E-04  5.55762126115E-04
  5.61347628341E-04  5.66989265798E-04  5.72687602655E-04  5.78443208748E-04
  5.84256659645E-04  5.90128536694E-04  5.96059427089E-04  6.02049923924E-04
  6.08100626252E-04  6.14212139150E-04  6.20385073774E-04  6.26620047422E-04
  6.32917683596E-04  6.39278612067E-04  6.45703468932E-04  6.52192896681E-04
  6.58747544264E-04  6.65368067150E-04  6.72055127397E-04  6.78809393718E-04
  6.85631541543E-04  6.92522253093E-04  6.99482217447E-04  7.06512130604E-04
  7.13612695564E-04  7.20784622388E-04  7.28028628274E-04  7.35345437631E-04
  7.42735782143E-04  7.50200400853E-04  7.57740040228E-04  7.65355454239E-04
  7.73047404433E-04  7.80816660012E-04  7.88663997907E-04  7.96590202859E-04
  8.04596067495E-04  8.12682392409E-04  8.20849986239E-04  8.29099665752E-04
  8.37432255922E-04  8.45848590016E-04  8.54349509673E-04  8.62935864994E-04
  8.71608514620E-04  8.80368325824E-04  8.89216174594E-04  8.98152945722E-04
  9.07179532894E-04  9.16296838775E-04  9.25505775103E-04  9.34807262781E-04
  9.44202231963E-04  9.53691622155E-04  9.63276382305E-04  9.72957470895E-04
  9.82735856044E-04  9.92612515596E-04  1.00258843723E-03  1.01266461854E-03
  1.02284206716E-03  1.03312180083E-03  1.04350484755E-03  1.05399224562E-03
  1.06458504379E-03  1.07528430136E-03  1.08609108825E-03  1.09700648516E-03
  1.10803158362E-03  1.11916748617E-03  1.13041530640E-03  1.14177616911E-03
  1.15325121038E-03  1.16484157773E-03  1.17654843022E-03  1.18837293852E-03
  1.20031628511E-03  1.21237966433E-03  1.22456428253E-03  1.23687135817E-03
  1.24930212199E-03  1.26185781705E-03  1.27453969895E-03  1.28734903588E-03
  1.30028710878E-03  1.31335521148E-03  1.32655465080E-03  1.33988674669E-03
  1.35335283237E-03  1.36695425446E-03  1.38069237311E-03  1.39456856215E-03
  1.40858420921E-03  1.42274071587E-03  1.43703949778E-03  1.45148198484E-03
  1.46606962130E-03  1.48080386595E-03  1.49568619223E-03  1.51071808836E-03
  1.52590105757E-03  1.54123661815E-03  1.55672630368E-03  1.57237166314E-03
  1.58817426107E-03  1.60413567775E-03  1.62025750934E-03  1.63654136803E-03
  1.65298888222E-03  1.66960169667E-03  1.68638147269E-03  1.70332988825E-03
  1.72044863823E-03  1.73773943450E-03  1.75520400617E-03  1.77284409970E-03
  1.79066147911E-03  1.80865792617E-03  1.82683524053E-03  1.84519523993E-03