<PP_INFO>
Generated using ld1 code (maybe, or maybe not)                                  
Author: unknown    Generation date: as well                                     
Info: automatically converted from PWSCF format                                 
    0        The Pseudo was generated with a Non-Relativistic Calculation
nl pn  l   occ               Rcut            Rcut US             E pseu
1S  0  0  1.00      0.00000000000      0.00000000000      0.00000000000
</PP_INFO>


<PP_HEADER>
   0                   Version Number
   H                   Element
   NC                  Norm - Conserving pseudopotential
    F                  Nonlinear Core Correction
 SLA  PW   TPSS TPSS   META Exchange-Correlation functional
    1.00000000000      Z valence
    0.00000000000      Total energy
  0.0000000  0.0000000 Suggested cutoff for wfc and rho
   -1                  Max angular momentum component
 1263                  Number of points in mesh
    1    0             Number of Wavefunctions, Number of Projectors
 Wavefunctions         nl  l   occ
                       1S  0  1.00
</PP_HEADER>


<PP_MESH>
  <PP_R>
  2.47875217667E-03  2.49866172609E-03  2.51873119072E-03  2.53896185501E-03
  2.55935501372E-03  2.57991197203E-03  2.60063404558E-03  2.62152256060E-03
  2.64257885396E-03  2.66380427326E-03  2.68520017695E-03  2.70676793437E-03
  2.72850892586E-03  2.75042454285E-03  2.77251618795E-03  2.79478527504E-03
  2.81723322933E-03  2.83986148752E-03  2.86267149780E-03  2.88566472004E-03
  2.90884262581E-03  2.93220669850E-03  2.95575843342E-03  2.97949933789E-03
  3.00343093133E-03  3.02755474538E-03  3.05187232396E-03  3.07638522341E-03
  3.10109501257E-03  3.12600327287E-03  3.15111159844E-03  3.17642159624E-03
  3.20193488610E-03  3.22765310088E-03  3.25357788656E-03  3.27971090234E-03
  3.30605382074E-03  3.33260832771E-03  3.35937612275E-03  3.38635891901E-03
  3.41355844340E-03  3.44097643669E-03  3.46861465364E-03  3.49647486312E-03
  3.52455884819E-03  3.55286840622E-03  3.58140534905E-03  3.61017150303E-03
  3.63916870923E-03  3.66839882347E-03  3.69786371648E-03  3.72756527404E-03
  3.75750539704E-03  3.78768600167E-03  3.81810901950E-03  3.84877639761E-03
  3.87969009872E-03  3.91085210133E-03  3.94226439980E-03  3.97392900454E-03
  4.00584794209E-03  4.03802325528E-03  4.07045700333E-03  4.10315126203E-03
  4.13610812380E-03  4.16932969790E-03  4.20281811053E-03  4.23657550496E-03
  4.27060404166E-03  4.30490589847E-03  4.33948327074E-03  4.37433837141E-03
  4.40947343124E-03  4.44489069887E-03  4.48059244102E-03  4.51658094261E-03
  4.55285850693E-03  4.58942745575E-03  4.62629012949E-03  4.66344888738E-03
  4.70090610758E-03  4.73866418739E-03  4.77672554332E-03  4.81509261131E-03
  4.85376784688E-03  4.89275372524E-03  4.93205274151E-03  4.97166741084E-03
  5.01160026859E-03  5.05185387046E-03  5.09243079270E-03  5.13333363225E-03
  5.17456500691E-03  5.21612755549E-03  5.25802393802E-03  5.30025683587E-03
  5.34282895197E-03  5.38574301095E-03  5.42900175932E-03  5.47260796565E-03
  5.51656442076E-03  5.56087393788E-03  5.60553935283E-03  5.65056352421E-03
  5.69594933358E-03  5.74169968565E-03  5.78781750847E-03  5.83430575358E-03
  5.88116739625E-03  5.92840543564E-03  5.97602289501E-03  6.02402282187E-03
  6.07240828826E-03  6.12118239085E-03  6.17034825120E-03  6.21990901594E-03
  6.26986785699E-03  6.32022797172E-03  6.37099258319E-03  6.42216494037E-03
  6.47374831829E-03  6.52574601832E-03  6.57816136831E-03  6.63099772288E-03
  6.68425846357E-03  6.73794699909E-03  6.79206676551E-03  6.84662122652E-03
  6.90161387362E-03  6.95704822637E-03  7.01292783259E-03  7.06925626857E-03
  7.12603713937E-03  7.18327407898E-03  7.24097075059E-03  7.29913084679E-03
  7.35775808986E-03  7.41685623195E-03  7.47642905538E-03  7.53648037282E-03
  7.59701402758E-03  7.65803389382E-03  7.71954387685E-03  7.78154791333E-03
  7.84404997152E-03  7.90705405159E-03  7.97056418582E-03  8.03458443888E-03
  8.09911890808E-03  8.16417172366E-03  8.22974704902E-03  8.29584908100E-03
  8.36248205015E-03  8.42965022100E-03  8.49735789235E-03  8.56560939750E-03
  8.63440910457E-03  8.70376141678E-03  8.77367077269E-03  8.84414164652E-03
  8.91517854844E-03  8.98678602483E-03  9.05896865859E-03  9.13173106943E-03
  9.20507791418E-03  9.27901388706E-03  9.35354372000E-03  9.42867218293E-03
  9.50440408409E-03  9.58074427036E-03  9.65769762754E-03  9.73526908066E-03
  9.81346359432E-03  9.89228617300E-03  9.97174186138E-03  1.00518357446E-02
  1.01325729488E-02  1.02139586411E-02  1.02959980303E-02  1.03786963668E-02
  1.04620589434E-02  1.05460910954E-02  1.06307982008E-02  1.07161856810E-02
  1.08022590006E-02  1.08890236686E-02  1.09764852377E-02  1.10646493057E-02
  1.11535215150E-02  1.12431075535E-02  1.13334131547E-02  1.14244440982E-02
  1.15162062100E-02  1.16087053630E-02  1.17019474770E-02  1.17959385198E-02
  1.18906845065E-02  1.19861915012E-02  1.20824656162E-02  1.21795130131E-02
  1.22773399031E-02  1.23759525469E-02  1.24753572560E-02  1.25755603922E-02
  1.26765683685E-02  1.27783876495E-02  1.28810247517E-02  1.29844862439E-02
  1.30887787477E-02  1.31939089377E-02  1.32998835424E-02  1.34067093443E-02
  1.35143931800E-02  1.36229419416E-02  1.37323625761E-02  1.38426620865E-02
  1.39538475320E-02  1.40659260285E-02  1.41789047490E-02  1.42927909243E-02
  1.44075918431E-02  1.45233148527E-02  1.46399673594E-02  1.47575568290E-02
  1.48760907873E-02  1.49955768205E-02  1.51160225757E-02  1.52374357615E-02
  1.53598241484E-02  1.54831955693E-02  1.56075579200E-02  1.57329191597E-02
  1.58592873116E-02  1.59866704634E-02  1.61150767674E-02  1.62445144419E-02
  1.63749917709E-02  1.65065171050E-02  1.66390988617E-02  1.67727455265E-02
  1.69074656527E-02  1.70432678625E-02  1.71801608472E-02  1.73181533681E-02
  1.74572542568E-02  1.75974724156E-02  1.77388168187E-02  1.78812965122E-02
  1.80249206147E-02  1.81696983183E-02  1.83156388887E-02  1.84627516664E-02
  1.86110460664E-02  1.87605315797E-02  1.89112177735E-02  1.90631142916E-02
  1.92162308556E-02  1.93705772649E-02  1.95261633977E-02  1.96829992117E-02
  1.98410947444E-02  2.00004601139E-02  2.01611055196E-02  2.03230412430E-02
  2.04862776480E-02  2.06508251817E-02  2.08166943753E-02  2.09838958444E-02
  2.11524402901E-02  2.13223384991E-02  2.14936013451E-02  2.16662397889E-02
  2.18402648794E-02  2.20156877544E-02  2.21925196409E-02  2.23707718562E-02
  2.25504558085E-02  2.27315829977E-02  2.29141650160E-02  2.30982135487E-02
  2.32837403749E-02  2.34707573684E-02  2.36592764985E-02  2.38493098303E-02
  2.40408695261E-02  2.42339678457E-02  2.44286171475E-02  2.46248298892E-02
  2.48226186284E-02  2.50219960237E-02  2.52229748352E-02  2.54255679258E-02
  2.56297882614E-02  2.58356489121E-02  2.60431630532E-02  2.62523439657E-02
  2.64632050371E-02  2.66757597627E-02  2.68900217460E-02  2.71060046999E-02
  2.73237224473E-02  2.75431889223E-02  2.77644181708E-02  2.79874243515E-02
  2.82122217369E-02  2.84388247142E-02  2.86672477859E-02  2.88975055713E-02
  2.91296128069E-02  2.93635843477E-02  2.95994351679E-02  2.98371803620E-02
  3.00768351459E-02  3.03184148575E-02  3.05619349580E-02  3.08074110328E-02
  3.10548587923E-02  3.13042940735E-02  3.15557328401E-02  3.18091911844E-02
  3.20646853279E-02  3.23222316221E-02  3.25818465502E-02  3.28435467275E-02
  3.31073489031E-02  3.33732699603E-02  3.36413269182E-02  3.39115369325E-02
  3.41839172967E-02  3.44584854433E-02  3.47352589447E-02  3.50142555146E-02
  3.52954930088E-02  3.55789894265E-02  3.58647629117E-02  3.61528317540E-02
  3.64432143899E-02  3.67359294039E-02  3.70309955300E-02  3.73284316524E-02
  3.76282568072E-02  3.79304901832E-02  3.82351511236E-02  3.85422591267E-02
  3.88518338475E-02  3.91638950990E-02  3.94784628531E-02  3.97955572423E-02
  4.01151985608E-02  4.04374072656E-02  4.07622039784E-02  4.10896094861E-02
  4.14196447428E-02  4.17523308709E-02  4.20876891625E-02  4.24257410805E-02
  4.27665082605E-02  4.31100125115E-02  4.34562758181E-02  4.38053203412E-02
  4.41571684197E-02  4.45118425721E-02  4.48693654976E-02  4.52297600778E-02
  4.55930493780E-02  4.59592566490E-02  4.63284053282E-02  4.67005190410E-02
  4.70756216031E-02  4.74537370209E-02  4.78348894942E-02  4.82191034167E-02
  4.86064033783E-02  4.89968141663E-02  4.93903607671E-02  4.97870683679E-02
  5.01869623580E-02  5.05900683309E-02  5.09964120854E-02  5.14060196276E-02
  5.18189171727E-02  5.22351311462E-02  5.26546881859E-02  5.30776151436E-02
  5.35039390868E-02  5.39336873004E-02  5.43668872883E-02  5.48035667756E-02
  5.52437537099E-02  5.56874762633E-02  5.61347628341E-02  5.65856420490E-02
  5.70401427642E-02  5.74982940681E-02  5.79601252824E-02  5.84256659645E-02
  5.88949459092E-02  5.93679951505E-02  5.98448439637E-02  6.03255228675E-02
  6.08100626252E-02  6.12984942477E-02  6.17908489948E-02  6.22871583773E-02
  6.27874541592E-02  6.32917683596E-02  6.38001332548E-02  6.43125813803E-02
  6.48291455330E-02  6.53498587730E-02  6.58747544264E-02  6.64038660865E-02
  6.69372276168E-02  6.74748731524E-02  6.80168371029E-02  6.85631541543E-02
  6.91138592709E-02  6.96689876981E-02  7.02285749643E-02  7.07926568832E-02
  7.13612695564E-02  7.19344493752E-02  7.25122330232E-02  7.30946574790E-02
  7.36817600178E-02  7.42735782143E-02  7.48701499453E-02  7.54715133913E-02
  7.60777070400E-02  7.66887696879E-02  7.73047404433E-02  7.79256587284E-02
  7.85515642823E-02  7.91824971631E-02  7.98184977508E-02  8.04596067495E-02
  8.11058651906E-02  8.17573144347E-02  8.24139961748E-02  8.30759524389E-02
  8.37432255922E-02  8.44158583406E-02  8.50938937327E-02  8.57773751630E-02
  8.64663463747E-02  8.71608514620E-02  8.78609348735E-02  8.85666414149E-02
  8.92780162516E-02  8.99951049118E-02  9.07179532894E-02  9.14466076470E-02
  9.21811146187E-02  9.29215212132E-02  9.36678748168E-02  9.44202231963E-02
  9.51786145023E-02  9.59430972722E-02  9.67137204330E-02  9.74905333050E-02
  9.82735856044E-02  9.90629274467E-02  9.98586093503E-02  1.00660682239E-01
  1.01469197446E-01  1.02284206716E-01  1.03105762210E-01  1.03933916508E-01
  1.04768722612E-01  1.05610233950E-01  1.06458504379E-01  1.07313588189E-01
  1.08175540105E-01  1.09044415293E-01  1.09920269360E-01  1.10803158362E-01
  1.11693138804E-01  1.12590267646E-01  1.13494602302E-01  1.14406200652E-01
  1.15325121038E-01  1.16251422271E-01  1.17185163635E-01  1.18126404889E-01
  1.19075206273E-01  1.20031628511E-01  1.20995732815E-01  1.21967580886E-01
  1.22947234925E-01  1.23934757628E-01  1.24930212199E-01  1.25933662345E-01
  1.26945172289E-01  1.27964806767E-01  1.28992631037E-01  1.30028710878E-01
  1.31073112602E-01  1.32125903050E-01  1.33187149601E-01  1.34256920174E-01
  1.35335283237E-01  1.36422307803E-01  1.37518063444E-01  1.38622620288E-01
  1.39736049027E-01  1.40858420921E-01  1.41989807802E-01  1.43130282079E-01
  1.44279916743E-01  1.45438785371E-01  1.46606962130E-01  1.47784521786E-01
  1.48971539701E-01  1.50168091845E-01  1.51374254799E-01  1.52590105757E-01
  1.53815722533E-01  1.55051183569E-01  1.56296567933E-01  1.57551955330E-01
  1.58817426107E-01  1.60093061253E-01  1.61378942410E-01  1.62675151874E-01
  1.63981772603E-01  1.65298888222E-01  1.66626583026E-01  1.67964941988E-01
  1.69314050763E-01  1.70673995696E-01  1.72044863823E-01  1.73426742880E-01
  1.74819721307E-01  1.76223888257E-01  1.77639333595E-01  1.79066147911E-01
  1.80504422522E-01  1.81954249478E-01  1.83415721568E-01  1.84888932326E-01
  1.86373976039E-01  1.87870947751E-01  1.89379943267E-01  1.90901059164E-01
  1.92434392794E-01  1.93980042291E-01  1.95538106577E-01  1.97108685368E-01
  1.98691879183E-01  2.00287789345E-01  2.01896517995E-01  2.03518168090E-01
  2.05152843418E-01  2.06800648598E-01  2.08461689090E-01  2.10136071201E-01
  2.11823902092E-01  2.13525289786E-01  2.15240343171E-01  2.16969172011E-01
  2.18711886952E-01  2.20468599529E-01  2.22239422171E-01  2.24024468213E-01
  2.25823851896E-01  2.27637688384E-01  2.29466093761E-01  2.31309185046E-01
  2.33167080199E-01  2.35039898123E-01  2.36927758682E-01  2.38830782698E-01
  2.40749091966E-01  2.42682809258E-01  2.44632058332E-01  2.46596963942E-01
  2.48577651841E-01  2.50574248795E-01  2.52586882587E-01  2.54615682025E-01
  2.56660776954E-01  2.58722298260E-01  2.60800377881E-01  2.62895148816E-01
  2.65006745130E-01  2.67135301966E-01  2.69280955552E-01  2.71443843212E-01
  2.73624103370E-01  2.75821875565E-01  2.78037300453E-01  2.80270519824E-01
  2.82521676603E-01  2.84790914867E-01  2.87078379846E-01  2.89384217939E-01
  2.91708576721E-01  2.94051604952E-01  2.96413452585E-01  2.98794270781E-01
  3.01194211912E-01  3.03613429576E-01  3.06052078602E-01  3.08510315066E-01
  3.10988296296E-01  3.13486180883E-01  3.16004128692E-01  3.18542300873E-01
  3.21100859871E-01  3.23679969433E-01  3.26279794623E-01  3.28900501832E-01
  3.31542258785E-01  3.34205234556E-01  3.36889599576E-01  3.39595525645E-01
  3.42323185944E-01  3.45072755043E-01  3.47844408917E-01  3.50638324952E-01
  3.53454681959E-01  3.56293660186E-01  3.59155441329E-01  3.62040208543E-01
  3.64948146454E-01  3.67879441171E-01  3.70834280298E-01  3.73812852945E-01
  3.76815349743E-01  3.79841962851E-01  3.82892885975E-01  3.85968314374E-01
  3.89068444877E-01  3.92193475894E-01  3.95343607426E-01  3.98519041085E-01
  4.01719980098E-01  4.04946629327E-01  4.08199195278E-01  4.11477886117E-01
  4.14782911682E-01  4.18114483494E-01  4.21472814776E-01  4.24858120462E-01
  4.28270617213E-01  4.31710523429E-01  4.35178059266E-01  4.38673446648E-01
  4.42196909280E-01  4.45748672665E-01  4.49328964117E-01  4.52938012777E-01
  4.56576049623E-01  4.60243307493E-01  4.63940021092E-01  4.67666427010E-01
  4.71422763739E-01  4.75209271686E-01  4.79026193189E-01  4.82873772531E-01
  4.86752255960E-01  4.90661891699E-01  4.94602929967E-01  4.98575622991E-01
  5.02580225025E-01  5.06616992366E-01  5.10686183366E-01  5.14788058457E-01
  5.18922880159E-01  5.23090913103E-01  5.27292424043E-01  5.31527681879E-01
  5.35796957667E-01  5.40100524644E-01  5.44438658239E-01  5.48811636094E-01
  5.53219738081E-01  5.57663246320E-01  5.62142445197E-01  5.66657621382E-01
  5.71209063849E-01  5.75797063890E-01  5.80421915141E-01  5.85083913592E-01
  5.89783357613E-01  5.94520547970E-01  5.99295787846E-01  6.04109382856E-01
  6.08961641073E-01  6.13852873043E-01  6.18783391806E-01  6.23753512918E-01
  6.28763554467E-01  6.33813837099E-01  6.38904684032E-01  6.44036421083E-01
  6.49209376685E-01  6.54423881909E-01  6.59680270484E-01  6.64978878822E-01
  6.70320046036E-01  6.75704113961E-01  6.81131427180E-01  6.86602333042E-01
  6.92117181689E-01  6.97676326071E-01  7.03280121976E-01  7.08928928050E-01
  7.14623105816E-01  7.20363019705E-01  7.26149037074E-01  7.31981528228E-01
  7.37860866451E-01  7.43787428020E-01  7.49761592239E-01  7.55783741456E-01
  7.61854261090E-01  7.67973539657E-01  7.74141968792E-01  7.80359943278E-01
  7.86627861067E-01  7.92946123307E-01  7.99315134369E-01  8.05735301873E-01
  8.12207036712E-01  8.18730753078E-01  8.25306868492E-01  8.31935803827E-01
  8.38617983337E-01  8.45353834685E-01  8.52143788966E-01  8.58988280741E-01
  8.65887748059E-01  8.72842632489E-01  8.79853379145E-01  8.86920436717E-01
  8.94044257500E-01  9.01225297421E-01  9.08464016069E-01  9.15760876723E-01
  9.23116346387E-01  9.30530895811E-01  9.38004999531E-01  9.45539135890E-01
  9.53133787078E-01  9.60789439152E-01  9.68506582079E-01  9.76285709758E-01
  9.84127320055E-01  9.92031914837E-01  1.00000000000E+00  1.00803208550E+00
  1.01612868541E+00  1.02429031789E+00  1.03251750531E+00  1.04081077419E+00
  1.04917065532E+00  1.05759768374E+00  1.06609239876E+00  1.07465534406E+00
  1.08328706767E+00  1.09198812203E+00  1.10075906399E+00  1.10960045492E+00
  1.11851286065E+00  1.12749685158E+00  1.13655300270E+00  1.14568189359E+00
  1.15488410852E+00  1.16416023643E+00  1.17351087099E+00  1.18293661065E+00
  1.19243805865E+00  1.20201582310E+00  1.21167051696E+00  1.22140275816E+00
  1.23121316955E+00  1.24110237900E+00  1.25107101943E+00  1.26111972883E+00
  1.27124915032E+00  1.28145993219E+00  1.29175272794E+00  1.30212819630E+00
  1.31258700131E+00  1.32312981234E+00  1.33375730412E+00  1.34447015683E+00
  1.35526905609E+00  1.36615469303E+00  1.37712776434E+00  1.38818897229E+00
  1.39933902481E+00  1.41057863551E+00  1.42190852372E+00  1.43332941456E+00
  1.44484203897E+00  1.45644713377E+00  1.46814544168E+00  1.47993771140E+00
  1.49182469764E+00  1.50380716117E+00  1.51588586887E+00  1.52806159378E+00
  1.54033511516E+00  1.55270721851E+00  1.56517869565E+00  1.57775034477E+00
  1.59042297044E+00  1.60319738373E+00  1.61607440219E+00  1.62905484997E+00
  1.64213955782E+00  1.65532936316E+00  1.66862511014E+00  1.68202764970E+00
  1.69553783960E+00  1.70915654451E+00  1.72288463601E+00  1.73672299272E+00
  1.75067250030E+00  1.76473405151E+00  1.77890854630E+00  1.79319689185E+00
  1.80760000261E+00  1.82211880039E+00  1.83675421439E+00  1.85150718129E+00
  1.86637864529E+00  1.88136955815E+00  1.89648087930E+00  1.91171357588E+00
  1.92706862279E+00  1.94254700274E+00  1.95814970636E+00  1.97387773223E+00
  1.98973208695E+00  2.00571378520E+00  2.02182384982E+00  2.03806331186E+00
  2.05443321064E+00  2.07093459385E+00  2.08756851759E+00  2.10433604642E+00
  2.12123825347E+00  2.13827622050E+00  2.15545103793E+00  2.17276380497E+00
  2.19021562963E+00  2.20780762884E+00  2.22554092849E+00  2.24341666352E+00
  2.26143597799E+00  2.27960002512E+00  2.29790996744E+00  2.31636697678E+00
  2.33497223440E+00  2.35372693103E+00  2.37263226700E+00  2.39168945224E+00
  2.41089970642E+00  2.43026425900E+00  2.44978434933E+00  2.46946122669E+00
  2.48929615041E+00  2.50929038994E+00  2.52944522490E+00  2.54976194523E+00
  2.57024185119E+00  2.59088625350E+00  2.61169647342E+00  2.63267384281E+00
  2.65381970422E+00  2.67513541100E+00  2.69662232735E+00  2.71828182846E+00
  2.74011530053E+00  2.76212414092E+00  2.78430975819E+00  2.80667357224E+00
  2.82921701435E+00  2.85194152732E+00  2.87484856552E+00  2.89793959501E+00
  2.92121609363E+00  2.94467955107E+00  2.96833146900E+00  2.99217336117E+00
  3.01620675345E+00  3.04043318399E+00  3.06485420329E+00  3.08947137431E+00
  3.11428627255E+00  3.13930048618E+00  3.16451561611E+00  3.18993327612E+00
  3.21555509294E+00  3.24138270639E+00  3.26741776944E+00  3.29366194835E+00
  3.32011692274E+00  3.34678438574E+00  3.37366604409E+00  3.40076361822E+00
  3.42807884239E+00  3.45561346476E+00  3.48336924758E+00  3.51134796722E+00
  3.53955141433E+00  3.56798139394E+00  3.59663972557E+00  3.62552824337E+00
  3.65464879622E+00  3.68400324784E+00  3.71359347693E+00  3.74342137726E+00
  3.77348885784E+00  3.80379784300E+00  3.83435027251E+00  3.86514810176E+00
  3.89619330180E+00  3.92748785954E+00  3.95903377784E+00  3.99083307566E+00
  4.02288778816E+00  4.05519996684E+00  4.08777167972E+00  4.12060501137E+00
  4.15370206315E+00  4.18706495328E+00  4.22069581700E+00  4.25459680669E+00
  4.28877009202E+00  4.32321786011E+00  4.35794231562E+00  4.39294568092E+00
  4.42823019624E+00  4.46379811981E+00  4.49965172798E+00  4.53579331540E+00
  4.57222519514E+00  4.60894969885E+00  4.64596917692E+00  4.68328599860E+00
  4.72090255218E+00  4.75882124514E+00  4.79704450428E+00  4.83557477590E+00
  4.87441452597E+00  4.91356624022E+00  4.95303242440E+00  4.99281560433E+00
  5.03291832617E+00  5.07334315651E+00  5.11409268253E+00  5.15516951223E+00
  5.19657627455E+00  5.23831561951E+00  5.28039021847E+00  5.32280276420E+00
  5.36555597112E+00  5.40865257546E+00  5.45209533541E+00  5.49588703132E+00
  5.54003046588E+00  5.58452846428E+00  5.62938387440E+00  5.67459956702E+00
  5.72017843594E+00  5.76612339824E+00  5.81243739440E+00  5.85912338854E+00
  5.90618436858E+00  5.95362334643E+00  6.00144335821E+00  6.04964746441E+00
  6.09823875012E+00  6.14722032518E+00  6.19659532445E+00  6.24636690793E+00
  6.29653826103E+00  6.34711259472E+00  6.39809314579E+00  6.44948317700E+00
  6.50128597733E+00  6.55350486219E+00  6.60614317360E+00  6.65920428042E+00
  6.71269157859E+00  6.76660849131E+00  6.82095846929E+00  6.87574499094E+00
  6.93097156261E+00  6.98664171883E+00  7.04275902250E+00  7.09932706516E+00
  7.15634946717E+00  7.21382987799E+00  7.27177197638E+00  7.33017947066E+00
  7.38905609893E+00  7.44840562931E+00  7.50823186020E+00  7.56853862049E+00
  7.62932976983E+00  7.69060919888E+00  7.75238082954E+00  7.81464861523E+00
  7.87741654109E+00  7.94068862430E+00  8.00446891430E+00  8.06876149303E+00
  8.13357047526E+00  8.19890000877E+00  8.26475427468E+00  8.33113748769E+00
  8.39805389634E+00  8.46550778330E+00  8.53350346565E+00  8.60204529514E+00
  8.67113765846E+00  8.74078497756E+00  8.81099170987E+00  8.88176234866E+00
  8.95310142327E+00  9.02501349943E+00  9.09750317954E+00  9.17057510295E+00
  9.24423394630E+00  9.31848442378E+00  9.39333128744E+00  9.46877932751E+00
  9.54483337269E+00  9.62149829047E+00  9.69877898741E+00  9.77668040953E+00
  9.85520754253E+00  9.93436541217E+00  1.00141590846E+01  1.00945936666E+01
  1.01756743061E+01  1.02574061922E+01  1.03397945558E+01  1.04228446697E+01
  1.05065618493E+01  1.05909514524E+01  1.06760188801E+01  1.07617695766E+01
  1.08482090300E+01  1.09353427725E+01  1.10231763806E+01  1.11117154759E+01
  1.12009657247E+01  1.12909328391E+01  1.13816225771E+01  1.14730407428E+01
  1.15651931870E+01  1.16580858076E+01  1.17517245496E+01  1.18461154060E+01
  1.19412644178E+01  1.20371776747E+01  1.21338613150E+01  1.22313215266E+01
  1.23295645469E+01  1.24285966636E+01  1.25284242147E+01  1.26290535892E+01
  1.27304912275E+01  1.28327436215E+01  1.29358173155E+01  1.30397189063E+01
  1.31444550435E+01  1.32500324303E+01  1.33564578237E+01  1.34637380350E+01
  1.35718799301E+01  1.36808904302E+01  1.37907765119E+01  1.39015452080E+01
  1.40132036077E+01  1.41257588573E+01  1.42392181603E+01  1.43535887780E+01
  1.44688780304E+01  1.45850932959E+01  1.47022420123E+01  1.48203316773E+01
  1.49393698485E+01  1.50593641445E+01  1.51803222450E+01  1.53022518912E+01
  1.54251608868E+01  1.55490570980E+01  1.56739484541E+01  1.57998429483E+01
  1.59267486378E+01  1.60546736446E+01  1.61836261561E+01  1.63136144252E+01
  1.64446467711E+01  1.65767315801E+01  1.67098773055E+01  1.68440924688E+01
  1.69793856597E+01  1.71157655371E+01  1.72532408294E+01  1.73918203350E+01
  1.75315129230E+01  1.76723275338E+01  1.78142731796E+01  1.79573589450E+01
  1.81015939875E+01  1.82469875381E+01  1.83935489022E+01  1.85412874597E+01
  1.86902126660E+01  1.88403340522E+01  1.89916612262E+01  1.91442038731E+01
  1.92979717555E+01  1.94529747147E+01  1.96092226709E+01  1.97667256241E+01
  1.99254936544E+01  2.00855369232E+01  2.02468656732E+01  2.04094902294E+01
  2.05734210001E+01  2.07386684766E+01  2.09052432351E+01  2.10731559362E+01
  2.12424173266E+01  2.14130382389E+01  2.15850295929E+01  2.17584023962E+01
  2.19331677447E+01  2.21093368234E+01  2.22869209072E+01  2.24659313615E+01
  2.26463796432E+01  2.28282773008E+01  2.30116359760E+01  2.31964674038E+01
  2.33827834134E+01  2.35705959291E+01  2.37599169710E+01  2.39507586556E+01
  2.41431331971E+01  2.43370529072E+01  2.45325301971E+01  2.47295775773E+01
  2.49282076589E+01  2.51284331543E+01  2.53302668779E+01  2.55337217474E+01
  2.57388107837E+01  2.59455471127E+01  2.61539439655E+01  2.63640146797E+01
  2.65757726999E+01  2.67892315785E+01  2.70044049772E+01  2.72213066669E+01
  2.74399505296E+01  2.76603505585E+01  2.78825208593E+01  2.81064756509E+01
  2.83322292665E+01  2.85597961545E+01  2.87891908792E+01  2.90204281220E+01
  2.92535226820E+01  2.94884894775E+01  2.97253435464E+01  2.99641000474E+01
  3.02047742610E+01  3.04473815905E+01  3.06919375629E+01  3.09384578297E+01
  3.11869581683E+01  3.14374544829E+01  3.16899628054E+01  3.19444992963E+01
  3.22010802460E+01  3.24597220759E+01  3.27204413390E+01  3.29832547216E+01
  3.32481790437E+01  3.35152312607E+01  3.37844284638E+01  3.40557878820E+01
  3.43293268822E+01  3.46050629710E+01  3.48830137957E+01  3.51631971451E+01
  3.54456309512E+01  3.57303332897E+01  3.60173223818E+01  3.63066165948E+01
  3.65982344437E+01  3.68921945920E+01  3.71885158534E+01  3.74872171926E+01
  3.77883177264E+01  3.80918367254E+01  3.83977936150E+01  3.87062079765E+01
  3.90170995485E+01  3.93304882282E+01  3.96463940726E+01  3.99648372997E+01
  4.02858382901E+01  4.06094175878E+01  4.09355959022E+01  4.12643941086E+01
  4.15958332504E+01  4.19299345397E+01  4.22667193591E+01  4.26062092630E+01
  4.29484259788E+01  4.32933914085E+01  4.36411276301E+01  4.39916568987E+01
  4.43450016484E+01  4.47011844933E+01  4.50602282293E+01  4.54221558353E+01
  4.57869904747E+01  4.61547554972E+01  4.65254744398E+01  4.68991710286E+01
  4.72758691804E+01  4.76555930039E+01  4.80383668017E+01  4.84242150713E+01
  4.88131625073E+01  4.92052340023E+01  4.96004546490E+01  4.99988497418E+01
  5.04004447781E+01  5.08052654600E+01  5.12133376962E+01  5.16246876036E+01
  5.20393415085E+01  5.24573259491E+01  5.28786676764E+01  5.33033936566E+01
  5.37315310721E+01  5.41631073239E+01  5.45981500331E+01  5.50366870426E+01
  5.54787464188E+01  5.59243564537E+01  5.63735456665E+01  5.68263428055E+01
  5.72827768498E+01  5.77428770114E+01  5.82066727368E+01  5.86741937091E+01
  5.91454698499E+01  5.96205313209E+01  6.00994085263E+01
  </PP_R>
  <PP_RAB>
  1.98300174133E-05  1.99892938087E-05  2.01498495258E-05  2.03116948401E-05
  2.04748401098E-05  2.06392957762E-05  2.08050723646E-05  2.09721804848E-05
  2.11406308317E-05  2.13104341861E-05  2.14816014156E-05  2.16541434750E-05
  2.18280714069E-05  2.20033963428E-05  2.21801295036E-05  2.23582822003E-05
  2.25378658347E-05  2.27188919001E-05  2.29013719824E-05  2.30853177604E-05
  2.32707410065E-05  2.34576535880E-05  2.36460674674E-05  2.38359947031E-05
  2.40274474506E-05  2.42204379630E-05  2.44149785917E-05  2.46110817873E-05
  2.48087601006E-05  2.50080261830E-05  2.52088927876E-05  2.54113727699E-05
  2.56154790888E-05  2.58212248070E-05  2.60286230925E-05  2.62376872187E-05
  2.64484305659E-05  2.66608666217E-05  2.68750089820E-05  2.70908713521E-05
  2.73084675472E-05  2.75278114935E-05  2.77489172292E-05  2.79717989050E-05
  2.81964707855E-05  2.84229472498E-05  2.86512427924E-05  2.88813720243E-05
  2.91133496739E-05  2.93471905878E-05  2.95829097319E-05  2.98205221923E-05
  3.00600431763E-05  3.03014880134E-05  3.05448721560E-05  3.07902111809E-05
  3.10375207898E-05  3.12868168106E-05  3.15381151984E-05  3.17914320363E-05
  3.20467835367E-05  3.23041860422E-05  3.25636560267E-05  3.28252100962E-05
  3.30888649904E-05  3.33546375832E-05  3.36225448843E-05  3.38926040396E-05
  3.41648323333E-05  3.44392471878E-05  3.47158661659E-05  3.49947069713E-05
  3.52757874499E-05  3.55591255909E-05  3.58447395281E-05  3.61326475409E-05
  3.64228680554E-05  3.67154196460E-05  3.70103210359E-05  3.73075910990E-05
  3.76072488607E-05  3.79093134991E-05  3.82138043465E-05  3.85207408905E-05
  3.88301427750E-05  3.91420298019E-05  3.94564219321E-05  3.97733392867E-05
  4.00928021487E-05  4.04148309637E-05  4.07394463416E-05  4.10666690580E-05
  4.13965200553E-05  4.17290204439E-05  4.20641915041E-05  4.24020546870E-05
  4.27426316158E-05  4.30859440876E-05  4.34320140745E-05  4.37808637252E-05
  4.41325153661E-05  4.44869915030E-05  4.48443148226E-05  4.52045081936E-05
  4.55675946686E-05  4.59335974852E-05  4.63025400678E-05  4.66744460286E-05
  4.70493391700E-05  4.74272434851E-05  4.78081831600E-05  4.81921825750E-05
  4.85792663061E-05  4.89694591268E-05  4.93627860096E-05  4.97592721275E-05
  5.01589428559E-05  5.05618237737E-05  5.09679406655E-05  5.13773195229E-05
  5.17899865463E-05  5.22059681465E-05  5.26252909465E-05  5.30479817831E-05
  5.34740677086E-05  5.39035759927E-05  5.43365341240E-05  5.47729698121E-05
  5.52129109890E-05  5.56563858110E-05  5.61034226607E-05  5.65540501486E-05
  5.70082971150E-05  5.74661926319E-05  5.79277660047E-05  5.83930467743E-05
  5.88620647189E-05  5.93348498556E-05  5.98114324431E-05  6.02918429826E-05
  6.07761122206E-05  6.12642711506E-05  6.17563510148E-05  6.22523833066E-05
  6.27523997722E-05  6.32564324127E-05  6.37645134866E-05  6.42766755110E-05
  6.47929512647E-05  6.53133737893E-05  6.58379763922E-05  6.63667926480E-05
  6.68998564012E-05  6.74372017680E-05  6.79788631388E-05  6.85248751800E-05
  6.90752728366E-05  6.96300913343E-05  7.01893661815E-05  7.07531331722E-05
  7.13214283875E-05  7.18942881986E-05  7.24717492687E-05  7.30538485555E-05
  7.36406233135E-05  7.42321110965E-05  7.48283497600E-05  7.54293774634E-05
  7.60352326727E-05  7.66459541629E-05  7.72615810203E-05  7.78821526453E-05
  7.85077087546E-05  7.91382893840E-05  7.97739348910E-05  8.04146859571E-05
  8.10605835905E-05  8.17116691289E-05  8.23679842420E-05  8.30295709343E-05
  8.36964715474E-05  8.43687287633E-05  8.50463856066E-05  8.57294854476E-05
  8.64180720050E-05  8.71121893484E-05  8.78118819017E-05  8.85171944455E-05
  8.92281721199E-05  8.99448604277E-05  9.06673052373E-05  9.13955527854E-05
  9.21296496801E-05  9.28696429038E-05  9.36155798164E-05  9.43675081580E-05
  9.51254760524E-05  9.58895320097E-05  9.66597249297E-05  9.74361041052E-05
  9.82187192245E-05  9.90076203755E-05  9.98028580479E-05  1.00604483137E-04
  1.01412546948E-04  1.02227101196E-04  1.03048198014E-04  1.03875889951E-04
  1.04710229981E-04  1.05551271502E-04  1.06399068340E-04  1.07253674754E-04
  1.08115145440E-04  1.08983535533E-04  1.09858900609E-04  1.10741296692E-04
  1.11630780256E-04  1.12527408228E-04  1.13431237992E-04  1.14342327395E-04
  1.15260734745E-04  1.16186518822E-04  1.17119738875E-04  1.18060454632E-04
  1.19008726298E-04  1.19964614564E-04  1.20928180605E-04  1.21899486092E-04
  1.22878593187E-04  1.23865564554E-04  1.24860463360E-04  1.25863353278E-04