<PP_INFO>
Generated using ld1 code (trou)
Author: P. Giannozzi  Generation date: 2001
Info: Nitrogen BLYP 2s2 2p3 l=1 local Martins-Troullier
    0        The Pseudo was generated with a Non-Relativistic Calculation
  0.00000000000E+00    Local Potential cutoff radius
nl pn  l   occ               Rcut            Rcut US             E pseu
2S  0  0  2.00      1.23000000000      0.00000000000      0.00000000000
2P  0  1  3.00      1.23000000000      0.00000000000      0.00000000000
</PP_INFO>


<PP_HEADER>
   0                   Version Number
   N                   Element
   NC                  Norm - Conserving pseudopotential
    F                  Nonlinear Core Correction
 SLA  LYP  B88  BLYP   BLYP Exchange-Correlation functional
    5.00000000000      Z valence
    0.00000000000      Total energy
 55.0000000  220.00000 Suggested cutoff for wfc and rho
    0                  Max angular momentum component
  281                  Number of points in mesh
    2    1             Number of Wavefunctions, Number of Projectors
 Wavefunctions         nl  l   occ
                       2S  0  2.00
                       2P  1  3.00
</PP_HEADER>


<PP_MESH>
  <PP_R>
  4.79232325575E-05  5.03803092326E-05  5.29633629227E-05  5.56788526075E-05
  5.85335684257E-05  6.15346486537E-05  6.46895975553E-05  6.80063041460E-05
  7.14930619201E-05  7.51585895880E-05  7.90120528783E-05  8.30630874563E-05
  8.73218230185E-05  9.17989086222E-05  9.65055393134E-05  1.01453484120E-04
  1.06655115482E-04  1.12123440187E-04  1.17872131895E-04  1.23915565330E-04
  1.30268852222E-04  1.36947879099E-04  1.43969347007E-04  1.51350813273E-04
  1.59110735406E-04  1.67268517256E-04  1.75844557525E-04  1.84860300781E-04
  1.94338291078E-04  2.04302228330E-04  2.14777027568E-04  2.25788881248E-04
  2.37365324739E-04  2.49535305180E-04  2.62329253861E-04  2.75779162318E-04
  2.89918662328E-04  3.04783110005E-04  3.20409674212E-04  3.36837429499E-04
  3.54107453809E-04  3.72262931201E-04  3.91349259824E-04  4.11414165441E-04
  4.32507820768E-04  4.54682970930E-04  4.77995065353E-04  5.02502396416E-04
  5.28266245212E-04  5.55351034782E-04  5.83824491209E-04  6.13757812965E-04
  6.45225848945E-04  6.78307285630E-04  7.13084843844E-04  7.49645485597E-04
  7.88080631537E-04  8.28486389549E-04  8.70963795074E-04  9.15619063751E-04
  9.62563857012E-04  1.01191556129E-03  1.06379758156E-03  1.11833964989E-03
  1.17567814986E-03  1.23595645759E-03  1.29932530024E-03  1.36594313293E-03
  1.43597653495E-03  1.50960062626E-03  1.58699950546E-03  1.66836671006E-03
  1.75390570044E-03  1.84383036864E-03  1.93836557317E-03  2.03774770129E-03
  2.14222526007E-03  2.25205949784E-03  2.36752505739E-03  2.48891066278E-03
  2.61651984125E-03  2.75067168220E-03  2.89170163511E-03  3.03996234834E-03
  3.19582455088E-03  3.35967797943E-03  3.53193235291E-03  3.71301839697E-03
  3.90338892104E-03  4.10351995061E-03  4.31391191747E-03  4.53509091115E-03
  4.76760999433E-03  5.01205058584E-03  5.26902391446E-03  5.53917254739E-03
  5.82317199691E-03  6.12173240958E-03  6.43560034194E-03  6.76556062731E-03
  7.11243833827E-03  7.47710084978E-03  7.86046000806E-03  8.26347441069E-03
  8.68715180360E-03  9.13255160096E-03  9.60078753425E-03  1.00930304372E-02
  1.06105111735E-02  1.11545237145E-02  1.17264283748E-02  1.23276552142E-02
  1.29597076128E-02  1.36241660308E-02  1.43226919604E-02  1.50570320803E-02
  1.58290226232E-02  1.66405939676E-02  1.74937754647E-02  1.83907005125E-02
  1.93336118909E-02  2.03248673695E-02  2.13669456032E-02  2.24624523305E-02
  2.36141268888E-02  2.48248490643E-02  2.60976462932E-02  2.74357012315E-02
  2.88423597135E-02  3.03211391181E-02  3.18757371641E-02  3.35100411563E-02
  3.52281377059E-02  3.70343229494E-02  3.89331132906E-02  4.09292566943E-02
  4.30277445589E-02  4.52338241970E-02  4.75530119569E-02  4.99911070159E-02
  5.25542058816E-02  5.52487176364E-02  5.80813799629E-02  6.10592759927E-02
  6.41898520167E-02  6.74809361059E-02  7.09407576845E-02  7.45779681087E-02
  7.84016622991E-02  8.24214014829E-02  8.66472371018E-02  9.10897359460E-02
  9.57600065765E-02  1.00669727103E-01  1.05831174383E-01  1.11257254724E-01
  1.16961536154E-01  1.22958282346E-01  1.29262488291E-01  1.35889917786E-01
  1.42857142857E-01  1.50181585197E-01  1.57881559725E-01  1.65976320390E-01
  1.74486108309E-01  1.83432202384E-01  1.92836972511E-01  2.02723935513E-01
  2.13117813949E-01  2.24044597927E-01  2.35531610100E-01  2.47607573981E-01
  2.60302685770E-01  2.73648689859E-01  2.87678958210E-01  3.02428573802E-01
  3.17934418356E-01  3.34235264561E-01  3.51371873022E-01  3.69387094188E-01
  3.88325975494E-01  4.08235874009E-01  4.29166574849E-01  4.51170415670E-01
  4.74302417534E-01  4.98620422495E-01  5.24185238231E-01  5.51060790100E-01
  5.79314280978E-01  6.09016359310E-01  6.40241295763E-01  6.73067168942E-01
  7.07576060628E-01  7.43854261026E-01  7.81992484532E-01  8.22086096572E-01
  8.64235352059E-01  9.08545646086E-01  9.55127777468E-01  1.00409822580E+00
  1.05557944270E+00  1.10970015804E+00  1.16659570180E+00  1.22640834245E+00
  1.28928764278E+00  1.35539083377E+00  1.42488320783E+00  1.49793853210E+00
  1.57473948295E+00  1.65547810275E+00  1.74035628010E+00  1.82958625467E+00
  1.92339114786E+00  2.02200552077E+00  2.12567596070E+00  2.23466169774E+00
  2.34923525301E+00  2.46968312008E+00  2.59630648135E+00  2.72942196118E+00
  2.86936241760E+00  3.01647777465E+00  3.17113589735E+00  3.33372351156E+00
  3.50464717102E+00  3.68433427388E+00  3.87323413152E+00  4.07181909197E+00
  4.28058572106E+00  4.50005604411E+00  4.73077885124E+00  4.97333106966E+00
  5.22831920624E+00  5.49638086415E+00  5.77818633715E+00  6.07444028572E+00
  6.38588349904E+00  6.71329474737E+00  7.05749272936E+00  7.41933811926E+00
  7.79973571902E+00  8.19963672078E+00  8.62004108534E+00  9.06200004259E+00
  9.52661872013E+00  1.00150589067E+01  1.05285419571E+01  1.10683518465E+01
  1.16358383807E+01  1.22324205717E+01  1.28595901858E+01  1.35189154736E+01
  1.42120450917E+01  1.49407122253E+01  1.57067389217E+01  1.65120406467E+01
  1.73586310741E+01  1.82486271209E+01  1.91842542407E+01  2.01678519888E+01
  2.12018798718E+01  2.22889234981E+01  2.34317010428E+01  2.46330700453E+01
  2.58960345536E+01  2.72237526369E+01  2.86195442821E+01  3.00868996952E+01
  3.16294880292E+01  3.32511665582E+01  3.49559903235E+01  3.67482222723E+01
  3.86323439180E+01  4.06130665463E+01  4.26953429953E+01  4.48843800408E+01
  4.71856514157E+01  4.96049114970E+01  5.21482096950E+01  5.48219055802E+01
  5.76326847847E+01
  </PP_R>
  <PP_RAB>
  2.39616162788E-06  2.51901546163E-06  2.64816814614E-06  2.78394263038E-06
  2.92667842128E-06  3.07673243268E-06  3.23447987776E-06  3.40031520730E-06
  3.57465309600E-06  3.75792947940E-06  3.95060264391E-06  4.15315437281E-06
  4.36609115093E-06  4.58994543111E-06  4.82527696567E-06  5.07267420602E-06
  5.33275577412E-06  5.60617200936E-06  5.89360659476E-06  6.19577826648E-06
  6.51344261110E-06  6.84739395496E-06  7.19846735035E-06  7.56754066363E-06
  7.95553677032E-06  8.36342586279E-06  8.79222787624E-06  9.24301503904E-06
  9.71691455391E-06  1.02151114165E-05  1.07388513784E-05  1.12894440624E-05
  1.18682662370E-05  1.24767652590E-05  1.31164626931E-05  1.37889581159E-05
  1.44959331164E-05  1.52391555003E-05  1.60204837106E-05  1.68418714749E-05
  1.77053726905E-05  1.86131465601E-05  1.95674629912E-05  2.05707082721E-05
  2.16253910384E-05  2.27341485465E-05  2.38997532677E-05  2.51251198208E-05
  2.64133122606E-05  2.77675517391E-05  2.91912245605E-05  3.06878906482E-05
  3.22612924472E-05  3.39153642815E-05  3.56542421922E-05  3.74822742799E-05
  3.94040315769E-05  4.14243194774E-05  4.35481897537E-05  4.57809531875E-05
  4.81281928506E-05  5.05957780647E-05  5.31898790780E-05  5.59169824945E-05
  5.87839074930E-05  6.17978228794E-05  6.49662650121E-05  6.82971566467E-05
  7.17988267474E-05  7.54800313132E-05  7.93499752732E-05  8.34183355028E-05
  8.76952850219E-05  9.21915184320E-05  9.69182786586E-05  1.01887385064E-04
  1.07111263003E-04  1.12602974892E-04  1.18376252870E-04  1.24445533139E-04
  1.30825992062E-04  1.37533584110E-04  1.44585081756E-04  1.51998117417E-04
  1.59791227544E-04  1.67983898971E-04  1.76596617645E-04  1.85650919848E-04
  1.95169446052E-04  2.05175997530E-04  2.15695595874E-04  2.26754545558E-04
  2.38380499717E-04  2.50602529292E-04  2.63451195723E-04  2.76958627369E-04
  2.91158599845E-04  3.06086620479E-04  3.21780017097E-04  3.38278031365E-04
  3.55621916913E-04  3.73855042489E-04  3.93023000403E-04  4.13173720535E-04
  4.34357590180E-04  4.56627580048E-04  4.80039376712E-04  5.04651521860E-04
  5.30525558674E-04  5.57726185723E-04  5.86321418742E-04  6.16382760710E-04
  6.47985380639E-04  6.81208301540E-04  7.16134598020E-04  7.52851604013E-04
  7.91451131160E-04  8.32029698382E-04  8.74688773236E-04  9.19535025627E-04
  9.66680594547E-04  1.01624336848E-03  1.06834728016E-03  1.12312261653E-03
  1.18070634444E-03  1.24124245322E-03  1.30488231466E-03  1.37178506158E-03
  1.44211798568E-03  1.51605695591E-03  1.59378685820E-03  1.67550205781E-03
  1.76140688530E-03  1.85171614747E-03  1.94665566453E-03  2.04646283472E-03
  2.15138722794E-03  2.26169120985E-03  2.37765059784E-03  2.49955535079E-03
  2.62771029408E-03  2.76243588182E-03  2.90406899815E-03  3.05296379963E-03
  3.20949260084E-03  3.37404680529E-03  3.54703788422E-03  3.72889840544E-03
  3.92008311496E-03  4.12107007415E-03  4.33236185509E-03  4.55448679730E-03
  4.78800032883E-03  5.03348635513E-03  5.29155871916E-03  5.56286273622E-03
  5.84807680770E-03  6.14791411732E-03  6.46312441454E-03  6.79449588929E-03
  7.14285714286E-03  7.50907925983E-03  7.89407798625E-03  8.29881601949E-03
  8.72430541543E-03  9.17161011920E-03  9.64184862554E-03  1.01361967757E-02
  1.06558906974E-02  1.12022298964E-02  1.17765805050E-02  1.23803786991E-02
  1.30151342885E-02  1.36824344930E-02  1.43839479105E-02  1.51214286901E-02
  1.58967209178E-02  1.67117632280E-02  1.75685936511E-02  1.84693547094E-02
  1.94162987747E-02  2.04117937005E-02  2.14583287425E-02  2.25585207835E-02
  2.37151208767E-02  2.49310211247E-02  2.62092619116E-02  2.75530395050E-02
  2.89657140489E-02  3.04508179655E-02  3.20120647881E-02  3.36533584471E-02
  3.53788030314E-02  3.71927130513E-02  3.90996242266E-02  4.11043048286E-02
  4.32117676029E-02  4.54272823043E-02  4.77563888734E-02  5.02049112899E-02
  5.27789721352E-02  5.54850079022E-02  5.83297850898E-02  6.13204171227E-02
  6.44643821388E-02  6.77695416883E-02  7.12441603915E-02  7.48969266052E-02
  7.87369741474E-02  8.27739051373E-02  8.70178140050E-02  9.14793127333E-02
  9.61695573929E-02  1.01100276038E-01  1.06283798035E-01  1.11733084887E-01
  1.17461762651E-01  1.23484156004E-01  1.29815324067E-01  1.36471098059E-01
  1.43468120880E-01  1.50823888732E-01  1.58556794867E-01  1.66686175578E-01
  1.75232358551E-01  1.84216713694E-01  1.93661706576E-01  2.03590954598E-01
  2.14029286053E-01  2.25002802205E-01  2.36538942562E-01  2.48666553483E-01
  2.61415960312E-01  2.74819043207E-01  2.88909316858E-01  3.03722014286E-01
  3.19294174952E-01  3.35664737368E-01  3.52874636468E-01  3.70966905963E-01
  3.89986785951E-01  4.09981836039E-01  4.31002054267E-01  4.53100002129E-01
  4.76330936007E-01  5.00752945333E-01  5.26427097854E-01  5.53417592323E-01
  5.81791919035E-01  6.11621028587E-01  6.42979509289E-01  6.75945773678E-01
  7.10602254585E-01  7.47035611265E-01  7.85336946087E-01  8.25602032337E-01
  8.67931553705E-01  9.12431356043E-01  9.59212712035E-01  1.00839259944E+00
  1.06009399359E+00  1.11444617490E+00  1.17158505214E+00  1.23165350226E+00
  1.29480172768E+00  1.36118763185E+00  1.43097721411E+00  1.50434498476E+00
  1.58147440146E+00  1.66255832791E+00  1.74779951617E+00  1.83741111361E+00
  1.93161719590E+00  2.03065332731E+00  2.13476714976E+00  2.24421900204E+00
  2.35928257078E+00  2.48024557485E+00  2.60741048475E+00  2.74109527901E+00
  2.88163423923E+00
  </PP_RAB>
</PP_MESH>


<PP_LOCAL>
 -3.41777710000E+01 -3.41777690000E+01 -3.41777670000E+01 -3.41777640000E+01
 -3.41777610000E+01 -3.41777580000E+01 -3.41777540000E+01 -3.41777500000E+01
 -3.41777460000E+01 -3.41777410000E+01 -3.41777360000E+01 -3.41777300000E+01
 -3.41777240000E+01 -3.41777160000E+01 -3.41777080000E+01 -3.41777000000E+01
 -3.41776900000E+01 -3.41776790000E+01 -3.41776670000E+01 -3.41776540000E+01
 -3.41776400000E+01 -3.41776240000E+01 -3.41776060000E+01 -3.41775860000E+01
 -3.41775650000E+01 -3.41775410000E+01 -3.41775140000E+01 -3.41774850000E+01
 -3.41774530000E+01 -3.41774170000E+01 -3.41773780000E+01 -3.41773350000E+01
 -3.41772870000E+01 -3.41772330000E+01 -3.41771750000E+01 -3.41771100000E+01
 -3.41770380000E+01 -3.41769590000E+01 -3.41768710000E+01 -3.41767750000E+01
 -3.41766680000E+01 -3.41765500000E+01 -3.41764190000E+01 -3.41762750000E+01
 -3.41761160000E+01 -3.41759400000E+01 -3.41757450000E+01 -3.41755300000E+01
 -3.41752930000E+01 -3.41750310000E+01 -3.41747410000E+01 -3.41744210000E+01
 -3.41740670000E+01 -3.41736770000E+01 -3.41732450000E+01 -3.41727690000E+01
 -3.41722420000E+01 -3.41716610000E+01 -3.41710200000E+01 -3.41703110000E+01
 -3.41695290000E+01 -3.41686660000E+01 -3.41677130000E+01 -3.41666610000E+01
 -3.41655000000E+01 -3.41642200000E+01 -3.41628080000E+01 -3.41612500000E+01
 -3.41595320000E+01 -3.41576390000E+01 -3.41555520000E+01 -3.41532530000E+01
 -3.41507210000E+01 -3.41479320000E+01 -3.41448630000E+01 -3.41414850000E+01
 -3.41377710000E+01 -3.41336880000E+01 -3.41292010000E+01 -3.41242740000E+01
 -3.41188670000E+01 -3.41129350000E+01 -3.41064340000E+01 -3.40993130000E+01
 -3.40915190000E+01 -3.40829960000E+01 -3.40736830000E+01 -3.40635180000E+01
 -3.40524320000E+01 -3.40403550000E+01 -3.40272120000E+01 -3.40129260000E+01
 -3.39974150000E+01 -3.39805940000E+01 -3.39623770000E+01 -3.39426720000E+01
 -3.39213870000E+01 -3.38984250000E+01 -3.38736880000E+01 -3.38470770000E+01
 -3.38184900000E+01 -3.37878250000E+01 -3.37549760000E+01 -3.37198400000E+01
 -3.36823120000E+01 -3.36422900000E+01 -3.35996690000E+01 -3.35543490000E+01
 -3.35062330000E+01 -3.34552260000E+01 -3.34012400000E+01 -3.33441910000E+01
 -3.32840030000E+01 -3.32206100000E+01 -3.31539560000E+01 -3.30839970000E+01
 -3.30107020000E+01 -3.29340580000E+01 -3.28540690000E+01 -3.27707560000E+01
 -3.26841640000E+01 -3.25943620000E+01 -3.25014400000E+01 -3.24055170000E+01
 -3.23067390000E+01 -3.22052780000E+01 -3.21013350000E+01 -3.19951420000E+01
 -3.18869540000E+01 -3.17770570000E+01 -3.16657590000E+01 -3.15533940000E+01
 -3.14403120000E+01 -3.13268810000E+01 -3.12134830000E+01 -3.11005050000E+01
 -3.09883370000E+01 -3.08773670000E+01 -3.07679740000E+01 -3.06605220000E+01
 -3.05553550000E+01 -3.04527900000E+01 -3.03531130000E+01 -3.02565730000E+01
 -3.01633750000E+01 -3.00736810000E+01 -2.99876010000E+01 -2.99051910000E+01
 -2.98264550000E+01 -2.97513340000E+01 -2.96797130000E+01 -2.96114180000E+01
 -2.95462090000E+01 -2.94837900000E+01 -2.94238010000E+01 -2.93658190000E+01
 -2.93093640000E+01 -2.92538890000E+01 -2.91987900000E+01 -2.91433970000E+01
 -2.90869730000E+01 -2.90287170000E+01 -2.89677500000E+01 -2.89031160000E+01
 -2.88337710000E+01 -2.87585710000E+01 -2.86762580000E+01 -2.85854420000E+01
 -2.84845850000E+01 -2.83719720000E+01 -2.82456840000E+01 -2.81035730000E+01
 -2.79432280000E+01 -2.77619390000E+01 -2.75566710000E+01 -2.73240330000E+01
 -2.70602630000E+01 -2.67612150000E+01 -2.64223780000E+01 -2.60389180000E+01
 -2.56057560000E+01 -2.51177080000E+01 -2.45697030000E+01 -2.39571280000E+01
 -2.32764630000E+01 -2.25261010000E+01 -2.17058830000E+01 -2.08146000000E+01
 -1.98504370000E+01 -1.88158000000E+01 -1.77201620000E+01 -1.65800550000E+01
 -1.54187060000E+01 -1.42655300000E+01 -1.31550010000E+01 -1.21245000000E+01
 -1.12107840000E+01 -1.04447610000E+01 -9.84427310000E+00 -9.40508610000E+00
 -9.09165490000E+00 -8.83304910000E+00 -8.53747940000E+00 -8.15375240000E+00
 -7.75615010000E+00 -7.37791300000E+00 -7.01810490000E+00 -6.67583550000E+00
 -6.35025440000E+00 -6.04054990000E+00 -5.74594920000E+00 -5.46571590000E+00
 -5.19914970000E+00 -4.94558410000E+00 -4.70438510000E+00 -4.47494950000E+00
 -4.25670360000E+00 -4.04910170000E+00 -3.85162470000E+00 -3.66377870000E+00
 -3.48509410000E+00 -3.31512410000E+00 -3.15344360000E+00 -2.99964830000E+00
 -2.85335370000E+00 -2.71419400000E+00 -2.58182120000E+00 -2.45590430000E+00
 -2.33612850000E+00 -2.22219410000E+00 -2.11381640000E+00 -2.01072440000E+00
 -1.91266020000E+00 -1.81937860000E+00 -1.73064650000E+00 -1.64624190000E+00
 -1.56595370000E+00 -1.48958120000E+00 -1.41693350000E+00 -1.34782890000E+00
 -1.28209450000E+00 -1.21956600000E+00 -1.16008710000E+00 -1.10350890000E+00
 -1.04969020000E+00 -9.98496180000E-01 -9.49798950000E-01 -9.03476710000E-01
 -8.59413630000E-01 -8.17499540000E-01 -7.77629620000E-01 -7.39704170000E-01
 -7.03628380000E-01 -6.69312020000E-01 -6.36669290000E-01 -6.05618560000E-01
 -5.76082190000E-01 -5.47986330000E-01 -5.21260720000E-01 -4.95838540000E-01
 -4.71656210000E-01 -4.48653260000E-01 -4.26772190000E-01 -4.05958260000E-01
 -3.86159440000E-01 -3.67326220000E-01 -3.49411510000E-01 -3.32370510000E-01
 -3.16160610000E-01 -3.00741280000E-01 -2.86073950000E-01 -2.72121960000E-01
 -2.58850420000E-01 -2.46226130000E-01 -2.34217540000E-01 -2.22794620000E-01
 -2.11928800000E-01 -2.01592910000E-01 -1.91761100000E-01 -1.82408810000E-01
 -1.73512620000E-01
</PP_LOCAL>


<PP_NONLOCAL>
  <PP_BETA>
    1    0             Beta    L
   246
  9.68979518531E-04  1.01866016137E-03  1.07088799348E-03  1.12579353738E-03
  1.18351421403E-03  1.24419436653E-03  1.30798551041E-03  1.37504737882E-03
  1.44554756885E-03  1.51966240740E-03  1.59757724348E-03  1.67948670739E-03
  1.76559595045E-03  1.85611992018E-03  1.95128522720E-03  2.05132988494E-03
  2.15650368757E-03  2.26707000586E-03  2.38330520124E-03  2.50549993645E-03
  2.63395983898E-03  2.76900585858E-03  2.91097570460E-03  3.06022454570E-03
  3.21712580907E-03  3.38207128516E-03  3.55547396519E-03  3.73776698115E-03
  3.92940636185E-03  4.13087145698E-03  4.34266578510E-03  4.56531936911E-03
  4.79938830988E-03  5.04545792789E-03  5.30414439583E-03  5.57609357262E-03
  5.86198611789E-03  6.16253645982E-03  6.47849659014E-03  6.81065677125E-03
  7.15984626202E-03  7.52693985345E-03  7.91285415304E-03  8.31855486149E-03
  8.74505691767E-03  9.19342570510E-03  9.66478246968E-03  1.01603066513E-02
  1.06812367900E-02  1.12288762036E-02  1.18045926615E-02  1.24098280832E-02
  1.30460932828E-02  1.37149817819E-02  1.44181635842E-02  1.51573997382E-02
  1.59345359482E-02  1.67515176230E-02  1.76103877854E-02  1.85132915828E-02
  1.94624891783E-02  2.04603541340E-02  2.15093794773E-02  2.26121901404E-02
  2.37715421836E-02  2.49903369794E-02  2.62716223193E-02  2.76185979239E-02
  2.90346363151E-02  3.05232767842E-02  3.20882421887E-02  3.37334440727E-02
  3.54630013008E-02  3.72812316943E-02  3.91926875678E-02  4.12021445989E-02
  4.33146307989E-02  4.55354275539E-02  4.78700894689E-02  5.03244531192E-02
  5.29046586265E-02  5.56171520227E-02  5.84687229241E-02  6.14665015576E-02
  6.46179779420E-02  6.79310421899E-02  7.14139712952E-02  7.50754855727E-02
  7.89247256926E-02  8.29713377071E-02  8.72254233474E-02  9.16976393521E-02
  9.63991567913E-02  1.01341735074E-01  1.06537743571E-01  1.12000173815E-01
  1.17742687590E-01  1.23779650546E-01  1.30126161880E-01  1.36798098857E-01
  1.43812139710E-01  1.51185856916E-01  1.58937672685E-01  1.67086988276E-01
  1.75654188436E-01  1.84660721181E-01  1.94129119300E-01  2.04083065040E-01
  2.14547483838E-01  2.25548557941E-01  2.37113858496E-01  2.49272281487E-01
  2.62054302985E-01  2.75491936075E-01  2.89618791432E-01  3.04470322073E-01
  3.20083664755E-01  3.36497996074E-01  3.53754433820E-01  3.71896240733E-01
  3.90968884041E-01  4.11020251069E-01  4.32100588533E-01  4.54262848887E-01
  4.77562700235E-01  5.02058605266E-01  5.27812114688E-01  5.54888052697E-01
  5.83354443439E-01  6.13282970504E-01  6.44748994264E-01  6.77831840605E-01
  7.12614867844E-01  7.49185876443E-01  7.87637259362E-01  8.28066208673E-01
  8.70574956808E-01  9.15271171776E-01  9.62268183663E-01  1.01168521187E+00
  1.06364776706E+00  1.11828793791E+00  1.17574478093E+00  1.23616466447E+00
  1.29970146849E+00  1.36651734236E+00  1.43678271247E+00  1.51067669214E+00
  1.58838791947E+00  1.67011411806E+00  1.75606307240E+00  1.84645283905E+00
  1.94151132455E+00  2.04147727927E+00  2.14659963939E+00  2.25713696825E+00
  2.37335809703E+00  2.49553957613E+00  2.62396623517E+00  2.75892704186E+00
  2.90071412989E+00  3.04961748383E+00  3.20592067984E+00  3.36989315675E+00
  3.54178162355E+00  3.72179807527E+00  3.91010322640E+00  4.10678784375E+00
  4.31184714038E+00  4.52514793674E+00  4.74638867006E+00  4.97504911086E+00
  5.21032882051E+00  5.45106881575E+00  5.69566124936E+00  5.94193602433E+00
  6.18703380558E+00  6.42725031416E+00  6.65787080594E+00  6.87298363362E+00
  7.06529178605E+00  7.22593488684E+00  7.34435358333E+00  7.40822763190E+00
  7.40356434246E+00  7.31500040325E+00  7.12644446467E+00  6.82217482677E+00
  6.38853359153E+00  5.81633086553E+00  5.10399162582E+00  4.26130697797E+00
  3.31334519355E+00  2.30367412587E+00  1.29549428481E+00  3.68847083713E-01
 -3.88055715114E-01 -8.94630328319E-01 -1.10025677930E+00 -1.00922580453E+00
 -6.99837032029E-01 -3.23416005126E-01 -6.08613206600E-02  0.00000000000E+00
  0.00000000000E+00  0.00000000000E+00  0.00000000000E+00  0.00000000000E+00
  0.00000000000E+00  0.00000000000E+00  0.00000000000E+00  0.00000000000E+00
  0.00000000000E+00  0.00000000000E+00  0.00000000000E+00  0.00000000000E+00
  0.00000000000E+00  0.00000000000E+00  0.00000000000E+00  0.00000000000E+00
  0.00000000000E+00  0.00000000000E+00  0.00000000000E+00  0.00000000000E+00
  0.00000000000E+00  0.00000000000E+00  0.00000000000E+00  0.00000000000E+00
  0.00000000000E+00  0.00000000000E+00  0.00000000000E+00  0.00000000000E+00
  0.00000000000E+00  0.00000000000E+00  0.00000000000E+00  0.00000000000E+00
  0.00000000000E+00  0.00000000000E+00  0.00000000000E+00  0.00000000000E+00
  0.00000000000E+00  0.00000000000E+00  0.00000000000E+00  0.00000000000E+00
  0.00000000000E+00  0.00000000000E+00
  </PP_BETA>
  <PP_DIJ>
    1                  Number of nonzero Dij
    1    1  6.92525341798E-01
  </PP_DIJ>
</PP_NONLOCAL>


<PP_PSWFC>
2S    0  2.00          Wavefunction
  4.57048930000E-05  4.80482330000E-05  5.05117190000E-05  5.31015100000E-05
  5.58240830000E-05  5.86862460000E-05  6.16951540000E-05  6.48583330000E-05
  6.81836910000E-05  7.16795450000E-05  7.53546340000E-05  7.92181490000E-05
  8.32797520000E-05  8.75495970000E-05  9.20383610000E-05  9.67572700000E-05
  1.01718120000E-04  1.06933320000E-04  1.12415910000E-04  1.18179600000E-04
  1.24238800000E-04  1.30608660000E-04  1.37305110000E-04  1.44344890000E-04
  1.51745620000E-04  1.59525780000E-04  1.67704850000E-04  1.76303260000E-04
  1.85342520000E-04  1.94845240000E-04  2.04835170000E-04  2.15337300000E-04
  2.26377880000E-04  2.37984520000E-04  2.50186250000E-04  2.63013580000E-04
  2.76498580000E-04  2.90674960000E-04  3.05578190000E-04  3.21245530000E-04
  3.37716140000E-04  3.55031220000E-04  3.73234070000E-04  3.92370190000E-04
  4.12487450000E-04  4.33636140000E-04  4.55869150000E-04  4.79242070000E-04
  5.03813340000E-04  5.29644410000E-04  5.56799870000E-04  5.85347630000E-04
  6.15359060000E-04  6.46909210000E-04  6.80076970000E-04  7.14945280000E-04
  7.51601330000E-04  7.90136780000E-04  8.30647990000E-04  8.73236260000E-04
  9.18008080000E-04  9.65075400000E-04  1.01455590000E-03  1.06657340000E-03
  1.12125780000E-03  1.17874600000E-03  1.23918170000E-03  1.30271600000E-03
  1.36950780000E-03  1.43972410000E-03  1.51354050000E-03  1.59114150000E-03
  1.67272130000E-03  1.75848380000E-03  1.84864340000E-03  1.94342570000E-03
  2.04306760000E-03  2.14781830000E-03  2.25793980000E-03  2.37370740000E-03
  2.49541060000E-03  2.62335380000E-03  2.75785690000E-03  2.89925620000E-03
  3.04790540000E-03  3.20417610000E-03  3.36845930000E-03  3.54116570000E-03
  3.72272710000E-03  3.91359780000E-03  4.11425500000E-03  4.32520060000E-03
  4.54696210000E-03  4.78009420000E-03  5.02517990000E-03  5.28283220000E-03
  5.55369550000E-03  5.83844740000E-03  6.13780010000E-03  6.45250250000E-03
  6.78334160000E-03  7.13114530000E-03  7.49678350000E-03  7.88117100000E-03
  8.28526970000E-03  8.71009050000E-03  9.15669660000E-03  9.62620550000E-03
  1.01197920000E-02  1.06386920000E-02  1.11842050000E-02  1.17576950000E-02
  1.23605990000E-02  1.29944270000E-02  1.36607650000E-02  1.43612840000E-02
  1.50977370000E-02  1.58719720000E-02  1.66859270000E-02  1.75416450000E-02
  1.84412700000E-02  1.93870600000E-02  2.03813870000E-02  2.14267490000E-02
  2.25257700000E-02  2.36812110000E-02  2.48959770000E-02  2.61731240000E-02
  2.75158650000E-02  2.89275810000E-02  3.04118320000E-02  3.19723600000E-02
  3.36131050000E-02  3.53382130000E-02  3.71520490000E-02  3.90592080000E-02
  4.10645260000E-02  4.31730970000E-02  4.53902870000E-02  4.77217470000E-02
  5.01734310000E-02  5.27516150000E-02  5.54629140000E-02  5.83143040000E-02
  6.13131410000E-02  6.44671890000E-02  6.77846420000E-02  7.12741500000E-02
  7.49448550000E-02  7.88064170000E-02  8.28690500000E-02  8.71435640000E-02
  9.16414020000E-02  9.63746880000E-02  1.01356280000E-01  1.06599810000E-01
  1.12119770000E-01  1.17931550000E-01  1.24051550000E-01  1.30497200000E-01
  1.37287140000E-01  1.44441210000E-01  1.51980670000E-01  1.59928240000E-01
  1.68308280000E-01  1.77146950000E-01  1.86472320000E-01  1.96314630000E-01
  2.06706430000E-01  2.17682810000E-01  2.29281650000E-01  2.41543810000E-01
  2.54513430000E-01  2.68238100000E-01  2.82769120000E-01  2.98161560000E-01
  3.14474430000E-01  3.31770450000E-01  3.50115840000E-01  3.69579550000E-01
  3.90232190000E-01  4.12144090000E-01  4.35382580000E-01  4.60007860000E-01
  4.86067270000E-01  5.13587290000E-01  5.42562960000E-01  5.72944100000E-01
  6.04617950000E-01  6.37388450000E-01  6.70952800000E-01  7.04877210000E-01
  7.38575550000E-01  7.71296650000E-01  8.02128380000E-01  8.30028160000E-01
  8.53888740000E-01  8.72643210000E-01  8.85401740000E-01  8.91595080000E-01
  8.91079430000E-01  8.84143330000E-01  8.71369430000E-01  8.53373850000E-01
  8.30603010000E-01  8.03411690000E-01  7.72241370000E-01  7.37585640000E-01
  6.99971440000E-01  6.59955500000E-01  6.18111040000E-01  5.75015900000E-01
  5.31240820000E-01  4.87338190000E-01  4.43831580000E-01  4.01206270000E-01
  3.59901080000E-01  3.20301570000E-01  2.82734980000E-01  2.47466840000E-01
  2.14699440000E-01  1.84572120000E-01  1.57163340000E-01  1.32494340000E-01
  1.10534130000E-01  9.12056070000E-02  7.43922760000E-02  5.99453640000E-02
  4.76908640000E-02  3.74363220000E-02  2.89772590000E-02  2.21033360000E-02
  1.66044030000E-02  1.22764150000E-02  8.92689670000E-03  6.37942890000E-03
  4.47672010000E-03  3.08215400000E-03  2.07999150000E-03  1.37453660000E-03
  8.88568320000E-04  5.61298330000E-04  3.46073740000E-04  2.08013870000E-04
  1.21734290000E-04  6.92704790000E-05  3.82720980000E-05  2.05004820000E-05
  1.06289230000E-05  5.32443390000E-06  2.57236410000E-06  1.19649850000E-06
  5.34783860000E-07  2.29206780000E-07  9.39525270000E-08  3.67159300000E-08
  0.00000000000E+00  0.00000000000E+00  0.00000000000E+00  0.00000000000E+00
  0.00000000000E+00  0.00000000000E+00  0.00000000000E+00  0.00000000000E+00
  0.00000000000E+00  0.00000000000E+00  0.00000000000E+00  0.00000000000E+00
  0.00000000000E+00  0.00000000000E+00  0.00000000000E+00  0.00000000000E+00
  0.00000000000E+00  0.00000000000E+00  0.00000000000E+00  0.00000000000E+00
  0.00000000000E+00  0.00000000000E+00  0.00000000000E+00  0.00000000000E+00
  0.00000000000E+00
2P    1  3.00          Wavefunction
  9.06036580000E-09  1.00132530000E-08  1.10663560000E-08  1.22302150000E-08
  1.35164810000E-08  1.49380250000E-08  1.65090750000E-08  1.82453540000E-08
  2.01642390000E-08  2.22849360000E-08  2.46286690000E-08  2.72188960000E-08
  3.00815390000E-08  3.32452500000E-08  3.67416930000E-08  4.06058600000E-08
  4.48764260000E-08  4.95961330000E-08  5.48122170000E-08  6.05768820000E-08
  6.69478250000E-08  7.39888060000E-08  8.17702960000E-08  9.03701750000E-08
  9.98745130000E-08  1.10378430000E-07  1.21987060000E-07  1.34816590000E-07
  1.48995400000E-07  1.64665430000E-07  1.81983480000E-07  2.01122900000E-07
  2.22275230000E-07  2.45652180000E-07  2.71487700000E-07  3.00040380000E-07
  3.31595980000E-07  3.66470310000E-07  4.05012420000E-07  4.47608050000E-07
  4.94683500000E-07  5.46709940000E-07  6.04208050000E-07  6.67753310000E-07
  7.37981690000E-07  8.15596060000E-07  9.01373230000E-07  9.96171670000E-07
  1.10094020000E-06  1.21672730000E-06  1.34469180000E-06  1.48611460000E-06
  1.64241090000E-06  1.81514500000E-06  2.00604580000E-06  2.21702370000E-06
  2.45019050000E-06  2.70787950000E-06  2.99267000000E-06  3.30741210000E-06
  3.65525590000E-06  4.03968280000E-06  4.46454000000E-06  4.93407980000E-06
  5.45300140000E-06  6.02649830000E-06  6.66031010000E-06  7.36078020000E-06
  8.13491900000E-06  8.99047430000E-06  9.93600840000E-06  1.09809840000E-05
  1.21358600000E-05  1.34121950000E-05  1.48227610000E-05  1.63816750000E-05
  1.81045400000E-05  2.00085960000E-05  2.21129010000E-05  2.44385120000E-05
  2.70087050000E-05  2.98491990000E-05  3.29884230000E-05  3.64577910000E-05
  4.02920230000E-05  4.45294880000E-05  4.92125910000E-05  5.43881960000E-05
  6.01080950000E-05  6.64295240000E-05  7.34157380000E-05  8.11366440000E-05
  8.96694970000E-05  9.90996750000E-05  1.09521530000E-04  1.21039340000E-04
  1.33768340000E-04  1.47835870000E-04  1.63382670000E-04  1.80564260000E-04
  1.99552520000E-04  2.20537370000E-04  2.43728710000E-04  2.69358480000E-04
  2.97683000000E-04  3.28985510000E-04  3.63578990000E-04  4.01809320000E-04