<PP_INFO>
Generated using unknown code                                                    
Author: unknown    Generation date: as well                                     
Info: automatically converted from CPMD format                                  
    0        The Pseudo was generated with a Non-Relativistic Calculation
  0.00000000000E+00    Local Potential cutoff radius
nl pn  l   occ               Rcut            Rcut US             E pseu
2S  0  0  2.00      0.00000000000      0.00000000000      0.00000000000
2P  0  1  3.00      0.00000000000      0.00000000000      0.00000000000
</PP_INFO>


<PP_HEADER>
   0                   Version Number
  N                    Element
   NC                  Norm - Conserving pseudopotential
    F                  Nonlinear Core Correction
 BLYP                  Exchange-Correlation functional
    5.00000000000      Z valence
    0.00000000000      Total energy
  0.0000000  0.0000000 Suggested cutoff for wfc and rho
    1                  Max angular momentum component
  624                  Number of points in mesh
    2    1             Number of Wavefunctions, Number of Projectors
 Wavefunctions         nl  l   occ
                       2S  0  2.00
                       2P  1  3.00
</PP_HEADER>


<PP_MESH>
  <PP_R>
  8.92857140000E-04  9.08482140000E-04  9.24380580000E-04  9.40557240000E-04
  9.57016990000E-04  9.73764790000E-04  9.90805670000E-04  1.00814480000E-03
  1.02578730000E-03  1.04373860000E-03  1.06200400000E-03  1.08058910000E-03
  1.09949940000E-03  1.11874060000E-03  1.13831860000E-03  1.15823920000E-03
  1.17850830000E-03  1.19913220000E-03  1.22011710000E-03  1.24146910000E-03
  1.26319480000E-03  1.28530070000E-03  1.30779350000E-03  1.33067990000E-03
  1.35396680000E-03  1.37766120000E-03  1.40177030000E-03  1.42630120000E-03
  1.45126150000E-03  1.47665860000E-03  1.50250010000E-03  1.52879390000E-03
  1.55554780000E-03  1.58276980000E-03  1.61046830000E-03  1.63865150000E-03
  1.66732790000E-03  1.69650620000E-03  1.72619500000E-03  1.75640340000E-03
  1.78714050000E-03  1.81841540000E-03  1.85023770000E-03  1.88261690000E-03
  1.91556270000E-03  1.94908500000E-03  1.98319400000E-03  2.01789990000E-03
  2.05321310000E-03  2.08914440000E-03  2.12570440000E-03  2.16290420000E-03
  2.20075510000E-03  2.23926830000E-03  2.27845550000E-03  2.31832840000E-03
  2.35889920000E-03  2.40017990000E-03  2.44218310000E-03  2.48492130000E-03
  2.52840740000E-03  2.57265450000E-03  2.61767600000E-03  2.66348530000E-03
  2.71009630000E-03  2.75752300000E-03  2.80577960000E-03  2.85488080000E-03
  2.90484120000E-03  2.95567590000E-03  3.00740020000E-03  3.06002970000E-03
  3.11358030000E-03  3.16806790000E-03  3.22350910000E-03  3.27992050000E-03
  3.33731910000E-03  3.39572220000E-03  3.45514740000E-03  3.51561240000E-03
  3.57713560000E-03  3.63973550000E-03  3.70343090000E-03  3.76824090000E-03
  3.83418510000E-03  3.90128340000E-03  3.96955580000E-03  4.03902310000E-03
  4.10970600000E-03  4.18162580000E-03  4.25480430000E-03  4.32926340000E-03
  4.40502550000E-03  4.48211340000E-03  4.56055040000E-03  4.64036000000E-03
  4.72156630000E-03  4.80419370000E-03  4.88826710000E-03  4.97381180000E-03
  5.06085350000E-03  5.14941850000E-03  5.23953330000E-03  5.33122510000E-03
  5.42452150000E-03  5.51945070000E-03  5.61604110000E-03  5.71432180000E-03
  5.81432240000E-03  5.91607310000E-03  6.01960430000E-03  6.12494740000E-03
  6.23213400000E-03  6.34119630000E-03  6.45216730000E-03  6.56508020000E-03
  6.67996910000E-03  6.79686860000E-03  6.91581380000E-03  7.03684050000E-03
  7.15998520000E-03  7.28528490000E-03  7.41277740000E-03  7.54250100000E-03
  7.67449480000E-03  7.80879850000E-03  7.94545240000E-03  8.08449790000E-03
  8.22597660000E-03  8.36993120000E-03  8.51640500000E-03  8.66544200000E-03
  8.81708730000E-03  8.97138630000E-03  9.12838560000E-03  9.28813230000E-03
  9.45067460000E-03  9.61606140000E-03  9.78434250000E-03  9.95556850000E-03
  1.01297910000E-02  1.03070620000E-02  1.04874360000E-02  1.06709660000E-02
  1.08577080000E-02  1.10477180000E-02  1.12410530000E-02  1.14377710000E-02
  1.16379320000E-02  1.18415960000E-02  1.20488240000E-02  1.22596780000E-02
  1.24742230000E-02  1.26925220000E-02  1.29146410000E-02  1.31406470000E-02
  1.33706080000E-02  1.36045940000E-02  1.38426740000E-02  1.40849210000E-02
  1.43314070000E-02  1.45822070000E-02  1.48373960000E-02  1.50970500000E-02
  1.53612480000E-02  1.56300700000E-02  1.59035960000E-02  1.61819090000E-02
  1.64650930000E-02  1.67532320000E-02  1.70464140000E-02  1.73447260000E-02
  1.76482580000E-02  1.79571030000E-02  1.82713520000E-02  1.85911010000E-02
  1.89164450000E-02  1.92474830000E-02  1.95843140000E-02  1.99270390000E-02
  2.02757630000E-02  2.06305890000E-02  2.09916240000E-02  2.13589770000E-02
  2.17327590000E-02  2.21130830000E-02  2.25000620000E-02  2.28938130000E-02
  2.32944540000E-02  2.37021070000E-02  2.41168940000E-02  2.45389400000E-02
  2.49683710000E-02  2.54053180000E-02  2.58499110000E-02  2.63022840000E-02
  2.67625740000E-02  2.72309190000E-02  2.77074600000E-02  2.81923410000E-02
  2.86857070000E-02  2.91877070000E-02  2.96984920000E-02  3.02182150000E-02
  3.07470340000E-02  3.12851070000E-02  3.18325960000E-02  3.23896670000E-02
  3.29564860000E-02  3.35332250000E-02  3.41200560000E-02  3.47171570000E-02
  3.53247070000E-02  3.59428900000E-02  3.65718900000E-02  3.72118980000E-02
  3.78631070000E-02  3.85257110000E-02  3.91999110000E-02  3.98859090000E-02
  4.05839130000E-02  4.12941310000E-02  4.20167780000E-02  4.27520720000E-02
  4.35002330000E-02  4.42614870000E-02  4.50360630000E-02  4.58241950000E-02
  4.66261180000E-02  4.74420750000E-02  4.82723110000E-02  4.91170770000E-02
  4.99766260000E-02  5.08512170000E-02  5.17411130000E-02  5.26465820000E-02
  5.35678980000E-02  5.45053360000E-02  5.54591790000E-02  5.64297150000E-02
  5.74172350000E-02  5.84220360000E-02  5.94444220000E-02  6.04846990000E-02
  6.15431820000E-02  6.26201870000E-02  6.37160410000E-02  6.48310710000E-02
  6.59656150000E-02  6.71200130000E-02  6.82946140000E-02  6.94897690000E-02
  7.07058400000E-02  7.19431920000E-02  7.32021980000E-02  7.44832370000E-02
  7.57866930000E-02  7.71129610000E-02  7.84624370000E-02  7.98355300000E-02
  8.12326520000E-02  8.26542230000E-02  8.41006720000E-02  8.55724340000E-02
  8.70699510000E-02  8.85936760000E-02  9.01440650000E-02  9.17215860000E-02
  9.33267140000E-02  9.49599310000E-02  9.66217300000E-02  9.83126100000E-02
  1.00033080000E-01  1.01783660000E-01  1.03564870000E-01  1.05377260000E-01
  1.07221360000E-01  1.09097740000E-01  1.11006950000E-01  1.12949570000E-01
  1.14926180000E-01  1.16937390000E-01  1.18983800000E-01  1.21066010000E-01
  1.23184670000E-01  1.25340400000E-01  1.27533860000E-01  1.29765700000E-01
  1.32036600000E-01  1.34347240000E-01  1.36698320000E-01  1.39090540000E-01
  1.41524620000E-01  1.44001300000E-01  1.46521330000E-01  1.49085450000E-01
  1.51694440000E-01  1.54349100000E-01  1.57050210000E-01  1.59798580000E-01
  1.62595060000E-01  1.65440470000E-01  1.68335680000E-01  1.71281560000E-01
  1.74278980000E-01  1.77328870000E-01  1.80432120000E-01  1.83589680000E-01
  1.86802500000E-01  1.90071550000E-01  1.93397800000E-01  1.96782260000E-01
  2.00225950000E-01  2.03729900000E-01  2.07295180000E-01  2.10922840000E-01
  2.14613990000E-01  2.18369740000E-01  2.22191210000E-01  2.26079550000E-01
  2.30035950000E-01  2.34061570000E-01  2.38157650000E-01  2.42325410000E-01
  2.46566110000E-01  2.50881010000E-01  2.55271430000E-01  2.59738680000E-01
  2.64284110000E-01  2.68909080000E-01  2.73614990000E-01  2.78403250000E-01
  2.83275310000E-01  2.88232630000E-01  2.93276700000E-01  2.98409040000E-01
  3.03631200000E-01  3.08944740000E-01  3.14351280000E-01  3.19852420000E-01
  3.25449840000E-01  3.31145210000E-01  3.36940250000E-01  3.42836710000E-01
  3.48836350000E-01  3.54940990000E-01  3.61152450000E-01  3.67472620000E-01
  3.73903390000E-01  3.80446700000E-01  3.87104520000E-01  3.93878850000E-01
  4.00771730000E-01  4.07785230000E-01  4.14921470000E-01  4.22182600000E-01
  4.29570800000E-01  4.37088290000E-01  4.44737330000E-01  4.52520230000E-01
  4.60439340000E-01  4.68497030000E-01  4.76695720000E-01  4.85037900000E-01
  4.93526060000E-01  5.02162770000E-01  5.10950620000E-01  5.19892250000E-01
  5.28990370000E-01  5.38247700000E-01  5.47667030000E-01  5.57251210000E-01
  5.67003100000E-01  5.76925660000E-01  5.87021860000E-01  5.97294740000E-01
  6.07747400000E-01  6.18382980000E-01  6.29204680000E-01  6.40215760000E-01
  6.51419540000E-01  6.62819380000E-01  6.74418720000E-01  6.86221040000E-01
  6.98229910000E-01  7.10448940000E-01  7.22881790000E-01  7.35532220000E-01
  7.48404040000E-01  7.61501110000E-01  7.74827380000E-01  7.88386860000E-01
  8.02183630000E-01  8.16221840000E-01  8.30505720000E-01  8.45039570000E-01
  8.59827760000E-01  8.74874750000E-01  8.90185060000E-01  9.05763300000E-01
  9.21614150000E-01  9.37742400000E-01  9.54152890000E-01  9.70850570000E-01
  9.87840450000E-01  1.00512770000E+00  1.02271740000E+00  1.04061500000E+00
  1.05882570000E+00  1.07735520000E+00  1.09620890000E+00  1.11539250000E+00
  1.13491190000E+00  1.15477290000E+00  1.17498140000E+00  1.19554360000E+00
  1.21646560000E+00  1.23775370000E+00  1.25941440000E+00  1.28145420000E+00
  1.30387960000E+00  1.32669750000E+00  1.34991470000E+00  1.37353820000E+00
  1.39757510000E+00  1.42203270000E+00  1.44691830000E+00  1.47223930000E+00
  1.49800350000E+00  1.52421860000E+00  1.55089240000E+00  1.57803300000E+00
  1.60564860000E+00  1.63374750000E+00  1.66233800000E+00  1.69142900000E+00
  1.72102900000E+00  1.75114700000E+00  1.78179200000E+00  1.81297340000E+00
  1.84470040000E+00  1.87698270000E+00  1.90982990000E+00  1.94325190000E+00
  1.97725880000E+00  2.01186090000E+00  2.04706840000E+00  2.08289210000E+00
  2.11934270000E+00  2.15643120000E+00  2.19416880000E+00  2.23256670000E+00
  2.27163670000E+00  2.31139030000E+00  2.35183960000E+00  2.39299680000E+00
  2.43487430000E+00  2.47748460000E+00  2.52084050000E+00  2.56495520000E+00
  2.60984200000E+00  2.65551420000E+00  2.70198570000E+00  2.74927040000E+00
  2.79738270000E+00  2.84633690000E+00  2.89614780000E+00  2.94683040000E+00
  2.99839990000E+00  3.05087190000E+00  3.10426210000E+00  3.15858670000E+00
  3.21386200000E+00  3.27010460000E+00  3.32733140000E+00  3.38555970000E+00
  3.44480700000E+00  3.50509110000E+00  3.56643020000E+00  3.62884280000E+00
  3.69234750000E+00  3.75696360000E+00  3.82271050000E+00  3.88960790000E+00
  3.95767600000E+00  4.02693540000E+00  4.09740670000E+00  4.16911130000E+00
  4.24207080000E+00  4.31630700000E+00  4.39184240000E+00  4.46869960000E+00
  4.54690190000E+00  4.62647270000E+00  4.70743590000E+00  4.78981610000E+00
  4.87363780000E+00  4.95892650000E+00  5.04570770000E+00  5.13400760000E+00
  5.22385270000E+00  5.31527020000E+00  5.40828740000E+00  5.50293240000E+00
  5.59923370000E+00  5.69722030000E+00  5.79692170000E+00  5.89836780000E+00
  6.00158930000E+00  6.10661710000E+00  6.21348290000E+00  6.32221880000E+00
  6.43285760000E+00  6.54543270000E+00  6.65997770000E+00  6.77652730000E+00
  6.89511660000E+00  7.01578110000E+00  7.13855730000E+00  7.26348200000E+00
  7.39059300000E+00  7.51992830000E+00  7.65152710000E+00  7.78542880000E+00
  7.92167380000E+00  8.06030310000E+00  8.20135840000E+00  8.34488220000E+00
  8.49091760000E+00  8.63950870000E+00  8.79070010000E+00  8.94453730000E+00
  9.10106670000E+00  9.26033540000E+00  9.42239130000E+00  9.58728310000E+00
  9.75506060000E+00  9.92577410000E+00  1.00994750000E+01  1.02762160000E+01
  1.04560500000E+01  1.06390310000E+01  1.08252140000E+01  1.10146550000E+01
  1.12074110000E+01  1.14035410000E+01  1.16031030000E+01  1.18061570000E+01
  1.20127650000E+01  1.22229880000E+01  1.24368910000E+01  1.26545360000E+01
  1.28759910000E+01  1.31013210000E+01  1.33305940000E+01  1.35638790000E+01
  1.38012470000E+01  1.40427690000E+01  1.42885170000E+01  1.45385660000E+01
  1.47929910000E+01  1.50518690000E+01  1.53152760000E+01  1.55832940000E+01
  1.58560010000E+01  1.61334810000E+01  1.64158170000E+01  1.67030940000E+01
  1.69953980000E+01  1.72928180000E+01  1.75954420000E+01  1.79033620000E+01
  1.82166710000E+01  1.85354630000E+01  1.88598330000E+01  1.91898800000E+01
  1.95257030000E+01  1.98674030000E+01  2.02150830000E+01  2.05688470000E+01
  2.09288010000E+01  2.12950550000E+01  2.16677190000E+01  2.20469040000E+01
  2.24327250000E+01  2.28252980000E+01  2.32247400000E+01  2.36311730000E+01
  2.40447190000E+01  2.44655010000E+01  2.48936480000E+01  2.53292860000E+01
  2.57725490000E+01  2.62235690000E+01  2.66824810000E+01  2.71494240000E+01
  2.76245390000E+01  2.81079690000E+01  2.85998580000E+01  2.91003560000E+01
  2.96096120000E+01  3.01277800000E+01  3.06550160000E+01  3.11914790000E+01
  3.17373300000E+01  3.22927330000E+01  3.28578560000E+01  3.34328690000E+01
  3.40179440000E+01  3.46132580000E+01  3.52189900000E+01  3.58353220000E+01
  3.64624400000E+01  3.71005330000E+01  3.77497920000E+01  3.84104140000E+01
  3.90825960000E+01  3.97665410000E+01  4.04624560000E+01  4.11705490000E+01
  4.18910330000E+01  4.26241260000E+01  4.33700490000E+01  4.41290250000E+01
  </PP_R>
  <PP_RAB>
  1.54898556268E-05  1.57609281011E-05  1.60367443871E-05  1.63173874113E-05
  1.66029416615E-05  1.68934931870E-05  1.71891292514E-05  1.74899395472E-05
  1.77960128994E-05  1.81074435111E-05  1.84243233302E-05  1.87467495089E-05
  1.90748174649E-05  1.94086260852E-05  1.97482777270E-05  2.00938730123E-05
  2.04455142980E-05  2.08033108806E-05  2.11673703217E-05  2.15377984479E-05
  2.19147097603E-05  2.22982170249E-05  2.26884364778E-05  2.30854843547E-05
  2.34894803612E-05  2.39005459379E-05  2.43188059950E-05  2.47443837076E-05
  2.51774109256E-05  2.56180160289E-05  2.60663308670E-05  2.65224924942E-05
  2.69866362300E-05  2.74589008633E-05  2.79394321229E-05  2.84283722674E-05
  2.89258687604E-05  2.94320725350E-05  2.99471327895E-05  3.04712073965E-05
  3.10044542285E-05  3.15470311583E-05  3.20991047327E-05  3.26608397638E-05
  3.32324045334E-05  3.38139707930E-05  3.44057154987E-05  3.50078156067E-05
  3.56204515427E-05  3.62438106722E-05  3.68780768905E-05  3.75234427677E-05
  3.81801043433E-05  3.88482559221E-05  3.95281004831E-05  4.02198410055E-05
  4.09236891426E-05  4.16398530780E-05  4.23685514047E-05  4.31100009805E-05
  4.38644256030E-05  4.46320525393E-05  4.54131142611E-05  4.62078432402E-05
  4.70164806227E-05  4.78392692894E-05  4.86764555912E-05  4.95282945529E-05
  5.03950394647E-05  5.12769522910E-05  5.21742984660E-05  5.30873486285E-05
  5.40163786217E-05  5.49616642891E-05  5.59234936180E-05  5.69021545958E-05
  5.78979421494E-05  5.89111564103E-05  5.99421027144E-05  6.09910881327E-05
  6.20584318801E-05  6.31444549064E-05  6.42494833660E-05  6.53738486180E-05
  6.65178906956E-05  6.76819548367E-05  6.88663880141E-05  7.00715510794E-05
  7.12978031496E-05  7.25455137505E-05  7.38150610826E-05  7.51068250809E-05
  7.64211943550E-05  7.77585644538E-05  7.91193396007E-05  8.05039274885E-05
  8.19127462196E-05  8.33462191006E-05  8.48047781127E-05  8.62888621764E-05
  8.77989171517E-05  8.93353993078E-05  9.08987683837E-05  9.24894962622E-05
  9.41080617659E-05  9.57549541263E-05  9.74306660447E-05  9.91357023665E-05
  1.00870576611E-04  1.02635812708E-04  1.04431938056E-04  1.06259497401E-04
  1.08119038961E-04  1.10011121363E-04  1.11936317110E-04  1.13895202178E-04
  1.15888368155E-04  1.17916415305E-04  1.19979952564E-04  1.22079601014E-04
  1.24215993880E-04  1.26389773061E-04  1.28601594337E-04  1.30852122160E-04
  1.33142034862E-04  1.35472021183E-04  1.37842780274E-04  1.40255030369E-04
  1.42709493171E-04  1.45206909466E-04  1.47748030451E-04  1.50333619466E-04
  1.52964458934E-04  1.55641336484E-04  1.58365060562E-04  1.61136448289E-04
  1.63956335870E-04  1.66825571652E-04  1.69745019598E-04  1.72715557550E-04
  1.75738080696E-04  1.78813491166E-04  1.81942734461E-04  1.85126730059E-04
  1.88366449483E-04  1.91662864257E-04  1.95016963254E-04  1.98429752695E-04
  2.01902273497E-04  2.05435566579E-04  2.09030690209E-04  2.12688720001E-04
  2.16410783618E-04  2.20197974022E-04  2.24051436226E-04  2.27972332586E-04
  2.31961842812E-04  2.36021181306E-04  2.40151545127E-04  2.44354200723E-04
  2.48630397197E-04  2.52981435697E-04  2.57408617371E-04  2.61913260715E-04
  2.66496736272E-04  2.71160431932E-04  2.75905735588E-04  2.80734087175E-04
  2.85646943979E-04  2.90645763287E-04  2.95732071778E-04  3.00907378784E-04
  3.06173245682E-04  3.11531285895E-04  3.16983078150E-04  3.22530287916E-04
  3.28174563314E-04  3.33917621859E-04  3.39761181065E-04  3.45706993146E-04
  3.51756879709E-04  3.57912627663E-04  3.64176093312E-04  3.70549167659E-04
  3.77033776401E-04  3.83631879936E-04  3.90345438659E-04  3.97176482361E-04
  4.04127058181E-04  4.11199282653E-04  4.18395272312E-04  4.25717195736E-04
  4.33167238855E-04  4.40747674339E-04  4.48460757512E-04  4.56308813092E-04
  4.64294217841E-04  4.72419365873E-04  4.80686703344E-04  4.89098728460E-04
  4.97657956772E-04  5.06366973227E-04  5.15228397471E-04  5.24244883844E-04
  5.33419173431E-04  5.42754007318E-04  5.52252195984E-04  5.61916619302E-04
  5.71750157147E-04  5.81755793485E-04  5.91936512281E-04  6.02295401593E-04
  6.12835566827E-04  6.23560200133E-04  6.34472493660E-04  6.45575760998E-04
  6.56873350434E-04  6.68368627604E-04  6.80065079585E-04  6.91966210801E-04
  7.04075629769E-04  7.16396945006E-04  7.28933886469E-04  7.41690236161E-04
  7.54669810783E-04  7.67876531127E-04  7.81314370032E-04  7.94987387078E-04
  8.08899659195E-04  8.23055402104E-04  8.37458866219E-04  8.52114406050E-04
  8.67026410801E-04  8.82199373771E-04  8.97637857651E-04  9.13346511876E-04
  9.29330089973E-04  9.45593362817E-04  9.62141240074E-04  9.78978718151E-04
  9.96110845502E-04  1.01354277467E-03  1.03127977965E-03  1.04932716911E-03
  1.06769040789E-03  1.08637497814E-03  1.10538655288E-03  1.12473080511E-03
  1.14441359866E-03  1.16444083209E-03  1.18481856005E-03  1.20555287193E-03
  1.22665004792E-03  1.24811642029E-03  1.26995846007E-03  1.29218274241E-03
  1.31479592917E-03  1.33780487306E-03  1.36121644416E-03  1.38503773805E-03
  1.40927590237E-03  1.43393822355E-03  1.45903214415E-03  1.48456521084E-03
  1.51054509170E-03  1.53697964568E-03  1.56387678376E-03  1.59124462509E-03
  1.61909141028E-03  1.64742550137E-03  1.67625545124E-03  1.70558991687E-03
  1.73543772871E-03  1.76580790804E-03  1.79670947617E-03  1.82815197484E-03
  1.86014459884E-03  1.89269723688E-03  1.92581943072E-03  1.95952124256E-03
  1.99381273463E-03  2.02870448958E-03  2.06420691660E-03  2.10033042487E-03
  2.13708629102E-03  2.17448527118E-03  2.21253881547E-03  2.25125820051E-03
  2.29065522335E-03  2.33074168109E-03  2.37152971776E-03  2.41303147741E-03
  2.45525945106E-03  2.49822647671E-03  2.54194556583E-03  2.58642955641E-03
  2.63169198040E-03  2.67774671670E-03  2.72460729726E-03  2.77228777446E-03
  2.82080289465E-03  2.87016688372E-03  2.92039483498E-03  2.97150184175E-03
  3.02350299733E-03  3.07641443597E-03  3.13025159795E-03  3.18503096449E-03
  3.24076901677E-03  3.29748258300E-03  3.35518849133E-03  3.41390426391E-03
  3.47364759633E-03  3.53443635771E-03  3.59628911107E-03  3.65922407249E-03
  3.72326049897E-03  3.78841764748E-03  3.85471494850E-03  3.92217235297E-03
  3.99081050577E-03  4.06064953132E-03  4.13171094192E-03  4.20401590292E-03
  4.27758627360E-03  4.35244391325E-03  4.42861172207E-03  4.50611242677E-03
  4.58496944802E-03  4.66520637996E-03  4.74684751070E-03  4.82991730180E-03
  4.91444090879E-03  5.00044366070E-03  5.08795140698E-03  5.17699051756E-03
  5.26758788285E-03  5.35977056671E-03  5.45356667393E-03  5.54900396235E-03
  5.64611157766E-03  5.74491849210E-03  5.84545454533E-03  5.94775009746E-03
  6.05183568209E-03  6.15774287376E-03  6.26550324697E-03  6.37514959066E-03
  6.48671469375E-03  6.60023221260E-03  6.71573632403E-03  6.83326172531E-03
  6.95284380767E-03  7.07451848279E-03  7.19832252979E-03  7.32429324822E-03
  7.45246845814E-03  7.58288667350E-03  7.71558710224E-03  7.85060981972E-03
  7.98799559522E-03  8.12778554503E-03  8.27002165284E-03  8.41474711677E-03
  8.56200513493E-03  8.71184029332E-03  8.86429752491E-03  9.01942263011E-03
  9.17726262372E-03  9.33786469405E-03  9.50127724379E-03  9.66754971656E-03
  9.83673172947E-03  1.00088746345E-02  1.01840299571E-02  1.03622504371E-02
  1.05435898553E-02  1.07281026864E-02  1.09158444462E-02  1.11068716910E-02
  1.13012420185E-02  1.14990137200E-02  1.17002464748E-02  1.19050006563E-02
  1.21133381990E-02  1.23253217315E-02  1.25410147499E-02  1.27604824851E-02
  1.29837910352E-02  1.32110073662E-02  1.34422000051E-02  1.36774385199E-02
  1.39167936932E-02  1.41603375216E-02  1.44081433901E-02  1.46602858977E-02
  1.49168408580E-02  1.51778856458E-02  1.54434986772E-02  1.57137599292E-02
  1.59887505935E-02  1.62685537701E-02  1.65532534264E-02  1.68429354381E-02
  1.71376867219E-02  1.74375969704E-02  1.77427543145E-02  1.80532533044E-02
  1.83691841529E-02  1.86906457474E-02  1.90177317704E-02  1.93505411092E-02
  1.96891761207E-02  2.00337374271E-02  2.03843273854E-02  2.07410535570E-02
  2.11040217687E-02  2.14733413169E-02  2.18491249678E-02  2.22314854875E-02
  2.26205356421E-02  2.30163951373E-02  2.34191819438E-02  2.38290175020E-02
  2.42460249873E-02  2.46703310448E-02  2.51020623195E-02  2.55413471914E-02
  2.59883209797E-02  2.64431172692E-02  2.69058713790E-02  2.73767238332E-02
  2.78558168906E-02  2.83432945449E-02  2.88393007899E-02  2.93439900284E-02
  2.98575097237E-02  3.03800160138E-02  3.09116650363E-02  3.14526198683E-02
  3.20030401175E-02  3.25630940656E-02  3.31329482594E-02  3.37127744506E-02
  3.43027478604E-02  3.49030471797E-02  3.55138493646E-02  3.61353417806E-02
  3.67677100579E-02  3.74111450316E-02  3.80658410065E-02  3.87319922873E-02
  3.94098035879E-02  4.00994744177E-02  4.08012146952E-02  4.15152360738E-02
  4.22417536766E-02  4.29809843616E-02  4.37331501914E-02  4.44984801679E-02
  4.52772050282E-02  4.60695555090E-02  4.68757727564E-02  4.76960979165E-02
  4.85307808098E-02  4.93800695217E-02  5.02442208120E-02  5.11234949104E-02
  5.20181555162E-02  5.29284732681E-02  5.38547205397E-02  5.47971783791E-02
  5.57561295689E-02  5.67318620965E-02  5.77246691541E-02  5.87348508730E-02
  5.97627108543E-02  6.08085579039E-02  6.18727077670E-02  6.29554813934E-02
  6.40572014677E-02  6.51782028186E-02  6.63188220099E-02  6.74794008095E-02
  6.86602896601E-02  6.98618459436E-02  7.10844270418E-02  7.23284042158E-02
  7.35941521960E-02  7.48820491829E-02  7.61924855207E-02  7.75258532886E-02
  7.88825567101E-02  8.02630017431E-02  8.16676030201E-02  8.30967873178E-02
  8.45509796776E-02  8.60306224898E-02  8.75361581449E-02  8.90680411770E-02
  9.06267313251E-02  9.22127004721E-02  9.38264222359E-02  9.54683841133E-02
  9.71390805403E-02  9.88390146276E-02  1.00568698160E-01  1.02328649862E-01
  1.04119402336E-01  1.05941491656E-01  1.07795467773E-01  1.09681887578E-01
  1.11601320108E-01  1.13554344806E-01  1.15541544586E-01  1.17563521447E-01
  1.19620884326E-01  1.21714249099E-01  1.23844248992E-01  1.26011522434E-01
  1.28216725204E-01  1.30460516551E-01  1.32743576540E-01  1.35066588709E-01
  1.37430253942E-01  1.39835283534E-01  1.42282400922E-01  1.44772343424E-01
  1.47305858766E-01  1.49883712023E-01  1.52506676944E-01  1.55175542893E-01
  1.57891114846E-01  1.60654209924E-01  1.63465659126E-01  1.66326307333E-01
  1.69237018505E-01  1.72198665279E-01  1.75212139375E-01  1.78278355067E-01
  1.81398230098E-01  1.84572701293E-01  1.87802722828E-01  1.91089266227E-01
  1.94433320363E-01  1.97835908804E-01  2.01298037772E-01  2.04820748185E-01
  2.08405115658E-01  2.12052198460E-01  2.15763124250E-01  2.19538968646E-01
  2.23380911353E-01  2.27290080034E-01  2.31267654396E-01  2.35314831496E-01
  2.39432843085E-01  2.43622920919E-01  2.47886314098E-01  2.52224323770E-01
  2.56638251085E-01  2.61129431885E-01  2.65699184669E-01  2.70348932024E-01
  2.75080027145E-01  2.79893927316E-01  2.84792072476E-01  2.89775937257E-01
  2.94847013644E-01  3.00006845664E-01  3.05256959998E-01  3.10598952721E-01
  3.16034437256E-01  3.21565044376E-01  3.27192422200E-01  3.32918288244E-01
  3.38744360023E-01  3.44672389749E-01  3.50704164334E-01  3.56841488033E-01
  3.63086199805E-01  3.69440207998E-01  3.75905420963E-01  3.82483764398E-01
  3.89177233398E-01  3.95987840404E-01  4.02917615207E-01  4.09968674340E-01
  4.17143134338E-01  4.24443129084E-01  4.31870896551E-01  4.39428622667E-01
  4.47118632152E-01  4.54943215024E-01  4.62904713349E-01  4.71005538590E-01
  4.79248136903E-01  4.87634989144E-01  4.96168593517E-01  5.04851552318E-01
  5.13686450493E-01  5.22675959734E-01  5.31822786427E-01  5.41129689006E-01
  5.50599460602E-01  5.60234946392E-01  5.70039060946E-01  5.80014753534E-01
  5.90165008121E-01  6.00492895416E-01  6.11001520826E-01  6.21694041802E-01
  6.32573685191E-01  6.43643729887E-01  6.54907489478E-01  6.66368381647E-01
  6.78029824076E-01  6.89895338537E-01  7.01968516200E-01  7.14252965580E-01
  7.26752381938E-01  7.39470547278E-01  7.52411295647E-01  7.65578495793E-01
  </PP_RAB>
</PP_MESH>


<PP_LOCAL>
 -4.04168480000E+01 -4.04168480000E+01 -4.03564360000E+01 -4.05871900000E+01
 -4.08353000000E+01 -4.07654820000E+01 -4.07830420000E+01 -4.07765180000E+01
 -4.07765620000E+01 -4.07747420000E+01 -4.07733760000E+01 -4.07718220000E+01
 -4.07702580000E+01 -4.07686300000E+01 -4.07669520000E+01 -4.07652160000E+01
 -4.07634240000E+01 -4.07615740000E+01 -4.07596620000E+01 -4.07576860000E+01
 -4.07556460000E+01 -4.07535380000E+01 -4.07513620000E+01 -4.07491140000E+01
 -4.07467920000E+01 -4.07443940000E+01 -4.07419180000E+01 -4.07393600000E+01
 -4.07367180000E+01 -4.07339920000E+01 -4.07311760000E+01 -4.07282680000E+01
 -4.07252660000E+01 -4.07221680000E+01 -4.07189680000E+01 -4.07156660000E+01
 -4.07122580000E+01 -4.07087400000E+01 -4.07051080000E+01 -4.07013620000E+01
 -4.06974960000E+01 -4.06935060000E+01 -4.06893920000E+01 -4.06851460000E+01
 -4.06807660000E+01 -4.06762500000E+01 -4.06715900000E+01 -4.06667860000E+01
 -4.06618320000E+01 -4.06567260000E+01 -4.06514600000E+01 -4.06460320000E+01
 -4.06404380000E+01 -4.06346740000E+01 -4.06287320000E+01 -4.06226120000E+01
 -4.06163060000E+01 -4.06098100000E+01 -4.06031200000E+01 -4.05962300000E+01
 -4.05891360000E+01 -4.05818320000E+01 -4.05743120000E+01 -4.05665720000E+01
 -4.05586060000E+01 -4.05504100000E+01 -4.05419780000E+01 -4.05333020000E+01
 -4.05243800000E+01 -4.05152020000E+01 -4.05057660000E+01 -4.04960660000E+01
 -4.04860920000E+01 -4.04758440000E+01 -4.04653100000E+01 -4.04544880000E+01
 -4.04433700000E+01 -4.04319500000E+01 -4.04202200000E+01 -4.04081780000E+01
 -4.03958140000E+01 -4.03831220000E+01 -4.03700960000E+01 -4.03567300000E+01
 -4.03430160000E+01 -4.03289480000E+01 -4.03145180000E+01 -4.02997220000E+01
 -4.02845520000E+01 -4.02690000000E+01 -4.02530620000E+01 -4.02367260000E+01
 -4.02199900000E+01 -4.02028460000E+01 -4.01852840000E+01 -4.01673000000E+01
 -4.01488880000E+01 -4.01300360000E+01 -4.01107420000E+01 -4.00909980000E+01
 -4.00707960000E+01 -4.00501280000E+01 -4.00289880000E+01 -4.00073700000E+01
 -3.99852660000E+01 -3.99626700000E+01 -3.99395740000E+01 -3.99159700000E+01
 -3.98918540000E+01 -3.98672160000E+01 -3.98420520000E+01 -3.98163540000E+01
 -3.97901160000E+01 -3.97633320000E+01 -3.97359940000E+01 -3.97080960000E+01
 -3.96796320000E+01 -3.96505940000E+01 -3.96209800000E+01 -3.95907800000E+01
 -3.95599920000E+01 -3.95286060000E+01 -3.94966200000E+01 -3.94640280000E+01
 -3.94308240000E+01 -3.93970040000E+01 -3.93625600000E+01 -3.93274920000E+01
 -3.92917940000E+01 -3.92554600000E+01 -3.92184880000E+01 -3.91808760000E+01
 -3.91426160000E+01 -3.91037100000E+01 -3.90641520000E+01 -3.90239400000E+01
 -3.89830740000E+01 -3.89415500000E+01 -3.88993660000E+01 -3.88565240000E+01
 -3.88130220000E+01 -3.87688580000E+01 -3.87240360000E+01 -3.86785540000E+01
 -3.86324120000E+01 -3.85856140000E+01 -3.85381600000E+01 -3.84900540000E+01
 -3.84413000000E+01 -3.83918980000E+01 -3.83418560000E+01 -3.82911740000E+01
 -3.82398620000E+01 -3.81879220000E+01 -3.81353620000E+01 -3.80821900000E+01
 -3.80284100000E+01 -3.79740340000E+01 -3.79190660000E+01 -3.78635200000E+01
 -3.78074020000E+01 -3.77507260000E+01 -3.76935000000E+01 -3.76357380000E+01
 -3.75774500000E+01 -3.75186520000E+01 -3.74593560000E+01 -3.73995780000E+01
 -3.73393300000E+01 -3.72786300000E+01 -3.72174940000E+01 -3.71559400000E+01
 -3.70939820000E+01 -3.70316420000E+01 -3.69689360000E+01 -3.69058840000E+01
 -3.68425080000E+01 -3.67788260000E+01 -3.67148580000E+01 -3.66506300000E+01
 -3.65861620000E+01 -3.65214740000E+01 -3.64565920000E+01 -3.63915400000E+01
 -3.63263400000E+01 -3.62610180000E+01 -3.61955960000E+01 -3.61301020000E+01
 -3.60645600000E+01 -3.59989960000E+01 -3.59334360000E+01 -3.58679060000E+01
 -3.58024320000E+01 -3.57370400000E+01 -3.56717580000E+01 -3.56066140000E+01
 -3.55416300000E+01 -3.54768360000E+01 -3.54122580000E+01 -3.53479240000E+01
 -3.52838580000E+01 -3.52200860000E+01 -3.51566380000E+01 -3.50935360000E+01
 -3.50308060000E+01 -3.49684760000E+01 -3.49065680000E+01 -3.48451080000E+01
 -3.47841200000E+01 -3.47236260000E+01 -3.46636520000E+01 -3.46042180000E+01
 -3.45453480000E+01 -3.44870600000E+01 -3.44293800000E+01 -3.43723260000E+01
 -3.43159140000E+01 -3.42601680000E+01 -3.42051020000E+01 -3.41507360000E+01
 -3.40970840000E+01 -3.40441620000E+01 -3.39919880000E+01 -3.39405700000E+01
 -3.38899260000E+01 -3.38400660000E+01 -3.37910000000E+01 -3.37427420000E+01
 -3.36952960000E+01 -3.36486760000E+01 -3.36028840000E+01 -3.35579320000E+01
 -3.35138200000E+01 -3.34705560000E+01 -3.34281420000E+01 -3.33865820000E+01
 -3.33458780000E+01 -3.33060280000E+01 -3.32670320000E+01 -3.32288900000E+01