<PP_INFO>
Generated using "atomic" code by A. Dal Corso  (espresso distribution)     
Author: anonymous   Generation date:  2Sep2007                             
Ni                                                                         
    1        The Pseudo was generated with a Scalar-Relativistic Calculation
   -1 1.7000000E+00    L component and cutoff radius for Local Potential
nl pn  l   occ               Rcut            Rcut US             E pseu
4S  1  0  1.00      2.00000000000      2.50000000000     -0.33018586862
4S  1  0  0.00      2.00000000000      2.50000000000      0.10000000000
4P  2  1  0.00      2.40000000000      2.60000000000     -0.05531181166
4P  2  1  0.00      2.40000000000      2.60000000000      0.30000000000
3D  3  2  9.00      1.60000000000      2.50000000000     -0.34138315956
3D  3  2  0.00      1.60000000000      2.50000000000     -0.25000000000
</PP_INFO>


<PP_HEADER>
   0                   Version Number
  Ni                   Element
   US                  Ultrasoft pseudopotential
    T                  Nonlinear Core Correction
 SLA  PW   PBX  PBC    PBE  Exchange-Correlation functional
   10.00000000000      Z valence
  -90.31856564834      Total energy
     22.738    371.451 Suggested cutoff for wfc and rho
    2                  Max angular momentum component
 1195                  Number of points in mesh
    2    6             Number of Wavefunctions, Number of Projectors
 Wavefunctions         nl  l   occ
                       3D  2  9.00
                       4S  0  1.00
</PP_HEADER>


<PP_MESH>
  <PP_R>
  3.25672130555E-05  3.29768581668E-05  3.33916559792E-05  3.38116713058E-05
  3.42369697748E-05  3.46676178400E-05  3.51036827910E-05  3.55452327639E-05
  3.59923367517E-05  3.64450646154E-05  3.69034870946E-05  3.73676758187E-05
  3.78377033181E-05  3.83136430357E-05  3.87955693380E-05  3.92835575269E-05
  3.97776838516E-05  4.02780255203E-05  4.07846607125E-05  4.12976685909E-05
  4.18171293140E-05  4.23431240486E-05  4.28757349825E-05  4.34150453373E-05
  4.39611393812E-05  4.45141024426E-05  4.50740209230E-05  4.56409823109E-05
  4.62150751952E-05  4.67963892790E-05  4.73850153938E-05  4.79810455137E-05
  4.85845727696E-05  4.91956914638E-05  4.98144970849E-05  5.04410863225E-05
  5.10755570824E-05  5.17180085021E-05  5.23685409658E-05  5.30272561206E-05
  5.36942568921E-05  5.43696475004E-05  5.50535334767E-05  5.57460216797E-05
  5.64472203120E-05  5.71572389373E-05  5.78761884975E-05  5.86041813298E-05
  5.93413311848E-05  6.00877532434E-05  6.08435641358E-05  6.16088819588E-05
  6.23838262950E-05  6.31685182310E-05  6.39630803765E-05  6.47676368834E-05
  6.55823134653E-05  6.64072374172E-05  6.72425376350E-05  6.80883446361E-05
  6.89447905796E-05  6.98120092868E-05  7.06901362626E-05  7.15793087160E-05
  7.24796655820E-05  7.33913475432E-05  7.43144970518E-05  7.52492583517E-05
  7.61957775013E-05  7.71542023962E-05  7.81246827922E-05  7.91073703289E-05
  8.01024185531E-05  8.11099829431E-05  8.21302209330E-05  8.31632919371E-05
  8.42093573747E-05  8.52685806957E-05  8.63411274059E-05  8.74271650929E-05
  8.85268634524E-05  8.96403943143E-05  9.07679316703E-05  9.19096517003E-05
  9.30657328003E-05  9.42363556104E-05  9.54217030428E-05  9.66219603105E-05
  9.78373149560E-05  9.90679568811E-05  1.00314078376E-04  1.01575874150E-04
  1.02853541360E-04  1.04147279646E-04  1.05457291156E-04  1.06783780583E-04
  1.08126955192E-04  1.09487024858E-04  1.10864202095E-04  1.12258702088E-04
  1.13670742732E-04  1.15100544662E-04  1.16548331285E-04  1.18014328822E-04
  1.19498766338E-04  1.21001875780E-04  1.22523892011E-04  1.24065052849E-04
  1.25625599104E-04  1.27205774615E-04  1.28805826286E-04  1.30426004130E-04
  1.32066561303E-04  1.33727754144E-04  1.35409842220E-04  1.37113088358E-04
  1.38837758696E-04  1.40584122715E-04  1.42352453290E-04  1.44143026726E-04
  1.45956122802E-04  1.47792024820E-04  1.49651019642E-04  1.51533397741E-04
  1.53439453241E-04  1.55369483968E-04  1.57323791493E-04  1.59302681181E-04
  1.61306462236E-04  1.63335447755E-04  1.65389954769E-04  1.67470304300E-04
  1.69576821408E-04  1.71709835238E-04  1.73869679080E-04  1.76056690412E-04
  1.78271210961E-04  1.80513586749E-04  1.82784168153E-04  1.85083309954E-04
  1.87411371399E-04  1.89768716253E-04  1.92155712854E-04  1.94572734176E-04
  1.97020157884E-04  1.99498366393E-04  2.02007746927E-04  2.04548691582E-04
  2.07121597387E-04  2.09726866363E-04  2.12364905588E-04  2.15036127262E-04
  2.17740948768E-04  2.20479792741E-04  2.23253087130E-04  2.26061265267E-04
  2.28904765938E-04  2.31784033443E-04  2.34699517676E-04  2.37651674186E-04
  2.40640964253E-04  2.43667854961E-04  2.46732819266E-04  2.49836336077E-04
  2.52978890323E-04  2.56160973036E-04  2.59383081422E-04  2.62645718942E-04
  2.65949395390E-04  2.69294626972E-04  2.72681936388E-04  2.76111852911E-04
  2.79584912472E-04  2.83101657745E-04  2.86662638228E-04  2.90268410332E-04
  2.93919537465E-04  2.97616590124E-04  3.01360145980E-04  3.05150789973E-04
  3.08989114397E-04  3.12875718999E-04  3.16811211069E-04  3.20796205535E-04
  3.24831325061E-04  3.28917200142E-04  3.33054469205E-04  3.37243778706E-04
  3.41485783234E-04  3.45781145610E-04  3.50130536994E-04  3.54534636986E-04
  3.58994133737E-04  3.63509724051E-04  3.68082113500E-04  3.72712016528E-04
  3.77400156566E-04  3.82147266147E-04  3.86954087016E-04  3.91821370248E-04
  3.96749876366E-04  4.01740375459E-04  4.06793647304E-04  4.11910481484E-04
  4.17091677514E-04  4.22338044968E-04  4.27650403600E-04  4.33029583478E-04
  4.38476425110E-04  4.43991779575E-04  4.49576508658E-04  4.55231484986E-04
  4.60957592160E-04  4.66755724895E-04  4.72626789162E-04  4.78571702326E-04
  4.84591393293E-04  4.90686802650E-04  4.96858882819E-04  5.03108598199E-04
  5.09436925321E-04  5.15844853000E-04  5.22333382486E-04  5.28903527625E-04
  5.35556315017E-04  5.42292784173E-04  5.49113987679E-04  5.56020991364E-04
  5.63014874459E-04  5.70096729774E-04  5.77267663863E-04  5.84528797199E-04
  5.91881264349E-04  5.99326214150E-04  6.06864809892E-04  6.14498229495E-04
  6.22227665696E-04  6.30054326236E-04  6.37979434047E-04  6.46004227442E-04
  6.54129960312E-04  6.62357902319E-04  6.70689339096E-04  6.79125572447E-04
  6.87667920550E-04  6.96317718164E-04  7.05076316839E-04  7.13945085123E-04
  7.22925408779E-04  7.32018691001E-04  7.41226352632E-04  7.50549832389E-04
  7.59990587085E-04  7.69550091856E-04  7.79229840394E-04  7.89031345181E-04
  7.98956137720E-04  8.09005768782E-04  8.19181808640E-04  8.29485847323E-04
  8.39919494857E-04  8.50484381522E-04  8.61182158101E-04  8.72014496144E-04
  8.82983088226E-04  8.94089648213E-04  9.05335911526E-04  9.16723635417E-04
  9.28254599241E-04  9.39930604735E-04  9.51753476298E-04  9.63725061279E-04
  9.75847230260E-04  9.88121877357E-04  1.00055092051E-03  1.01313630178E-03
  1.02587998765E-03  1.03878396936E-03  1.05185026318E-03  1.06508091075E-03
  1.07847797937E-03  1.09204356237E-03  1.10577977940E-03  1.11968877677E-03
  1.13377272779E-03  1.14803383310E-03  1.16247432104E-03  1.17709644795E-03
  1.19190249858E-03  1.20689478640E-03  1.22207565399E-03  1.23744747338E-03
  1.25301264646E-03  1.26877360531E-03  1.28473281262E-03  1.30089276205E-03
  1.31725597862E-03  1.33382501911E-03  1.35060247248E-03  1.36759096023E-03
  1.38479313685E-03  1.40221169021E-03  1.41984934201E-03  1.43770884815E-03
  1.45579299923E-03  1.47410462092E-03  1.49264657446E-03  1.51142175707E-03
  1.53043310239E-03  1.54968358101E-03  1.56917620084E-03  1.58891400764E-03
  1.60890008548E-03  1.62913755724E-03  1.64962958506E-03  1.67037937086E-03
  1.69139015683E-03  1.71266522595E-03  1.73420790250E-03  1.75602155256E-03
  1.77810958457E-03  1.80047544981E-03  1.82312264301E-03  1.84605470282E-03
  1.86927521244E-03  1.89278780012E-03  1.91659613974E-03  1.94070395141E-03
  1.96511500201E-03  1.98983310584E-03  2.01486212513E-03  2.04020597074E-03
  2.06586860267E-03  2.09185403078E-03  2.11816631534E-03  2.14480956769E-03
  2.17178795090E-03  2.19910568040E-03  2.22676702463E-03  2.25477630574E-03
  2.28313790024E-03  2.31185623968E-03  2.34093581136E-03  2.37038115902E-03
  2.40019688356E-03  2.43038764375E-03  2.46095815695E-03  2.49191319987E-03
  2.52325760930E-03  2.55499628286E-03  2.58713417979E-03  2.61967632170E-03
  2.65262779337E-03  2.68599374352E-03  2.71977938566E-03  2.75398999887E-03
  2.78863092861E-03  2.82370758761E-03  2.85922545667E-03  2.89519008552E-03
  2.93160709371E-03  2.96848217148E-03  3.00582108062E-03  3.04362965542E-03
  3.08191380355E-03  3.12067950698E-03  3.15993282293E-03  3.19967988482E-03
  3.23992690319E-03  3.28068016674E-03  3.32194604324E-03  3.36373098056E-03
  3.40604150770E-03  3.44888423575E-03  3.49226585898E-03  3.53619315585E-03
  3.58067299010E-03  3.62571231179E-03  3.67131815840E-03  3.71749765595E-03
  3.76425802007E-03  3.81160655716E-03  3.85955066553E-03  3.90809783654E-03
  3.95725565580E-03  4.00703180430E-03  4.05743405967E-03  4.10847029737E-03
  4.16014849191E-03  4.21247671812E-03  4.26546315238E-03  4.31911607394E-03
  4.37344386618E-03  4.42845501791E-03  4.48415812476E-03  4.54056189043E-03
  4.59767512814E-03  4.65550676193E-03  4.71406582814E-03  4.77336147672E-03
  4.83340297274E-03  4.89419969781E-03  4.95576115153E-03  5.01809695303E-03
  5.08121684238E-03  5.14513068219E-03  5.20984845915E-03  5.27538028553E-03
  5.34173640081E-03  5.40892717327E-03  5.47696310160E-03  5.54585481657E-03
  5.61561308263E-03  5.68624879966E-03  5.75777300463E-03  5.83019687336E-03
  5.90353172220E-03  5.97778900989E-03  6.05298033927E-03  6.12911745914E-03
  6.20621226609E-03  6.28427680633E-03  6.36332327760E-03  6.44336403109E-03
  6.52441157331E-03  6.60647856812E-03  6.68957783864E-03  6.77372236931E-03
  6.85892530788E-03  6.94519996749E-03  7.03255982872E-03  7.12101854173E-03
  7.21058992838E-03  7.30128798437E-03  7.39312688147E-03  7.48612096968E-03
  7.58028477953E-03  7.67563302429E-03  7.77218060233E-03  7.86994259940E-03
  7.96893429102E-03  8.06917114483E-03  8.17066882304E-03  8.27344318489E-03
  8.37751028906E-03  8.48288639627E-03  8.58958797173E-03  8.69763168778E-03
  8.80703442649E-03  8.91781328224E-03  9.02998556446E-03  9.14356880029E-03
  9.25858073735E-03  9.37503934649E-03  9.49296282460E-03  9.61236959747E-03
  9.73327832264E-03  9.85570789236E-03  9.97967743648E-03  1.01052063255E-02
  1.02323141736E-02  1.03610208416E-02  1.04913464401E-02  1.06233113329E-02
  1.07569361397E-02  1.08922417397E-02  1.10292492746E-02  1.11679801521E-02
  1.13084560493E-02  1.14506989157E-02  1.15947309771E-02  1.17405747388E-02
  1.18882529892E-02  1.20377888033E-02  1.21892055465E-02  1.23425268777E-02
  1.24977767540E-02  1.26549794332E-02  1.28141594788E-02  1.29753417628E-02
  1.31385514704E-02  1.33038141034E-02  1.34711554844E-02  1.36406017609E-02
  1.38121794091E-02  1.39859152385E-02  1.41618363955E-02  1.43399703684E-02
  1.45203449907E-02  1.47029884466E-02  1.48879292742E-02  1.50751963711E-02
  1.52648189982E-02  1.54568267842E-02  1.56512497309E-02  1.58481182172E-02
  1.60474630042E-02  1.62493152399E-02  1.64537064642E-02  1.66606686137E-02
  1.68702340265E-02  1.70824354476E-02  1.72973060341E-02  1.75148793599E-02
  1.77351894211E-02  1.79582706418E-02  1.81841578788E-02  1.84128864275E-02
  1.86444920272E-02  1.88790108666E-02  1.91164795900E-02  1.93569353021E-02
  1.96004155748E-02  1.98469584523E-02  2.00966024574E-02  2.03493865975E-02
  2.06053503707E-02  2.08645337718E-02  2.11269772988E-02  2.13927219590E-02
  2.16618092755E-02  2.19342812937E-02  2.22101805880E-02  2.24895502683E-02
  2.27724339865E-02  2.30588759439E-02  2.33489208975E-02  2.36426141675E-02
  2.39400016441E-02  2.42411297947E-02  2.45460456711E-02  2.48547969171E-02
  2.51674317757E-02  2.54839990967E-02  2.58045483444E-02  2.61291296052E-02
  2.64577935958E-02  2.67905916704E-02  2.71275758295E-02  2.74687987274E-02
  2.78143136811E-02  2.81641746779E-02  2.85184363843E-02  2.88771541543E-02
  2.92403840385E-02  2.96081827922E-02  2.99806078846E-02  3.03577175080E-02
  3.07395705866E-02  3.11262267856E-02  3.15177465209E-02  3.19141909682E-02
  3.23156220727E-02  3.27221025590E-02  3.31336959403E-02  3.35504665291E-02
  3.39724794465E-02  3.43998006329E-02  3.48324968582E-02  3.52706357319E-02
  3.57142857143E-02  3.61635161265E-02  3.66183971616E-02  3.70789998958E-02
  3.75453962991E-02  3.80176592471E-02  3.84958625316E-02  3.89800808730E-02
  3.94703899313E-02  3.99668663183E-02  4.04695876095E-02  4.09786323561E-02
  4.14940800974E-02  4.20160113732E-02  4.25445077362E-02  4.30796517650E-02
  4.36215270771E-02  4.41702183416E-02  4.47258112926E-02  4.52883927425E-02
  4.58580505960E-02  4.64348738632E-02  4.70189526738E-02  4.76103782915E-02
  4.82092431277E-02  4.88156407562E-02  4.94296659279E-02  5.00514145854E-02
  5.06809838783E-02  5.13184721781E-02  5.19639790935E-02  5.26176054864E-02
  5.32794534872E-02  5.39496265110E-02  5.46282292737E-02  5.53153678084E-02
  5.60111494818E-02  5.67156830113E-02  5.74290784816E-02  5.81514473623E-02
  5.88829025250E-02  5.96235582610E-02  6.03735302993E-02  6.11329358245E-02
  6.19018934953E-02  6.26805234629E-02  6.34689473898E-02  6.42672884689E-02
  6.50756714425E-02  6.58942226222E-02  6.67230699083E-02  6.75623428098E-02
  6.84121724648E-02  6.92726916609E-02  7.01440348561E-02  7.10263381994E-02
  7.19197395525E-02  7.28243785113E-02  7.37403964274E-02  7.46679364304E-02
  7.56071434505E-02  7.65581642405E-02  7.75211473994E-02  7.84962433953E-02
  7.94836045890E-02  8.04833852576E-02  8.14957416189E-02  8.25208318556E-02
  8.35588161402E-02  8.46098566598E-02  8.56741176417E-02  8.67517653787E-02
  8.78429682556E-02  8.89478967750E-02  9.00667235842E-02  9.11996235022E-02
  9.23467735470E-02  9.35083529630E-02  9.46845432494E-02  9.58755281883E-02
  9.70814938735E-02  9.83026287397E-02  9.95391235916E-02  1.00791171634E-01
  1.02058968502E-01  1.03342712292E-01  1.04642603590E-01  1.05958845509E-01
  1.07291643712E-01  1.08641206454E-01  1.10007744604E-01  1.11391471689E-01
  1.12792603917E-01  1.14211360220E-01  1.15647962280E-01  1.17102634569E-01
  1.18575604383E-01  1.20067101877E-01  1.21577360100E-01  1.23106615032E-01
  1.24655105624E-01  1.26223073829E-01  1.27810764646E-01  1.29418426156E-01
  1.31046309558E-01  1.32694669212E-01  1.34363762679E-01  1.36053850756E-01
  1.37765197525E-01  1.39498070386E-01  1.41252740104E-01  1.43029480851E-01
  1.44828570244E-01  1.46650289397E-01  1.48494922956E-01  1.50362759148E-01
  1.52254089827E-01  1.54169210518E-01  1.56108420462E-01  1.58072022664E-01
  1.60060323941E-01  1.62073634969E-01  1.64112270332E-01  1.66176548572E-01
  1.68266792235E-01  1.70383327927E-01  1.72526486361E-01  1.74696602409E-01
  1.76894015157E-01  1.79119067954E-01  1.81372108471E-01  1.83653488748E-01
  1.85963565256E-01  1.88302698950E-01  1.90671255324E-01  1.93069604469E-01
  1.95498121133E-01  1.97957184776E-01  2.00447179632E-01  2.02968494767E-01
  2.05521524143E-01  2.08106666675E-01  2.10724326297E-01  2.13374912024E-01
  2.16058838015E-01  2.18776523639E-01  2.21528393539E-01  2.24314877702E-01
  2.27136411521E-01  2.29993435867E-01  2.32886397155E-01  2.35815747416E-01
  2.38781944367E-01  2.41785451483E-01  2.44826738068E-01  2.47906279328E-01
  2.51024556450E-01  2.54182056668E-01  2.57379273351E-01  2.60616706068E-01
  2.63894860676E-01  2.67214249393E-01  2.70575390880E-01  2.73978810322E-01
  2.77425039511E-01  2.80914616927E-01  2.84448087823E-01  2.88026004311E-01
  2.91648925449E-01  2.95317417324E-01  2.99032053147E-01  3.02793413337E-01
  3.06602085613E-01  3.10458665090E-01  3.14363754364E-01  3.18317963614E-01
  3.22321910694E-01  3.26376221228E-01  3.30481528711E-01  3.34638474605E-01
  3.38847708441E-01  3.43109887922E-01  3.47425679020E-01  3.51795756088E-01
  3.56220801958E-01  3.60701508053E-01  3.65238574493E-01  3.69832710203E-01
  3.74484633026E-01  3.79195069835E-01  3.83964756646E-01  3.88794438730E-01
  3.93684870737E-01  3.98636816806E-01  4.03651050689E-01  4.08728355869E-01
  4.13869525687E-01  4.19075363460E-01  4.24346682611E-01  4.29684306794E-01
  4.35089070025E-01  4.40561816808E-01  4.46103402272E-01  4.51714692299E-01
  4.57396563667E-01  4.63149904177E-01  4.68975612803E-01  4.74874599823E-01
  4.80847786964E-01  4.86896107551E-01  4.93020506645E-01  4.99221941197E-01
  5.05501380192E-01  5.11859804806E-01  5.18298208557E-01  5.24817597457E-01
  5.31418990174E-01  5.38103418190E-01  5.44871925959E-01  5.51725571076E-01
  5.58665424435E-01  5.65692570404E-01  5.72808106988E-01  5.80013146004E-01
  5.87308813253E-01  5.94696248700E-01  6.02176606646E-01  6.09751055912E-01
  6.17420780020E-01  6.25186977382E-01  6.33050861481E-01  6.41013661065E-01
  6.49076620337E-01  6.57240999152E-01  6.65508073211E-01  6.73879134259E-01
  6.82355490294E-01  6.90938465762E-01  6.99629401771E-01  7.08429656298E-01
  7.17340604400E-01  7.26363638430E-01  7.35500168257E-01  7.44751621482E-01
  7.54119443662E-01  7.63605098540E-01  7.73210068268E-01  7.82935853643E-01
  7.92783974337E-01  8.02755969141E-01  8.12853396197E-01  8.23077833251E-01
  8.33430877891E-01  8.43914147801E-01  8.54529281013E-01  8.65277936165E-01
  8.76161792754E-01  8.87182551406E-01  8.98341934136E-01  9.09641684622E-01
  9.21083568471E-01  9.32669373502E-01  9.44400910020E-01  9.56280011102E-01
  9.68308532881E-01  9.80488354838E-01  9.92821380095E-01  1.00530953571E+00
  1.01795477299E+00  1.03075906777E+00  1.04372442076E+00  1.05685285781E+00
  1.07014643026E+00  1.08360721528E+00  1.09723731613E+00  1.11103886253E+00
  1.12501401103E+00  1.13916494525E+00  1.15349387631E+00  1.16800304313E+00
  1.18269471281E+00  1.19757118094E+00  1.21263477201E+00  1.22788783973E+00
  1.24333276741E+00  1.25897196838E+00  1.27480788627E+00  1.29084299549E+00
  1.30707980156E+00  1.32352084150E+00  1.34016868427E+00  1.35702593112E+00
  1.37409521604E+00  1.39137920612E+00  1.40888060204E+00  1.42660213842E+00
  1.44454658429E+00  1.46271674350E+00  1.48111545517E+00  1.49974559415E+00
  1.51861007143E+00  1.53771183462E+00  1.55705386842E+00  1.57663919505E+00
  1.59647087476E+00  1.61655200629E+00  1.63688572737E+00  1.65747521517E+00
  1.67832368684E+00  1.69943440001E+00  1.72081065325E+00  1.74245578667E+00
  1.76437318234E+00  1.78656626491E+00  1.80903850210E+00  1.83179340524E+00
  1.85483452982E+00  1.87816547606E+00  1.90178988949E+00  1.92571146146E+00
  1.94993392976E+00  1.97446107920E+00  1.99929674220E+00  2.02444479939E+00
  2.04990918019E+00  2.07569386348E+00  2.10180287816E+00  2.12824030381E+00
  2.15501027133E+00  2.18211696360E+00  2.20956461608E+00  2.23735751753E+00
  2.26550001065E+00  2.29399649275E+00  2.32285141646E+00  2.35206929044E+00
  2.38165468003E+00  2.41161220801E+00  2.44194655531E+00  2.47266246172E+00
  2.50376472667E+00  2.53525820995E+00  2.56714783249E+00  2.59943857710E+00
  2.63213548927E+00  2.66524367797E+00  2.69876831642E+00  2.73271464291E+00
  2.76708796162E+00  2.80189364345E+00  2.83713712687E+00  2.87282391873E+00
  2.90895959518E+00  2.94554980248E+00  2.98260025793E+00  3.02011675074E+00
  3.05810514294E+00  3.09657137028E+00  3.13552144321E+00  3.17496144773E+00
  3.21489754645E+00  3.25533597944E+00  3.29628306531E+00  3.33774520211E+00
  3.37972886839E+00  3.42224062418E+00  3.46528711203E+00  3.50887505805E+00
  3.55301127293E+00  3.59770265305E+00  3.64295618152E+00  3.68877892932E+00
  3.73517805633E+00  3.78216081250E+00  3.82973453900E+00  3.87790666931E+00
  3.92668473043E+00  3.97607634403E+00  4.02608922765E+00  4.07673119589E+00
  4.12801016169E+00  4.17993413746E+00  4.23251123645E+00  4.28574967394E+00
  4.33965776853E+00  4.39424394347E+00  4.44951672797E+00  4.50548475851E+00
  4.56215678022E+00  4.61954164820E+00  4.67764832896E+00  4.73648590179E+00
  4.79606356018E+00  4.85639061325E+00  4.91747648724E+00  4.97933072694E+00
  5.04196299720E+00  5.10538308443E+00  5.16960089815E+00  5.23462647253E+00
  5.30046996795E+00  5.36714167258E+00  5.43465200402E+00  5.50301151090E+00
  5.57223087451E+00  5.64232091054E+00  5.71329257069E+00  5.78515694443E+00
  5.85792526071E+00  5.93160888973E+00  6.00621934471E+00  6.08176828368E+00
  6.15826751132E+00  6.23572898078E+00  6.31416479559E+00  6.39358721149E+00
  6.47400863840E+00  6.55544164233E+00  6.63789894736E+00  6.72139343760E+00
  6.80593815924E+00  6.89154632256E+00  6.97823130402E+00  7.06600664832E+00
  7.15488607053E+00  7.24488345825E+00  7.33601287374E+00  7.42828855618E+00
  7.52172492381E+00  7.61633657627E+00  7.71213829681E+00  7.80914505465E+00
  7.90737200729E+00  8.00683450290E+00  8.10754808269E+00  8.20952848336E+00
  8.31279163956E+00  8.41735368636E+00  8.52323096181E+00  8.63044000943E+00
  8.73899758087E+00  8.84892063845E+00  8.96022635789E+00  9.07293213092E+00
  9.18705556806E+00  9.30261450133E+00  9.41962698703E+00  9.53811130862E+00
  9.65808597951E+00  9.77956974597E+00  9.90258159011E+00  1.00271407328E+01
  1.01532666366E+01  1.02809790089E+01  1.04102978052E+01  1.05412432317E+01
  1.06738357488E+01  1.08080960745E+01  1.09440451873E+01  1.10817043293E+01
  1.12210950102E+01  1.13622390100E+01  1.15051583828E+01  1.16498754600E+01
  1.17964128539E+01  1.19447934614E+01  1.20950404671E+01  1.22471773475E+01
  1.24012278742E+01  1.25572161181E+01  1.27151664525E+01  1.28751035576E+01
  1.30370524238E+01  1.32010383559E+01  1.33670869772E+01  1.35352242329E+01
  1.37054763950E+01  1.38778700657E+01  1.40524321818E+01  1.42291900191E+01
  1.44081711962E+01  1.45894036793E+01  1.47729157865E+01  1.49587361919E+01
  1.51468939302E+01  1.53374184015E+01  1.55303393756E+01  1.57256869968E+01
  1.59234917887E+01  1.61237846585E+01  1.63265969025E+01  1.65319602104E+01
  1.67399066708E+01  1.69504687757E+01  1.71636794257E+01  1.73795719357E+01
  1.75981800390E+01  1.78195378939E+01  1.80436800877E+01  1.82706416433E+01
  1.85004580239E+01  1.87331651386E+01  1.89687993485E+01  1.92073974719E+01
  1.94489967902E+01  1.96936350539E+01  1.99413504880E+01  2.01921817988E+01
  2.04461681791E+01  2.07033493147E+01  2.09637653908E+01  2.12274570979E+01
  2.14944656383E+01  2.17648327327E+01  2.20386006265E+01  2.23158120965E+01
  2.25965104576E+01  2.28807395694E+01  2.31685438432E+01  2.34599682492E+01
  2.37550583230E+01  2.40538601730E+01  2.43564204875E+01  2.46627865423E+01
  2.49730062077E+01  2.52871279561E+01  2.56052008697E+01  2.59272746480E+01
  2.62533996158E+01  2.65836267306E+01  2.69180075912E+01  2.72565944453E+01
  2.75994401977E+01  2.79465984188E+01  2.82981233527E+01  2.86540699260E+01
  2.90144937560E+01  2.93794511597E+01  2.97489991624E+01  3.01231955067E+01
  3.05020986616E+01  3.08857678316E+01  3.12742629655E+01  3.16676447667E+01
  3.20659747018E+01  3.24693150107E+01  3.28777287161E+01  3.32912796335E+01
  3.37100323811E+01  3.41340523899E+01  3.45634059137E+01  3.49981600401E+01
  3.54383827002E+01  3.58841426797E+01  3.63355096294E+01  3.67925540765E+01
  3.72553474350E+01  3.77239620174E+01  3.81984710455E+01  3.86789486625E+01
  3.91654699439E+01  3.96581109096E+01  4.01569485359E+01  4.06620607671E+01
  4.11735265280E+01  4.16914257362E+01  4.22158393144E+01  4.27468492035E+01
  4.32845383747E+01  4.38289908431E+01  4.43802916805E+01  4.49385270288E+01
  4.55037841133E+01  4.60761512567E+01  4.66557178925E+01  4.72425745791E+01
  4.78368130141E+01  4.84385260484E+01  4.90478077010E+01  4.96647531734E+01
  5.02894588645E+01  5.09220223858E+01  5.15625425767E+01  5.22111195198E+01
  5.28678545566E+01  5.35328503032E+01  5.42062106666E+01  5.48880408606E+01
  5.55784474228E+01  5.62775382304E+01  5.69854225178E+01  5.77022108935E+01
  5.84280153570E+01  5.91629493168E+01  5.99071276078E+01  6.06606665093E+01
  6.14236837634E+01  6.21962985931E+01  6.29786317210E+01  6.37708053881E+01
  6.45729433734E+01  6.53851710125E+01  6.62076152175E+01  6.70404044972E+01
  6.78836689764E+01  6.87375404170E+01  6.96021522382E+01  7.04776395372E+01
  7.13641391109E+01  7.22617894764E+01  7.31707308936E+01  7.40911053863E+01
  7.50230567650E+01  7.59667306490E+01  7.69222744891E+01  7.78898375912E+01
  7.88695711388E+01  7.98616282174E+01  8.08661638379E+01  8.18833349610E+01
  8.29133005218E+01  8.39562214545E+01  8.50122607176E+01  8.60815833194E+01
  8.71643563437E+01  8.82607489761E+01  8.93709325300E+01  9.04950804740E+01
  9.16333684584E+01  9.27859743430E+01  9.39530782250E+01  9.51348624665E+01
  9.63315117239E+01  9.75432129759E+01  9.87701555535E+01
  </PP_R>
  <PP_RAB>
  4.07090163194E-07  4.12210727084E-07  4.17395699740E-07  4.22645891322E-07
  4.27962122185E-07  4.33345223000E-07  4.38796034888E-07  4.44315409549E-07
  4.49904209397E-07  4.55563307692E-07  4.61293588682E-07  4.67095947733E-07
  4.72971291477E-07  4.78920537947E-07  4.84944616725E-07  4.91044469086E-07
  4.97221048145E-07  5.03475319004E-07  5.09808258906E-07  5.16220857386E-07
  5.22714116425E-07  5.29289050608E-07  5.35946687282E-07  5.42688066716E-07
  5.49514242265E-07  5.56426280532E-07  5.63425261538E-07  5.70512278887E-07
  5.77688439940E-07  5.84954865987E-07  5.92312692423E-07  5.99763068921E-07
  6.07307159620E-07  6.14946143297E-07  6.22681213561E-07  6.30513579031E-07
  6.38444463530E-07  6.46475106276E-07  6.54606762073E-07  6.62840701508E-07
  6.71178211151E-07  6.79620593755E-07  6.88169168459E-07  6.96825270997E-07
  7.05590253900E-07  7.14465486716E-07  7.23452356218E-07  7.32552266623E-07
  7.41766639810E-07  7.51096915543E-07  7.60544551698E-07  7.70111024486E-07
  7.79797828688E-07  7.89606477888E-07  7.99538504706E-07  8.09595461042E-07
  8.19778918316E-07  8.30090467715E-07  8.40531720437E-07  8.51104307951E-07
  8.61809882245E-07  8.72650116086E-07  8.83626703283E-07  8.94741358950E-07
  9.05995819775E-07  9.17391844290E-07  9.28931213147E-07  9.40615729396E-07
  9.52447218767E-07  9.64427529953E-07  9.76558534903E-07  9.88842129111E-07
  1.00128023191E-06  1.01387478679E-06  1.02662776166E-06  1.03954114921E-06
  1.05261696718E-06  1.06585725870E-06  1.07926409257E-06  1.09283956366E-06
  1.10658579315E-06  1.12050492893E-06  1.13459914588E-06  1.14887064625E-06
  1.16332166000E-06  1.17795444513E-06  1.19277128804E-06  1.20777450388E-06
  1.22296643695E-06  1.23834946101E-06  1.25392597970E-06  1.26969842687E-06
  1.28566926700E-06  1.30184099558E-06  1.31821613945E-06  1.33479725728E-06
  1.35158693990E-06  1.36858781073E-06  1.38580252618E-06  1.40323377610E-06
  1.42088428416E-06  1.43875680827E-06  1.45685414106E-06  1.47517911028E-06
  1.49373457923E-06  1.51252344725E-06  1.53154865013E-06  1.55081316061E-06
  1.57031998880E-06  1.59007218268E-06  1.61007282858E-06  1.63032505163E-06
  1.65083201629E-06  1.67159692681E-06  1.69262302774E-06  1.71391360448E-06
  1.73547198369E-06  1.75730153394E-06  1.77940566613E-06  1.80178783407E-06
  1.82445153503E-06  1.84740031025E-06  1.87063774553E-06  1.89416747176E-06
  1.91799316551E-06  1.94211854960E-06  1.96654739366E-06  1.99128351476E-06
  2.01633077795E-06  2.04169309693E-06  2.06737443461E-06  2.09337880376E-06
  2.11971026759E-06  2.14637294048E-06  2.17337098850E-06  2.20070863015E-06
  2.22839013701E-06  2.25641983437E-06  2.28480210191E-06  2.31354137443E-06
  2.34264214249E-06  2.37210895316E-06  2.40194641067E-06  2.43215917720E-06
  2.46275197355E-06  2.49372957991E-06  2.52509683659E-06  2.55685864478E-06
  2.58901996734E-06  2.62158582954E-06  2.65456131985E-06  2.68795159078E-06
  2.72176185961E-06  2.75599740926E-06  2.79066358912E-06  2.82576581584E-06
  2.86130957422E-06  2.89730041804E-06  2.93374397095E-06  2.97064592732E-06
  3.00801205316E-06  3.04584818701E-06  3.08416024083E-06  3.12295420096E-06
  3.16223612904E-06  3.20201216295E-06  3.24228851777E-06  3.28307148678E-06
  3.32436744238E-06  3.36618283715E-06  3.40852420485E-06  3.45139816138E-06
  3.49481140590E-06  3.53877072182E-06  3.58328297785E-06  3.62835512915E-06
  3.67399421831E-06  3.72020737655E-06  3.76700182476E-06  3.81438487466E-06
  3.86236392996E-06  3.91094648749E-06  3.96014013836E-06  4.00995256919E-06
  4.06039156326E-06  4.11146500177E-06  4.16318086506E-06  4.21554723382E-06
  4.26857229042E-06  4.32226432012E-06  4.37663171242E-06  4.43168296233E-06
  4.48742667171E-06  4.54387155064E-06  4.60102641875E-06  4.65890020660E-06
  4.71750195708E-06  4.77684082684E-06  4.83692608769E-06  4.89776712809E-06
  4.95937345457E-06  5.02175469324E-06  5.08492059130E-06  5.14888101855E-06
  5.21364596893E-06  5.27922556210E-06  5.34563004500E-06  5.41286979348E-06
  5.48095531387E-06  5.54989724468E-06  5.61970635823E-06  5.69039356233E-06
  5.76196990200E-06  5.83444656119E-06  5.90783486453E-06  5.98214627908E-06
  6.05739241616E-06  6.13358503313E-06  6.21073603524E-06  6.28885747749E-06
  6.36796156652E-06  6.44806066249E-06  6.52916728107E-06  6.61129409531E-06
  6.69445393771E-06  6.77865980216E-06  6.86392484599E-06  6.95026239205E-06
  7.03768593074E-06  7.12620912218E-06  7.21584579829E-06  7.30660996499E-06
  7.39851580436E-06  7.49157767688E-06  7.58581012365E-06  7.68122786868E-06
  7.77784582120E-06  7.87567907795E-06  7.97474292559E-06  8.07505284303E-06
  8.17662450390E-06  8.27947377899E-06  8.38361673870E-06  8.48906965558E-06
  8.59584900687E-06  8.70397147705E-06  8.81345396049E-06  8.92431356404E-06
  9.03656760973E-06  9.15023363751E-06  9.26532940790E-06  9.38187290487E-06
  9.49988233856E-06  9.61937614820E-06  9.74037300493E-06  9.86289181476E-06
  9.98695172150E-06  1.01125721098E-05  1.02397726080E-05  1.03685730915E-05
  1.04989936857E-05  1.06310547690E-05  1.07647769763E-05  1.09001812018E-05
  1.10372886028E-05  1.11761206027E-05  1.13166988941E-05  1.14590454427E-05
  1.16031824905E-05  1.17491325592E-05  1.18969184537E-05  1.20465632660E-05
  1.21980903783E-05  1.23515234670E-05  1.25068865063E-05  1.26642037722E-05
  1.28234998456E-05  1.29847996170E-05  1.31481282898E-05  1.33135113843E-05