<PP_INFO>
Generated using Andrea Dal Corso code (rrkj3)                                   
Author: Andrea Dal Corso   Generation date: unknown                             
Info:      Ni                                                                   
    T        The Pseudo was generated with a Relativistic Calculation
  1.70000000000E+00    Local Potential cutoff radius
nl pn  l   occ               Rcut            Rcut US             E pseu
4S  1  0  1.00      2.00000000000      2.50000000000      0.00000000000
4S  1  0  0.00      2.00000000000      2.50000000000      0.00000000000
4P  2  1  0.00      2.40000000000      2.60000000000      0.00000000000
4P  2  1  0.00      2.40000000000      2.60000000000      0.00000000000
3D  3  2  9.00      1.60000000000      2.50000000000      0.00000000000
3D  3  2  0.00      1.60000000000      2.50000000000      0.00000000000
</PP_INFO>


<PP_HEADER>
   0                   Version Number
  Ni                   Element
   US                  Ultrasoft pseudopotential
    T                  Nonlinear Core Correction
 SLA  PZ   NOGX NOGC   PZ   Exchange-Correlation functional
   10.00000000000      Z valence
  -73.05868500700      Total energy
  0.0000000  0.0000000 Suggested cutoff for wfc and rho
    2                  Max angular momentum component
 1203                  Number of points in mesh
    2    6             Number of Wavefunctions, Number of Projectors
 Wavefunctions         nl  l   occ
                       4S  0  1.00
                       3D  2  9.00
</PP_HEADER>


<PP_MESH>
  <PP_R>
  3.25672130555E-05  3.29603738591E-05  3.33582810134E-05  3.37609918179E-05
  3.41685642635E-05  3.45810570415E-05  3.49985295514E-05  3.54210419100E-05
  3.58486549599E-05  3.62814302780E-05  3.67194301848E-05  3.71627177530E-05
  3.76113568168E-05  3.80654119809E-05  3.85249486301E-05  3.89900329386E-05
  3.94607318791E-05  3.99371132332E-05  4.04192456006E-05  4.09071984093E-05
  4.14010419252E-05  4.19008472626E-05  4.24066863945E-05  4.29186321625E-05
  4.34367582877E-05  4.39611393812E-05  4.44918509547E-05  4.50289694316E-05
  4.55725721579E-05  4.61227374134E-05  4.66795444227E-05  4.72430733671E-05
  4.78134053957E-05  4.83906226374E-05  4.89748082122E-05  4.95660462441E-05
  5.01644218723E-05  5.07700212640E-05  5.13829316264E-05  5.20032412198E-05
  5.26310393698E-05  5.32664164804E-05  5.39094640470E-05  5.45602746696E-05
  5.52189420660E-05  5.58855610855E-05  5.65602277224E-05  5.72430391298E-05
  5.79340936337E-05  5.86334907473E-05  5.93413311848E-05  6.00577168765E-05
  6.07827509833E-05  6.15165379113E-05  6.22591833270E-05  6.30107941727E-05
  6.37714786816E-05  6.45413463936E-05  6.53205081711E-05  6.61090762146E-05
  6.69071640794E-05  6.77148866913E-05  6.85323603640E-05  6.93597028150E-05
  7.01970331831E-05  7.10444720452E-05  7.19021414341E-05  7.27701648555E-05
  7.36486673065E-05  7.45377752928E-05  7.54376168476E-05  7.63483215495E-05
  7.72700205417E-05  7.82028465504E-05  7.91469339041E-05  8.01024185531E-05
  8.10694380887E-05  8.20481317635E-05  8.30386405111E-05  8.40411069664E-05
  8.50556754863E-05  8.60824921705E-05  8.71217048823E-05  8.81734632701E-05
  8.92379187890E-05  9.03152247225E-05  9.14055362043E-05  9.25090102413E-05
  9.36258057357E-05  9.47560835079E-05  9.59000063198E-05  9.70577388983E-05
  9.82294479590E-05  9.94153022299E-05  1.00615472476E-04  1.01830131524E-04
  1.03059454287E-04  1.04303617790E-04  1.05562801194E-04  1.06837185823E-04
  1.08126955192E-04  1.09432295029E-04  1.10753393306E-04  1.12090440263E-04
  1.13443628437E-04  1.14813152690E-04  1.16199210234E-04  1.17602000666E-04
  1.19021725990E-04  1.20458590647E-04  1.21912801550E-04  1.23384568107E-04
  1.24874102254E-04  1.26381618489E-04  1.27907333894E-04  1.29451468177E-04
  1.31014243695E-04  1.32595885491E-04  1.34196621323E-04  1.35816681700E-04
  1.37456299915E-04  1.39115712074E-04  1.40795157136E-04  1.42494876944E-04
  1.44215116260E-04  1.45956122802E-04  1.47718147279E-04  1.49501443423E-04
  1.51306268034E-04  1.53132881009E-04  1.54981545384E-04  1.56852527368E-04
  1.58746096388E-04  1.60662525120E-04  1.62602089533E-04  1.64565068928E-04
  1.66551745978E-04  1.68562406766E-04  1.70597340833E-04  1.72656841211E-04
  1.74741204473E-04  1.76850730770E-04  1.78985723878E-04  1.81146491240E-04
  1.83333344009E-04  1.85546597097E-04  1.87786569215E-04  1.90053582924E-04
  1.92347964677E-04  1.94670044869E-04  1.97020157884E-04  1.99398642143E-04
  2.01805840150E-04  2.04242098547E-04  2.06707768160E-04  2.09203204048E-04
  2.11728765559E-04  2.14284816378E-04  2.16871724581E-04  2.19489862687E-04
  2.22139607712E-04  2.24821341225E-04  2.27535449400E-04  2.30282323072E-04
  2.33062357797E-04  2.35875953904E-04  2.38723516556E-04  2.41605455807E-04
  2.44522186661E-04  2.47474129133E-04  2.50461708307E-04  2.53485354399E-04
  2.56545502821E-04  2.59642594238E-04  2.62777074638E-04  2.65949395390E-04
  2.69160013315E-04  2.72409390747E-04  2.75697995602E-04  2.79026301445E-04
  2.82394787557E-04  2.85803939007E-04  2.89254246717E-04  2.92746207539E-04
  2.96280324321E-04  2.99857105982E-04  3.03477067584E-04  3.07140730408E-04
  3.10848622028E-04  3.14601276387E-04  3.18399233873E-04  3.22243041399E-04
  3.26133252480E-04  3.30070427313E-04  3.34055132857E-04  3.38087942918E-04
  3.42169438227E-04  3.46300206527E-04  3.50480842654E-04  3.54711948629E-04
  3.58994133737E-04  3.63328014621E-04  3.67714215366E-04  3.72153367594E-04
  3.76646110550E-04  3.81193091197E-04  3.85794964308E-04  3.90452392560E-04
  3.95166046632E-04  3.99936605297E-04  4.04764755524E-04  4.09651192575E-04
  4.14596620106E-04  4.19601750267E-04  4.24667303805E-04  4.29794010169E-04
  4.34982607612E-04  4.40233843303E-04  4.45548473428E-04  4.50927263303E-04
  4.56370987483E-04  4.61880429874E-04  4.67456383845E-04  4.73099652344E-04
  4.78811048009E-04  4.84591393293E-04  4.90441520575E-04  4.96362272283E-04
  5.02354501016E-04  5.08419069666E-04  5.14556851540E-04  5.20768730490E-04
  5.27055601036E-04  5.33418368501E-04  5.39857949132E-04  5.46375270240E-04
  5.52971270332E-04  5.59646899242E-04  5.66403118273E-04  5.73240900331E-04
  5.80161230070E-04  5.87165104028E-04  5.94253530776E-04  6.01427531059E-04
  6.08688137946E-04  6.16036396977E-04  6.23473366313E-04  6.31000116891E-04
  6.38617732577E-04  6.46327310320E-04  6.54129960312E-04  6.62026806149E-04
  6.70018984990E-04  6.78107647722E-04  6.86293959128E-04  6.94579098049E-04
  7.02964257561E-04  7.11450645141E-04  7.20039482843E-04  7.28732007475E-04
  7.37529470775E-04  7.46433139594E-04  7.55444296074E-04  7.64564237839E-04
  7.73794278175E-04  7.83135746224E-04  7.92589987173E-04  8.02158362451E-04
  8.11842249919E-04  8.21643044073E-04  8.31562156246E-04  8.41601014807E-04
  8.51761065367E-04  8.62043770993E-04  8.72450612412E-04  8.82983088226E-04
  8.93642715131E-04  9.04431028131E-04  9.15349580763E-04  9.26399945315E-04
  9.37583713060E-04  9.48902494480E-04  9.60357919500E-04  9.71951637719E-04
  9.83685318653E-04  9.95560651973E-04  1.00757934775E-03  1.01974313669E-03
  1.03205377040E-03  1.04451302165E-03  1.05712268457E-03  1.06988457498E-03
  1.08280053063E-03  1.09587241142E-03  1.10910209973E-03  1.12249150066E-03
  1.13604254230E-03  1.14975717604E-03  1.16363737679E-03  1.17768514334E-03
  1.19190249858E-03  1.20629148985E-03  1.22085418917E-03  1.23559269360E-03
  1.25050912552E-03  1.26560563291E-03  1.28088438971E-03  1.29634759606E-03
  1.31199747871E-03  1.32783629127E-03  1.34386631454E-03  1.36008985689E-03
  1.37650925452E-03  1.39312687187E-03  1.40994510190E-03  1.42696636645E-03
  1.44419311663E-03  1.46162783311E-03  1.47927302653E-03  1.49713123782E-03
  1.51520503859E-03  1.53349703151E-03  1.55200985065E-03  1.57074616189E-03
  1.58970866329E-03  1.60890008548E-03  1.62832319207E-03  1.64798078001E-03
  1.66787568004E-03  1.68801075704E-03  1.70838891051E-03  1.72901307493E-03
  1.74988622022E-03  1.77101135216E-03  1.79239151279E-03  1.81402978089E-03
  1.83592927242E-03  1.85809314093E-03  1.88052457807E-03  1.90322681399E-03
  1.92620311787E-03  1.94945679832E-03  1.97299120392E-03  1.99680972367E-03
  2.02091578746E-03  2.04531286662E-03  2.07000447437E-03  2.09499416634E-03
  2.12028554109E-03  2.14588224062E-03  2.17178795090E-03  2.19800640240E-03
  2.22454137062E-03  2.25139667664E-03  2.27857618767E-03  2.30608381761E-03
  2.33392352761E-03  2.36209932663E-03  2.39061527203E-03  2.41947547016E-03
  2.44868407694E-03  2.47824529846E-03  2.50816339158E-03  2.53844266457E-03
  2.56908747768E-03  2.60010224384E-03  2.63149142921E-03  2.66325955389E-03
  2.69541119255E-03  2.72795097508E-03  2.76088358726E-03  2.79421377145E-03
  2.82794632725E-03  2.86208611221E-03  2.89663804252E-03  2.93160709371E-03
  2.96699830139E-03  3.00281676195E-03  3.03906763331E-03  3.07575613566E-03
  3.11288755221E-03  3.15046722995E-03  3.18850058041E-03  3.22699308047E-03
  3.26595027311E-03  3.30537776823E-03  3.34528124346E-03  3.38566644497E-03
  3.42653918829E-03  3.46790535919E-03  3.50977091444E-03  3.55214188277E-03
  3.59502436568E-03  3.63842453830E-03  3.68234865034E-03  3.72680302696E-03
  3.77179406964E-03  3.81732825720E-03  3.86341214661E-03  3.91005237406E-03
  3.95725565580E-03  4.00502878919E-03  4.05337865365E-03  4.10231221164E-03
  4.15183650968E-03  4.20195867935E-03  4.25268593833E-03  4.30402559143E-03
  4.35598503166E-03  4.40857174126E-03  4.46179329281E-03  4.51565735030E-03
  4.57017167025E-03  4.62534410282E-03  4.68118259294E-03  4.73769518143E-03
  4.79489000622E-03  4.85277530346E-03  4.91135940872E-03  4.97065075823E-03
  5.03065789004E-03  5.09138944527E-03  5.15285416939E-03  5.21506091340E-03
  5.27801863520E-03  5.34173640081E-03  5.40622338569E-03  5.47148887607E-03
  5.53754227031E-03  5.60439308021E-03  5.67205093239E-03  5.74052556971E-03
  5.80982685263E-03  5.87996476066E-03  5.95094939377E-03  6.02279097388E-03
  6.09549984630E-03  6.16908648122E-03  6.24356147526E-03  6.31893555295E-03
  6.39521956827E-03  6.47242450626E-03  6.55056148456E-03  6.62964175504E-03
  6.70967670538E-03  6.79067786077E-03  6.87265688550E-03  6.95562558470E-03
  7.03959590600E-03  7.12457994128E-03  7.21058992838E-03  7.29763825289E-03
  7.38573744992E-03  7.47490020590E-03  7.56513936044E-03  7.65646790811E-03
  7.74889900039E-03  7.84244594751E-03  7.93712222041E-03  8.03294145262E-03
  8.12991744228E-03  8.22806415410E-03  8.32739572138E-03  8.42792644803E-03
  8.52967081065E-03  8.63264346061E-03  8.73685922614E-03  8.84233311450E-03
  8.94908031411E-03  9.05711619675E-03  9.16645631977E-03  9.27711642834E-03
  9.38911245771E-03  9.50246053549E-03  9.61717698402E-03  9.73327832264E-03
  9.85078127017E-03  9.96970274722E-03  1.00900598787E-02  1.02118699962E-02
  1.03351506407E-02  1.04599195647E-02  1.05861947352E-02  1.07139943360E-02
  1.08433367706E-02  1.09742406643E-02  1.11067248677E-02  1.12408084587E-02
  1.13765107455E-02  1.15138512695E-02  1.16528498080E-02  1.17935263770E-02
  1.19359012341E-02  1.20799948817E-02  1.22258280694E-02  1.23734217975E-02
  1.25227973197E-02  1.26739761464E-02  1.28269800475E-02  1.29818310559E-02
  1.31385514704E-02  1.32971638590E-02  1.34576910622E-02  1.36201561962E-02
  1.37845826562E-02  1.39509941199E-02  1.41194145509E-02  1.42898682020E-02
  1.44623796188E-02  1.46369736433E-02  1.48136754172E-02  1.49925103860E-02
  1.51735043022E-02  1.53566832293E-02  1.55420735452E-02  1.57297019466E-02
  1.59195954523E-02  1.61117814073E-02  1.63062874865E-02  1.65031416994E-02
  1.67023723932E-02  1.69040082575E-02  1.71080783282E-02  1.73146119917E-02
  1.75236389893E-02  1.77351894211E-02  1.79492937509E-02  1.81659828100E-02
  1.83852878020E-02  1.86072403073E-02  1.88318722873E-02  1.90592160894E-02
  1.92893044516E-02  1.95221705069E-02  1.97578477886E-02  1.99963702345E-02
  2.02377721922E-02  2.04820884241E-02  2.07293541122E-02  2.09796048630E-02
  2.12328767132E-02  2.14892061344E-02  2.17486300383E-02  2.20111857826E-02
  2.22769111756E-02  2.25458444824E-02  2.28180244297E-02  2.30934902120E-02
  2.33722814967E-02  2.36544384304E-02  2.39400016441E-02  2.42290122594E-02
  2.45215118944E-02  2.48175426694E-02  2.51171472134E-02  2.54203686701E-02
  2.57272507038E-02  2.60378375060E-02  2.63521738018E-02  2.66703048562E-02
  2.69922764806E-02  2.73181350394E-02  2.76479274569E-02  2.79817012237E-02
  2.83195044038E-02  2.86613856415E-02  2.90073941683E-02  2.93575798099E-02
  2.97119929938E-02  3.00706847560E-02  3.04337067488E-02  3.08011112479E-02
  3.11729511603E-02  3.15492800315E-02  3.19301520536E-02  3.23156220727E-02
  3.27057455973E-02  3.31005788057E-02  3.35001785547E-02  3.39046023872E-02
  3.43139085412E-02  3.47281559572E-02  3.51474042877E-02  3.55717139051E-02
  3.60011459109E-02  3.64357621438E-02  3.68756251895E-02  3.73207983889E-02
  3.77713458477E-02  3.82273324457E-02  3.86888238455E-02  3.91558865029E-02
  3.96285876756E-02  4.01069954333E-02  4.05911786678E-02  4.10812071020E-02
  4.15771513011E-02  4.20790826819E-02  4.25870735232E-02  4.31011969768E-02
  4.36215270771E-02  4.41481387528E-02  4.46811078367E-02  4.52205110774E-02
  4.57664261498E-02  4.63189316666E-02  4.68781071897E-02  4.74440332412E-02
  4.80167913154E-02  4.85964638906E-02  4.91831344406E-02  4.97768874469E-02
  5.03778084110E-02  5.09859838666E-02  5.16015013919E-02  5.22244496227E-02
  5.28549182644E-02  5.34929981056E-02  5.41387810311E-02  5.47923600346E-02
  5.54538292325E-02  5.61232838778E-02  5.68008203729E-02  5.74865362842E-02
  5.81805303562E-02  5.88829025250E-02  5.95937539336E-02  6.03131869457E-02
  6.10413051609E-02  6.17782134296E-02  6.25240178677E-02  6.32788258725E-02
  6.40427461375E-02  6.48158886687E-02  6.55983647998E-02  6.63902872088E-02
  6.71917699339E-02  6.80029283899E-02  6.88238793852E-02  6.96547411380E-02
  7.04956332939E-02  7.13466769429E-02  7.22079946366E-02  7.30797104062E-02
  7.39619497805E-02  7.48548398034E-02  7.57585090525E-02  7.66730876578E-02
  7.75987073203E-02  7.85355013307E-02  7.94836045890E-02  8.04431536237E-02
  8.14142866116E-02  8.23971433974E-02  8.33918655142E-02  8.43985962038E-02
  8.54174804370E-02  8.64486649351E-02  8.74922981903E-02  8.85485304876E-02
  8.96175139263E-02  9.06994024419E-02  9.17943518281E-02  9.29025197597E-02
  9.40240658146E-02  9.51591514975E-02  9.63079402626E-02  9.74705975376E-02
  9.86472907470E-02  9.98381893367E-02  1.01043464798E-01  1.02263290693E-01
  1.03497842679E-01  1.04747298533E-01  1.06011838179E-01  1.07291643712E-01
  1.08586899428E-01  1.09897791845E-01  1.11224509734E-01  1.12567244145E-01
  1.13926188433E-01  1.15301538289E-01  1.16693491766E-01  1.18102249307E-01
  1.19528013777E-01  1.20970990486E-01  1.22431387228E-01  1.23909414301E-01
  1.25405284544E-01  1.26919213364E-01  1.28451418770E-01  1.30002121403E-01
  1.31571544566E-01  1.33159914258E-01  1.34767459209E-01  1.36394410906E-01
  1.38041003634E-01  1.39707474505E-01  1.41394063494E-01  1.43101013473E-01
  1.44828570244E-01  1.46576982581E-01  1.48346502255E-01  1.50137384083E-01
  1.51949885953E-01  1.53784268869E-01  1.55640796986E-01  1.57519737647E-01
  1.59421361422E-01  1.61345942148E-01  1.63293756969E-01  1.65265086374E-01
  1.67260214236E-01  1.69279427858E-01  1.71323018010E-01  1.73391278973E-01
  1.75484508579E-01  1.77603008258E-01  1.79747083078E-01  1.81917041787E-01
  1.84113196866E-01  1.86335864562E-01  1.88585364945E-01  1.90862021947E-01
  1.93166163409E-01  1.95498121133E-01  1.97858230924E-01  2.00246832642E-01
  2.02664270251E-01  2.05110891864E-01  2.07587049800E-01  2.10093100630E-01
  2.12629405230E-01  2.15196328831E-01  2.17794241076E-01  2.20423516067E-01
  2.23084532426E-01  2.25777673343E-01  2.28503326635E-01  2.31261884801E-01
  2.34053745078E-01  2.36879309499E-01  2.39738984950E-01  2.42633183228E-01
  2.45562321105E-01  2.48526820380E-01  2.51527107946E-01  2.54563615851E-01
  2.57636781357E-01  2.60747047004E-01  2.63894860676E-01  2.67080675664E-01
  2.70304950732E-01  2.73568150179E-01  2.76870743912E-01  2.80213207511E-01
  2.83596022297E-01  2.87019675399E-01  2.90484659831E-01  2.93991474555E-01
  2.97540624560E-01  3.01132620929E-01  3.04767980916E-01  3.08447228019E-01
  3.12170892056E-01  3.15939509240E-01  3.19753622260E-01  3.23613780354E-01
  3.27520539391E-01  3.31474461952E-01  3.35476117409E-01  3.39526082006E-01
  3.43624938945E-01  3.47773278470E-01  3.51971697947E-01  3.56220801958E-01
  3.60521202379E-01  3.64873518476E-01  3.69278376991E-01  3.73736412230E-01
  3.78248266158E-01  3.82814588491E-01  3.87436036785E-01  3.92113276538E-01
  3.96846981281E-01  4.01637832674E-01  4.06486520610E-01  4.11393743307E-01
  4.16360207414E-01  4.21386628110E-01  4.26473729209E-01  4.31622243262E-01
  4.36832911663E-01  4.42106484759E-01  4.47443721953E-01  4.52845391815E-01
  4.58312272197E-01  4.63845150338E-01  4.69444822982E-01  4.75112096492E-01
  4.80847786964E-01  4.86652720349E-01  4.92527732567E-01  4.98473669629E-01
  5.04491387761E-01  5.10581753524E-01  5.16745643942E-01  5.22983946626E-01
  5.29297559902E-01  5.35687392942E-01  5.42154365891E-01  5.48699410006E-01
  5.55323467784E-01  5.62027493102E-01  5.68812451349E-01  5.75679319572E-01
  5.82629086613E-01  5.89662753248E-01  5.96781332339E-01  6.03985848973E-01
  6.11277340612E-01  6.18656857246E-01  6.26125461535E-01  6.33684228973E-01
  6.41334248035E-01  6.49076620337E-01  6.56912460794E-01  6.64842897781E-01
  6.72869073293E-01  6.80992143115E-01  6.89213276982E-01  6.97533658752E-01
  7.05954486575E-01  7.14476973063E-01  7.23102345470E-01  7.31831845864E-01
  7.40666731309E-01  7.49608274043E-01  7.58657761663E-01  7.67816497312E-01
  7.77085799864E-01  7.86467004114E-01  7.95961460971E-01  8.05570537654E-01
  8.15295617887E-01  8.25138102097E-01  8.35099407620E-01  8.45180968901E-01
  8.55384237702E-01  8.65710683311E-01  8.76161792754E-01  8.86739071009E-01
  8.97444041224E-01  9.08278244930E-01  9.19243242274E-01  9.30340612233E-01
  9.41571952848E-01  9.52938881450E-01  9.64443034899E-01  9.76086069811E-01
  9.87869662804E-01  9.99795510736E-01  1.01186533095E+00  1.02408086152E+00
  1.03644386150E+00  1.04895611119E+00  1.06161941237E+00  1.07443558858E+00
  1.08740648538E+00  1.10053397058E+00  1.11381993458E+00  1.12726629058E+00
  1.14087497487E+00  1.15464794712E+00  1.16858719068E+00  1.18269471281E+00
  1.19697254502E+00  1.21142274335E+00  1.22604738865E+00  1.24084858689E+00
  1.25582846947E+00  1.27098919352E+00  1.28633294221E+00  1.30186192506E+00
  1.31757837829E+00  1.33348456507E+00  1.34958277594E+00  1.36587532906E+00
  1.38236457059E+00  1.39905287500E+00  1.41594264545E+00  1.43303631408E+00
  1.45033634242E+00  1.46784522170E+00  1.48556547323E+00  1.50349964875E+00
  1.52165033082E+00  1.54002013317E+00  1.55861170107E+00  1.57742771176E+00
  1.59647087476E+00  1.61574393233E+00  1.63524965981E+00  1.65499086607E+00
  1.67497039388E+00  1.69519112032E+00  1.71565595720E+00  1.73636785151E+00
  1.75732978580E+00  1.77854477860E+00  1.80001588493E+00  1.82174619666E+00
  1.84373884298E+00  1.86599699089E+00  1.88852384559E+00  1.91132265098E+00
  1.93439669014E+00  1.95774928577E+00  1.98138380067E+00  2.00530363827E+00
  2.02951224305E+00  2.05401310111E+00  2.07880974060E+00  2.10390573229E+00
  2.12930469003E+00  2.15501027133E+00  2.18102617784E+00  2.20735615588E+00
  2.23400399703E+00  2.26097353861E+00  2.28826866428E+00  2.31589330460E+00
  2.34385143756E+00  2.37214708917E+00  2.40078433406E+00  2.42976729605E+00
  2.45910014873E+00  2.48878711607E+00  2.51883247306E+00  2.54924054628E+00
  2.58001571455E+00  2.61116240953E+00  2.64268511642E+00  2.67458837452E+00
  2.70687677798E+00  2.73955497637E+00  2.77262767541E+00  2.80609963762E+00
  2.83997568303E+00  2.87426068985E+00  2.90895959518E+00  2.94407739571E+00
  2.97961914848E+00  3.01558997155E+00  3.05199504478E+00  3.08883961058E+00
  3.12612897462E+00  3.16386850664E+00  3.20206364118E+00  3.24071987843E+00
  3.27984278493E+00  3.31943799447E+00  3.35951120881E+00  3.40006819857E+00
  3.44111480403E+00  3.48265693597E+00  3.52470057652E+00  3.56725178004E+00
  3.61031667399E+00  3.65390145978E+00  3.69801241369E+00  3.74265588778E+00
  3.78783831078E+00  3.83356618905E+00  3.87984610747E+00  3.92668473043E+00
  3.97408880278E+00  4.02206515079E+00  4.07062068313E+00  4.11976239188E+00
  4.16949735354E+00  4.21983273001E+00  4.27077576970E+00  4.32233380847E+00
  4.37451427078E+00  4.42732467071E+00  4.48077261304E+00  4.53486579436E+00
  4.58961200420E+00  4.64501912610E+00  4.70109513878E+00  4.75784811728E+00
  4.81528623413E+00  4.87341776053E+00  4.93225106750E+00  4.99179462714E+00
  5.05205701384E+00  5.11304690548E+00  5.17477308471E+00  5.23724444020E+00
  5.30046996795E+00  5.36445877253E+00  5.42922006844E+00  5.49476318142E+00
  5.56109754980E+00  5.62823272583E+00  5.69617837711E+00  5.76494428791E+00
  5.83454036065E+00  5.90497661728E+00  5.97626320075E+00  6.04841037645E+00
  6.12142853370E+00  6.19532818723E+00  6.27011997873E+00  6.34581467833E+00
  6.42242318622E+00  6.49995653415E+00  6.57842588704E+00  6.65784254464E+00
  6.73821794306E+00  6.81956365651E+00  6.90189139891E+00  6.98521302560E+00
  7.06954053504E+00  7.15488607053E+00  7.24126192198E+00  7.32868052765E+00
  7.41715447599E+00  7.50669650739E+00  7.59731951606E+00  7.68903655186E+00
  7.78186082222E+00  7.87580569398E+00  7.97088469537E+00  8.06711151793E+00
  8.16450001849E+00  8.26306422116E+00  8.36281831936E+00  8.46377667784E+00
  8.56595383479E+00  8.66936450390E+00  8.77402357648E+00  8.87994612361E+00
  8.98714739833E+00  9.09564283781E+00  9.20544806557E+00  9.31657889376E+00
  9.42905132540E+00  9.54288155674E+00  9.65808597951E+00  9.77468118334E+00
  9.89268395816E+00  1.00121112966E+01  1.01329803963E+01  1.02553086627E+01
  1.03791137113E+01  1.05044133702E+01  1.06312256828E+01  1.07595689102E+01
  1.08894615342E+01  1.10209222594E+01  1.11539700165E+01  1.12886239645E+01
  1.14249034939E+01  1.15628282292E+01  1.17024180317E+01  1.18436930026E+01
  1.19866734858E+01  1.21313800706E+01  1.22778335952E+01  1.24260551490E+01
  1.25760660762E+01  1.27278879787E+01  1.28815427190E+01  1.30370524238E+01
  1.31944394866E+01  1.33537265715E+01  1.35149366161E+01  1.36780928349E+01
  1.38432187228E+01  1.40103380580E+01  1.41794749062E+01  1.43506536232E+01
  1.45238988592E+01  1.46992355617E+01  1.48766889795E+01  1.50562846662E+01
  1.52380484839E+01  1.54220066070E+01  1.56081855257E+01  1.57966120500E+01
  1.59873133138E+01  1.61803167783E+01  1.63756502364E+01  1.65733418164E+01
  1.67734199863E+01  1.69759135576E+01  1.71808516899E+01  1.73882638944E+01
  1.75981800390E+01  1.78106303520E+01  1.80256454265E+01  1.82432562251E+01
  1.84634940841E+01  1.86863907181E+01  1.89119782248E+01  1.91402890889E+01
  1.93713561878E+01  1.96052127954E+01  1.98418925876E+01  2.00814296465E+01
  2.03238584661E+01  2.05692139563E+01  2.08175314490E+01  2.10688467021E+01
  2.13231959056E+01  2.15806156861E+01  2.18411431125E+01  2.21048157014E+01
  2.23716714218E+01  2.26417487017E+01  2.29150864324E+01  2.31917239752E+01
  2.34717011664E+01  2.37550583230E+01  2.40418362491E+01  2.43320762412E+01
  2.46258200943E+01  2.49231101080E+01  2.52239890927E+01  2.55285003754E+01
  2.58366878062E+01  2.61485957648E+01  2.64642691663E+01  2.67837534683E+01
  2.71070946771E+01  2.74343393543E+01  2.77655346239E+01  2.81007281784E+01
  2.84399682863E+01  2.87833037988E+01  2.91307841568E+01  2.94824593980E+01
  2.98383801643E+01  3.01985977090E+01  3.05631639039E+01  3.09321312472E+01
  3.13055528708E+01  3.16834825482E+01  3.20659747018E+01  3.24530844112E+01
  3.28448674208E+01  3.32413801481E+01  3.36426796915E+01  3.40488238390E+01
  3.44598710759E+01  3.48758805938E+01  3.52969122988E+01  3.57230268202E+01
  3.61542855191E+01  3.65907504976E+01  3.70324846075E+01  3.74795514591E+01
  3.79320154309E+01  3.83899416784E+01  3.88533961439E+01  3.93224455656E+01
  3.97971574874E+01  4.02776002686E+01  4.07638430939E+01  4.12559559830E+01
  4.17540098011E+01  4.22580762687E+01  4.27682279724E+01  4.32845383747E+01
  4.38070818254E+01  4.43359335716E+01  4.48711697688E+01  4.54128674920E+01
  4.59611047466E+01  4.65159604797E+01  4.70775145915E+01  4.76458479468E+01
  4.82210423865E+01  4.88031807396E+01  4.93923468351E+01  4.99886255138E+01
  5.05921026410E+01  5.12028651185E+01  5.18210008969E+01  5.24465989891E+01
  5.30797494821E+01  5.37205435508E+01  5.43690734706E+01  5.50254326309E+01
  5.56897155486E+01  5.63620178816E+01  5.70424364426E+01  5.77310692129E+01
  5.84280153570E+01  5.91333752363E+01  5.98472504237E+01
  </PP_R>
  <PP_RAB>
  3.90806556666E-07  3.95524486309E-07  4.00299372161E-07  4.05131901815E-07
  4.10022771163E-07  4.14972684498E-07  4.19982354617E-07  4.25052502920E-07
  4.30183859519E-07  4.35377163336E-07  4.40633162218E-07  4.45952613036E-07
  4.51336281801E-07  4.56784943771E-07  4.62299383562E-07  4.67880395263E-07
  4.73528782549E-07  4.79245358798E-07  4.85030947208E-07  4.90886380911E-07
  4.96812503102E-07  5.02810167152E-07  5.08880236734E-07  5.15023585950E-07
  5.21241099453E-07  5.27533672574E-07  5.33902211456E-07  5.40347633179E-07
  5.46870865895E-07  5.53472848961E-07  5.60154533073E-07  5.66916880406E-07
  5.73760864749E-07  5.80687471648E-07  5.87697698547E-07  5.94792554930E-07
  6.01973062468E-07  6.09240255168E-07  6.16595179517E-07  6.24038894638E-07
  6.31572472437E-07  6.39196997765E-07  6.46913568564E-07  6.54723296035E-07
  6.62627304792E-07  6.70626733026E-07  6.78722732668E-07  6.86916469557E-07
  6.95209123605E-07  7.03601888967E-07  7.12095974217E-07  7.20692602519E-07
  7.29393011800E-07  7.38198454935E-07  7.47110199924E-07  7.56129530072E-07
  7.65257744179E-07  7.74496156724E-07  7.83846098053E-07  7.93308914576E-07
  8.02885968952E-07  8.12578640296E-07  8.22388324368E-07  8.32316433780E-07
  8.42364398197E-07  8.52533664542E-07  8.62825697209E-07  8.73241978266E-07
  8.83784007678E-07  8.94453303514E-07  9.05251402171E-07  9.16179858595E-07
  9.27240246501E-07  9.38434158605E-07  9.49763206849E-07  9.61229022637E-07
  9.72833257065E-07  9.84577581162E-07  9.96463686133E-07  1.00849328360E-06
  1.02066810584E-06  1.03298990605E-06  1.04546045859E-06  1.05808155924E-06
  1.07085502547E-06  1.08378269667E-06  1.09686643445E-06  1.11010812290E-06
  1.12350966883E-06  1.13707300209E-06  1.15080007584E-06  1.16469286678E-06
  1.17875337551E-06  1.19298362676E-06  1.20738566971E-06  1.22196157829E-06
  1.23671345145E-06  1.25164341348E-06  1.26675361432E-06  1.28204622988E-06
  1.29752346230E-06  1.31318754035E-06  1.32904071967E-06  1.34508528316E-06
  1.36132354124E-06  1.37775783227E-06  1.39439052281E-06  1.41122400800E-06
  1.42826071188E-06  1.44550308777E-06  1.46295361860E-06  1.48061481728E-06
  1.49848922705E-06  1.51657942186E-06  1.53488800673E-06  1.55341761813E-06
  1.57217092434E-06  1.59115062589E-06  1.61035945587E-06  1.62980018040E-06
  1.64947559898E-06  1.66938854488E-06  1.68954188563E-06  1.70993852332E-06
  1.73058139512E-06  1.75147347363E-06  1.77261776734E-06  1.79401732108E-06
  1.81567521641E-06  1.83759457211E-06  1.85977854460E-06  1.88223032842E-06
  1.90495315666E-06  1.92795030144E-06  1.95122507440E-06  1.97478082714E-06
  1.99862095173E-06  2.02274888120E-06  2.04716808999E-06  2.07188209453E-06
  2.09689445367E-06  2.12220876924E-06  2.14782868654E-06  2.17375789488E-06
  2.20000012811E-06  2.22655916516E-06  2.25343883058E-06  2.28064299508E-06
  2.30817557612E-06  2.33604053843E-06  2.36424189461E-06  2.39278370571E-06
  2.42167008180E-06  2.45090518257E-06  2.48049321792E-06  2.51043844857E-06
  2.54074518670E-06  2.57141779653E-06  2.60246069497E-06  2.63387835224E-06
  2.66567529255E-06  2.69785609470E-06  2.73042539280E-06  2.76338787687E-06
  2.79674829356E-06  2.83051144685E-06  2.86468219867E-06  2.89926546969E-06
  2.93426623994E-06  2.96968954959E-06  3.00554049968E-06  3.04182425279E-06
  3.07854603385E-06  3.11571113086E-06  3.15332489565E-06  3.19139274468E-06
  3.22992015978E-06  3.26891268896E-06  3.30837594722E-06  3.34831561734E-06
  3.38873745068E-06  3.42964726808E-06  3.47105096061E-06  3.51295449047E-06
  3.55536389186E-06  3.59828527178E-06  3.64172481101E-06  3.68568876489E-06
  3.73018346434E-06  3.77521531664E-06  3.82079080647E-06  3.86691649679E-06
  3.91359902976E-06  3.96084512775E-06  4.00866159429E-06  4.05705531502E-06
  4.10603325873E-06  4.15560247832E-06  4.20577011185E-06  4.25654338355E-06
  4.30792960484E-06  4.35993617545E-06  4.41257058440E-06  4.46584041113E-06
  4.51975332660E-06  4.57431709437E-06  4.62953957170E-06  4.68542871072E-06
  4.74199255958E-06  4.79923926356E-06  4.85717706629E-06  4.91581431090E-06
  4.97515944128E-06  5.03522100321E-06  5.09600764566E-06  5.15752812202E-06
  5.21979129135E-06  5.28280611964E-06  5.34658168114E-06  5.41112715964E-06
  5.47645184980E-06  5.54256515849E-06  5.60947660615E-06  5.67719582812E-06
  5.74573257611E-06  5.81509671951E-06  5.88529824690E-06  5.95634726740E-06
  6.02825401220E-06  6.10102883599E-06  6.17468221848E-06  6.24922476587E-06
  6.32466721244E-06  6.40102042201E-06  6.47829538958E-06  6.55650324288E-06
  6.63565524398E-06  6.71576279090E-06  6.79683741927E-06  6.87889080397E-06
  6.96193476084E-06  7.04598124834E-06  7.13104236931E-06  7.21713037271E-06
  7.30425765535E-06  7.39243676372E-06  7.48168039576E-06  7.57200140270E-06
  7.66341279092E-06  7.75592772384E-06  7.84955952374E-06  7.94432167379E-06
  8.04022781988E-06  8.13729177267E-06  8.23552750953E-06  8.33494917659E-06
  8.43557109074E-06  8.53740774170E-06  8.64047379412E-06  8.74478408970E-06
  8.85035364931E-06  8.95719767513E-06  9.06533155289E-06  9.17477085406E-06
  9.28553133810E-06  9.39762895468E-06  9.51107984608E-06  9.62590034941E-06
  9.74210699903E-06  9.85971652888E-06  9.97874587496E-06  1.00992121777E-05