<PP_INFO>
Generated using unknown code                                                    
Author: unknown    Generation date: as well                                     
Info: automatically converted from CPMD format                                  
    0        The Pseudo was generated with a Non-Relativistic Calculation
  0.00000000000E+00    Local Potential cutoff radius
nl pn  l   occ               Rcut            Rcut US             E pseu
2S  0  0  2.00      0.00000000000      0.00000000000      0.00000000000
2P  0  1  4.00      0.00000000000      0.00000000000      0.00000000000
</PP_INFO>


<PP_HEADER>
   0                   Version Number
  O                    Element
   NC                  Norm - Conserving pseudopotential
    F                  Nonlinear Core Correction
    BLYP               Exchange-Correlation functional
    6.00000000000      Z valence
    0.00000000000      Total energy
  0.0000000  0.0000000 Suggested cutoff for wfc and rho
    1                  Max angular momentum component
  631                  Number of points in mesh
    2    1             Number of Wavefunctions, Number of Projectors
 Wavefunctions         nl  l   occ
                       2S  0  2.00
                       2P  1  4.00
</PP_HEADER>


<PP_MESH>
  <PP_R>
  7.81250000000E-04  7.94921880000E-04  8.08833010000E-04  8.22987590000E-04
  8.37389870000E-04  8.52044190000E-04  8.66954960000E-04  8.82126680000E-04
  8.97563890000E-04  9.13271260000E-04  9.29253510000E-04  9.45515440000E-04
  9.62061960000E-04  9.78898050000E-04  9.96028770000E-04  1.01345930000E-03
  1.03119480000E-03  1.04924070000E-03  1.06760240000E-03  1.08628550000E-03
  1.10529550000E-03  1.12463810000E-03  1.14431930000E-03  1.16434490000E-03
  1.18472090000E-03  1.20545350000E-03  1.22654900000E-03  1.24801360000E-03
  1.26985380000E-03  1.29207630000E-03  1.31468760000E-03  1.33769460000E-03
  1.36110430000E-03  1.38492360000E-03  1.40915980000E-03  1.43382010000E-03
  1.45891190000E-03  1.48444290000E-03  1.51042060000E-03  1.53685300000E-03
  1.56374790000E-03  1.59111350000E-03  1.61895800000E-03  1.64728980000E-03
  1.67611730000E-03  1.70544940000E-03  1.73529480000E-03  1.76566240000E-03
  1.79656150000E-03  1.82800130000E-03  1.85999140000E-03  1.89254120000E-03
  1.92566070000E-03  1.95935970000E-03  1.99364850000E-03  2.02853740000E-03
  2.06403680000E-03  2.10015740000E-03  2.13691020000E-03  2.17430610000E-03
  2.21235650000E-03  2.25107270000E-03  2.29046650000E-03  2.33054960000E-03
  2.37133430000E-03  2.41283260000E-03  2.45505720000E-03  2.49802070000E-03
  2.54173600000E-03  2.58621640000E-03  2.63147520000E-03  2.67752600000E-03
  2.72438270000E-03  2.77205940000E-03  2.82057050000E-03  2.86993050000E-03
  2.92015420000E-03  2.97125690000E-03  3.02325390000E-03  3.07616090000E-03
  3.12999370000E-03  3.18476860000E-03  3.24050200000E-03  3.29721080000E-03
  3.35491200000E-03  3.41362300000E-03  3.47336140000E-03  3.53414520000E-03
  3.59599270000E-03  3.65892260000E-03  3.72295380000E-03  3.78810540000E-03
  3.85439730000E-03  3.92184920000E-03  3.99048160000E-03  4.06031500000E-03
  4.13137050000E-03  4.20366950000E-03  4.27723370000E-03  4.35208530000E-03
  4.42824680000E-03  4.50574110000E-03  4.58459160000E-03  4.66482200000E-03
  4.74645640000E-03  4.82951930000E-03  4.91403590000E-03  5.00003160000E-03
  5.08753210000E-03  5.17656390000E-03  5.26715380000E-03  5.35932900000E-03
  5.45311720000E-03  5.54854680000E-03  5.64564640000E-03  5.74444520000E-03
  5.84497300000E-03  5.94726000000E-03  6.05133700000E-03  6.15723540000E-03
  6.26498710000E-03  6.37462430000E-03  6.48618030000E-03  6.59968840000E-03
  6.71518300000E-03  6.83269870000E-03  6.95227090000E-03  7.07393560000E-03
  7.19772950000E-03  7.32368980000E-03  7.45185430000E-03  7.58226180000E-03
  7.71495140000E-03  7.84996300000E-03  7.98733740000E-03  8.12711580000E-03
  8.26934030000E-03  8.41405380000E-03  8.56129970000E-03  8.71112240000E-03
  8.86356710000E-03  9.01867950000E-03  9.17650640000E-03  9.33709530000E-03
  9.50049440000E-03  9.66675310000E-03  9.83592130000E-03  1.00080500000E-02
  1.01831910000E-02  1.03613970000E-02  1.05427210000E-02  1.07272190000E-02
  1.09149450000E-02  1.11059570000E-02  1.13003110000E-02  1.14980660000E-02
  1.16992820000E-02  1.19040200000E-02  1.21123400000E-02  1.23243060000E-02
  1.25399810000E-02  1.27594310000E-02  1.29827210000E-02  1.32099190000E-02
  1.34410920000E-02  1.36763110000E-02  1.39156470000E-02  1.41591710000E-02
  1.44069560000E-02  1.46590780000E-02  1.49156120000E-02  1.51766350000E-02
  1.54422260000E-02  1.57124650000E-02  1.59874330000E-02  1.62672130000E-02
  1.65518900000E-02  1.68415480000E-02  1.71362750000E-02  1.74361600000E-02
  1.77412920000E-02  1.80517650000E-02  1.83676710000E-02  1.86891050000E-02
  1.90161640000E-02  1.93489470000E-02  1.96875540000E-02  2.00320860000E-02
  2.03826480000E-02  2.07393440000E-02  2.11022820000E-02  2.14715720000E-02
  2.18473250000E-02  2.22296530000E-02  2.26186720000E-02  2.30144990000E-02
  2.34172520000E-02  2.38270540000E-02  2.42440280000E-02  2.46682980000E-02
  2.50999940000E-02  2.55392430000E-02  2.59861800000E-02  2.64409380000E-02
  2.69036550000E-02  2.73744690000E-02  2.78535220000E-02  2.83409590000E-02
  2.88369250000E-02  2.93415720000E-02  2.98550490000E-02  3.03775120000E-02
  3.09091190000E-02  3.14500280000E-02  3.20004040000E-02  3.25604110000E-02
  3.31302180000E-02  3.37099970000E-02  3.42999220000E-02  3.49001710000E-02
  3.55109240000E-02  3.61323650000E-02  3.67646810000E-02  3.74080630000E-02
  3.80627040000E-02  3.87288010000E-02  3.94065550000E-02  4.00961700000E-02
  4.07978530000E-02  4.15118160000E-02  4.22382720000E-02  4.29774420000E-02
  4.37295470000E-02  4.44948140000E-02  4.52734740000E-02  4.60657600000E-02
  4.68719100000E-02  4.76921690000E-02  4.85267820000E-02  4.93760000000E-02
  5.02400800000E-02  5.11192820000E-02  5.20138690000E-02  5.29241120000E-02
  5.38502840000E-02  5.47926640000E-02  5.57515350000E-02  5.67271870000E-02
  5.77199130000E-02  5.87300120000E-02  5.97577870000E-02  6.08035480000E-02
  6.18676100000E-02  6.29502930000E-02  6.40519230000E-02  6.51728320000E-02
  6.63133570000E-02  6.74738400000E-02  6.86546330000E-02  6.98560890000E-02
  7.10785700000E-02  7.23224450000E-02  7.35880880000E-02  7.48758800000E-02
  7.61862080000E-02  7.75194660000E-02  7.88760570000E-02  8.02563880000E-02
  8.16608750000E-02  8.30899400000E-02  8.45440140000E-02  8.60235340000E-02
  8.75289460000E-02  8.90607020000E-02  9.06192650000E-02  9.22051020000E-02
  9.38186910000E-02  9.54605180000E-02  9.71310770000E-02  9.88308710000E-02
  1.00560410000E-01  1.02320220000E-01  1.04110820000E-01  1.05932760000E-01
  1.07786590000E-01  1.09672850000E-01  1.11592130000E-01  1.13544990000E-01
  1.15532020000E-01  1.17553840000E-01  1.19611030000E-01  1.21704220000E-01
  1.23834040000E-01  1.26001140000E-01  1.28206160000E-01  1.30449770000E-01
  1.32732640000E-01  1.35055460000E-01  1.37418930000E-01  1.39823760000E-01
  1.42270680000E-01  1.44760410000E-01  1.47293720000E-01  1.49871360000E-01
  1.52494110000E-01  1.55162760000E-01  1.57878110000E-01  1.60640970000E-01
  1.63452190000E-01  1.66312600000E-01  1.69223070000E-01  1.72184480000E-01
  1.75197710000E-01  1.78263670000E-01  1.81383280000E-01  1.84557490000E-01
  1.87787240000E-01  1.91073520000E-01  1.94417310000E-01  1.97819610000E-01
  2.01281450000E-01  2.04803880000E-01  2.08387950000E-01  2.12034730000E-01
  2.15745340000E-01  2.19520890000E-01  2.23362500000E-01  2.27271350000E-01
  2.31248590000E-01  2.35295440000E-01  2.39413110000E-01  2.43602840000E-01
  2.47865890000E-01  2.52203550000E-01  2.56617110000E-01  2.61107910000E-01
  2.65677300000E-01  2.70326650000E-01  2.75057370000E-01  2.79870870000E-01
  2.84768610000E-01  2.89752060000E-01  2.94822720000E-01  2.99982120000E-01
  3.05231810000E-01  3.10573360000E-01  3.16008400000E-01  3.21538540000E-01
  3.27165470000E-01  3.32890860000E-01  3.38716450000E-01  3.44643990000E-01
  3.50675260000E-01  3.56812080000E-01  3.63056290000E-01  3.69409780000E-01
  3.75874450000E-01  3.82452250000E-01  3.89145160000E-01  3.95955200000E-01
  4.02884420000E-01  4.09934900000E-01  4.17108760000E-01  4.24408160000E-01
  4.31835300000E-01  4.39392420000E-01  4.47081790000E-01  4.54905720000E-01
  4.62866570000E-01  4.70966740000E-01  4.79208650000E-01  4.87594810000E-01
  4.96127710000E-01  5.04809950000E-01  5.13644120000E-01  5.22632900000E-01
  5.31778970000E-01  5.41085100000E-01  5.50554090000E-01  5.60188790000E-01
  5.69992090000E-01  5.79966950000E-01  5.90116380000E-01  6.00443410000E-01
  6.10951170000E-01  6.21642820000E-01  6.32521570000E-01  6.43590700000E-01
  6.54853530000E-01  6.66313470000E-01  6.77973950000E-01  6.89838500000E-01
  7.01910670000E-01  7.14194110000E-01  7.26692510000E-01  7.39409630000E-01
  7.52349290000E-01  7.65515410000E-01  7.78911930000E-01  7.92542880000E-01
  8.06412390000E-01  8.20524600000E-01  8.34883780000E-01  8.49494250000E-01
  8.64360400000E-01  8.79486710000E-01  8.94877720000E-01  9.10538080000E-01
  9.26472500000E-01  9.42685770000E-01  9.59182770000E-01  9.75968470000E-01
  9.93047920000E-01  1.01042630000E+00  1.02810870000E+00  1.04610060000E+00
  1.06440740000E+00  1.08303450000E+00  1.10198760000E+00  1.12127240000E+00
  1.14089470000E+00  1.16086030000E+00  1.18117540000E+00  1.20184590000E+00
  1.22287820000E+00  1.24427860000E+00  1.26605350000E+00  1.28820940000E+00
  1.31075310000E+00  1.33369130000E+00  1.35703090000E+00  1.38077890000E+00
  1.40494250000E+00  1.42952900000E+00  1.45454580000E+00  1.48000030000E+00
  1.50590030000E+00  1.53225360000E+00  1.55906800000E+00  1.58635170000E+00
  1.61411290000E+00  1.64235990000E+00  1.67110120000E+00  1.70034540000E+00
  1.73010150000E+00  1.76037830000E+00  1.79118490000E+00  1.82253060000E+00
  1.85442490000E+00  1.88687730000E+00  1.91989770000E+00  1.95349590000E+00
  1.98768210000E+00  2.02246650000E+00  2.05785970000E+00  2.09387220000E+00
  2.13051500000E+00  2.16779900000E+00  2.20573550000E+00  2.24433580000E+00
  2.28361170000E+00  2.32357490000E+00  2.36423750000E+00  2.40561160000E+00
  2.44770980000E+00  2.49054480000E+00  2.53412930000E+00  2.57847660000E+00
  2.62359990000E+00  2.66951290000E+00  2.71622940000E+00  2.76376340000E+00
  2.81212930000E+00  2.86134150000E+00  2.91141500000E+00  2.96236480000E+00
  3.01420610000E+00  3.06695470000E+00  3.12062650000E+00  3.17523740000E+00
  3.23080410000E+00  3.28734310000E+00  3.34487160000E+00  3.40340690000E+00
  3.46296650000E+00  3.52356840000E+00  3.58523090000E+00  3.64797240000E+00
  3.71181190000E+00  3.77676860000E+00  3.84286210000E+00  3.91011220000E+00
  3.97853910000E+00  4.04816360000E+00  4.11900640000E+00  4.19108910000E+00
  4.26443310000E+00  4.33906070000E+00  4.41499430000E+00  4.49225670000E+00
  4.57087120000E+00  4.65086140000E+00  4.73225150000E+00  4.81506590000E+00
  4.89932950000E+00  4.98506780000E+00  5.07230650000E+00  5.16107180000E+00
  5.25139060000E+00  5.34328990000E+00  5.43679750000E+00  5.53194150000E+00
  5.62875040000E+00  5.72725360000E+00  5.82748050000E+00  5.92946140000E+00
  6.03322700000E+00  6.13880850000E+00  6.24623760000E+00  6.35554680000E+00
  6.46676880000E+00  6.57993730000E+00  6.69508620000E+00  6.81225020000E+00
  6.93146460000E+00  7.05276520000E+00  7.17618860000E+00  7.30177190000E+00
  7.42955290000E+00  7.55957010000E+00  7.69186260000E+00  7.82647020000E+00
  7.96343340000E+00  8.10279350000E+00  8.24459240000E+00  8.38887270000E+00
  8.53567800000E+00  8.68505240000E+00  8.83704080000E+00  8.99168900000E+00
  9.14904360000E+00  9.30915180000E+00  9.47206200000E+00  9.63782310000E+00
  9.80648500000E+00  9.97809840000E+00  1.01527150000E+01  1.03303880000E+01
  1.05111690000E+01  1.06951150000E+01  1.08822790000E+01  1.10727190000E+01
  1.12664920000E+01  1.14636560000E+01  1.16642700000E+01  1.18683940000E+01
  1.20760910000E+01  1.22874230000E+01  1.25024530000E+01  1.27212460000E+01
  1.29438670000E+01  1.31703850000E+01  1.34008670000E+01  1.36353820000E+01
  1.38740010000E+01  1.41167960000E+01  1.43638400000E+01  1.46152070000E+01
  1.48709730000E+01  1.51312150000E+01  1.53960120000E+01  1.56654420000E+01
  1.59395870000E+01  1.62185300000E+01  1.65023540000E+01  1.67911450000E+01
  1.70849900000E+01  1.73839780000E+01  1.76881970000E+01  1.79977410000E+01
  1.83127010000E+01  1.86331740000E+01  1.89592540000E+01  1.92910410000E+01
  1.96286340000E+01  1.99721350000E+01  2.03216480000E+01  2.06772770000E+01
  2.10391290000E+01  2.14073140000E+01  2.17819420000E+01  2.21631260000E+01
  2.25509800000E+01  2.29456220000E+01  2.33471710000E+01  2.37557460000E+01
  2.41714720000E+01  2.45944730000E+01  2.50248760000E+01  2.54628110000E+01
  2.59084100000E+01  2.63618080000E+01  2.68231390000E+01  2.72925440000E+01
  2.77701640000E+01  2.82561420000E+01  2.87506240000E+01  2.92537600000E+01
  2.97657010000E+01  3.02866010000E+01  3.08166160000E+01  3.13559070000E+01
  3.19046350000E+01  3.24629660000E+01  3.30310680000E+01  3.36091120000E+01
  3.41972710000E+01  3.47957240000E+01  3.54046490000E+01  3.60242300000E+01
  3.66546540000E+01  3.72961110000E+01  3.79487930000E+01  3.86128960000E+01
  3.92886220000E+01  3.99761730000E+01  4.06757560000E+01  4.13875820000E+01
  4.21118640000E+01  4.28488220000E+01  4.35986760000E+01
  </PP_R>
  <PP_RAB>
  1.35536236853E-05  1.37908121865E-05  1.40321513495E-05  1.42777140385E-05
  1.45275739851E-05  1.47818064826E-05  1.50404880383E-05  1.53036967213E-05
  1.55715112942E-05  1.58440127752E-05  1.61212830500E-05  1.64034053919E-05
  1.66904649828E-05  1.69825482189E-05  1.72797428843E-05  1.75821388449E-05
  1.78898256198E-05  1.82028974120E-05  1.85214479042E-05  1.88455742487E-05
  1.91753718631E-05  1.95109396346E-05  1.98523816551E-05  2.01997985466E-05
  2.05532944009E-05  2.09129767797E-05  2.12789549793E-05  2.16513365613E-05
  2.20302342919E-05  2.24157644069E-05  2.28080396725E-05  2.32071797943E-05
  2.36133062127E-05  2.40265386334E-05  2.44470037013E-05  2.48748263268E-05
  2.53101348898E-05  2.57530629746E-05  2.62037406962E-05  2.66623068437E-05
  2.71288967364E-05  2.76036526331E-05  2.80867167927E-05  2.85782349438E-05
  2.90783528149E-05  2.95872248089E-05  3.01050018589E-05  3.06318383679E-05
  3.11678956781E-05  3.17133333971E-05  3.22683180717E-05  3.28330127792E-05
  3.34075910059E-05  3.39922227686E-05  3.45870867581E-05  3.51923616655E-05
  3.58082279166E-05  3.64348711418E-05  3.70724821761E-05  3.77212501198E-05
  3.83813727472E-05  3.90530460980E-05  3.97364748862E-05  4.04318620907E-05
  4.11394210999E-05  4.18593600973E-05  4.25918994108E-05  4.33372576332E-05
  4.40956585618E-05  4.48673329336E-05  4.56525114855E-05  4.64514301589E-05
  4.72643300999E-05  4.80914559244E-05  4.89330574527E-05  4.97893862400E-05
  5.06606990462E-05  5.15472613056E-05  5.24493384522E-05  5.33672028596E-05
  5.43011286364E-05  5.52513985654E-05  5.62182971642E-05  5.72021176248E-05
  5.82031548740E-05  5.92217107783E-05  6.02580906735E-05  6.13126068353E-05
  6.23855767436E-05  6.34773248180E-05  6.45881789478E-05  6.57184704920E-05
  6.68685446885E-05  6.80387433054E-05  6.92294219898E-05  7.04409363889E-05
  7.16736525588E-05  7.29279417605E-05  7.42041804594E-05  7.55027537953E-05
  7.68240521125E-05  7.81684726948E-05  7.95364215005E-05  8.09283096921E-05
  8.23445553720E-05  8.37855835816E-05  8.52518315068E-05  8.67437398030E-05
  8.82617543300E-05  8.98063348270E-05  9.13779462373E-05  9.29770604439E-05
  9.46041580041E-05  9.62597316192E-05  9.79442774604E-05  9.96583021078E-05
  1.01402322551E-04  1.03176862718E-04  1.04982456948E-04  1.06819649988E-04
  1.08688995260E-04  1.10591051389E-04  1.12526396085E-04  1.14495607058E-04
  1.16499281101E-04  1.18538018477E-04  1.20612433327E-04  1.22723150204E-04
  1.24870805801E-04  1.27056045488E-04  1.29279525043E-04  1.31541917595E-04
  1.33843901473E-04  1.36186168890E-04  1.38569427670E-04  1.40994392576E-04
  1.43461793987E-04  1.45972376158E-04  1.48526892020E-04  1.51126111854E-04
  1.53770819818E-04  1.56461808744E-04  1.59199890549E-04  1.61985889293E-04
  1.64820641180E-04  1.67705003234E-04  1.70639841150E-04  1.73626039710E-04
  1.76664497574E-04  1.79756129014E-04  1.82901853508E-04  1.86102642580E-04
  1.89359433057E-04  1.92673231159E-04  1.96045008411E-04  1.99475788381E-04
  2.02966611989E-04  2.06518537501E-04  2.10132605835E-04  2.13809927304E-04
  2.17551594874E-04  2.21358753552E-04  2.25232531002E-04  2.29174106930E-04
  2.33184643696E-04  2.37265373053E-04  2.41417526753E-04  2.45642336550E-04
  2.49941068896E-04  2.54315042286E-04  2.58765557868E-04  2.63293951487E-04
  2.67901593686E-04  2.72589872357E-04  2.77360192737E-04  2.82213994766E-04
  2.87152753076E-04  2.92177924954E-04  2.97291037079E-04  3.02493633481E-04
  3.07787258188E-04  3.13173541972E-04  3.18654080908E-04  3.24230523117E-04
  3.29904551417E-04  3.35677883322E-04  3.41552253696E-04  3.47529414753E-04
  3.53611188099E-04  3.59799377992E-04  3.66095858086E-04  3.72502536730E-04
  3.79021339623E-04  3.85654209814E-04  3.92403159743E-04  3.99270219203E-04
  4.06257435331E-04  4.13366942010E-04  4.20600873124E-04  4.27961379903E-04
  4.35450717670E-04  4.43071089702E-04  4.50824838066E-04  4.58714270129E-04
  4.66741780006E-04  4.74909761806E-04  4.83220679038E-04  4.91677047254E-04
  5.00281382005E-04  5.09036320286E-04  5.17944447043E-04  5.27008468664E-04
  5.36231126234E-04  5.45615160838E-04  5.55163435000E-04  5.64878793898E-04
  5.74764169452E-04  5.84822545627E-04  5.95056941086E-04  6.05470443887E-04
  6.16066176786E-04  6.26847331930E-04  6.37817153516E-04  6.48978955134E-04
  6.60336085071E-04  6.71891961008E-04  6.83650070022E-04  6.95613951235E-04
  7.07787195815E-04  7.20173481674E-04  7.32776504071E-04  7.45600097056E-04
  7.58648094678E-04  7.71924435077E-04  7.85433125789E-04  7.99178209047E-04
  8.13163813826E-04  8.27394190544E-04  8.41873589616E-04  8.56606365550E-04
  8.71596976947E-04  8.86849934453E-04  9.02369800759E-04  9.18161277347E-04
  9.34229100394E-04  9.50578110172E-04  9.67213216344E-04  9.84139450015E-04
  1.00136189434E-03  1.01888573655E-03  1.03671623330E-03  1.05485876265E-03
  1.07331878944E-03  1.09210186522E-03  1.11121364565E-03  1.13065989048E-03
  1.15044644619E-03  1.17057924603E-03  1.19106439672E-03  1.21190802232E-03
  1.23311640303E-03  1.25469594052E-03  1.27665312317E-03  1.29899456080E-03
  1.32172696735E-03  1.34485717818E-03  1.36839218478E-03  1.39233904806E-03
  1.41670498504E-03  1.44149731686E-03  1.46672352077E-03  1.49239117813E-03
  1.51850802644E-03  1.54508190727E-03  1.57212085306E-03  1.59963296560E-03
  1.62762653755E-03  1.65611000035E-03  1.68509192423E-03  1.71458103555E-03
  1.74458618212E-03  1.77511648932E-03  1.80618096109E-03  1.83778913918E-03
  1.86995056535E-03  1.90267460787E-03  1.93597150242E-03  1.96985096424E-03
  2.00432322904E-03  2.03939905296E-03  2.07508849822E-03  2.11140249446E-03
  2.14835197132E-03  2.18594820541E-03  2.22420229988E-03  2.26312587829E-03
  2.30273056425E-03  2.34302832830E-03  2.38403131451E-03  2.42575184039E-03
  2.46820257046E-03  2.51139599574E-03  2.55534547467E-03  2.60006401875E-03
  2.64556515989E-03  2.69186260354E-03  2.73897022859E-03  2.78690208745E-03
  2.83567292646E-03  2.88529714499E-03  2.93578983636E-03  2.98716626735E-03
  3.03944170479E-03  3.09263193593E-03  3.14675292151E-03  3.20182114274E-03
  3.25785290734E-03  3.31486539047E-03  3.37287559379E-03  3.43190086594E-03
  3.49195907601E-03  3.55306844008E-03  3.61524717421E-03  3.67851384145E-03
  3.74288787228E-03  3.80838852368E-03  3.87503522613E-03  3.94284845101E-03
  4.01184814927E-03  4.08205548625E-03  4.15349145379E-03  4.22617756420E-03
  4.30013567678E-03  4.37538817126E-03  4.45195742739E-03  4.52986669235E-03
  4.60913938679E-03  4.68979927835E-03  4.77187082861E-03  4.85537849915E-03
  4.94034761898E-03  5.02680369060E-03  5.11477273697E-03  5.20428130151E-03
  5.29535627459E-03  5.38802489360E-03  5.48231543680E-03  5.57825583550E-03
  5.67587540891E-03  5.77520312924E-03  5.87626918314E-03  5.97910393071E-03
  6.08373825253E-03  6.19020372313E-03  6.29853226399E-03  6.40875666406E-03
  6.52090988573E-03  6.63502575885E-03  6.75113863373E-03  6.86928355461E-03
  6.98949608621E-03  7.11181231370E-03  7.23626901618E-03  7.36290366671E-03
  7.49175443230E-03  7.62286017390E-03  7.75626027292E-03  7.89199480470E-03
  8.03010471205E-03  8.17063163169E-03  8.31361754732E-03  8.45910600403E-03
  8.60714019993E-03  8.75776524147E-03  8.91102606164E-03  9.06696915477E-03
  9.22564101522E-03  9.38708969873E-03  9.55136378146E-03  9.71851270706E-03
  9.88858661307E-03  1.00616368515E-02  1.02377156417E-02  1.04168755500E-02
  1.05991708778E-02  1.07846564467E-02  1.09733879458E-02  1.11654222786E-02
  1.13608170427E-02  1.15596313969E-02  1.17619248470E-02  1.19677586338E-02
  1.21771943448E-02  1.23902953027E-02  1.26071255238E-02  1.28277502391E-02
  1.30522357204E-02  1.32806499743E-02  1.35130613545E-02  1.37495397760E-02
  1.39901568886E-02  1.42349845158E-02  1.44840967361E-02  1.47375684958E-02
  1.49954759553E-02  1.52578968366E-02  1.55249099024E-02  1.57965958240E-02
  1.60730363133E-02  1.63543144705E-02  1.66405149568E-02  1.69317239950E-02
  1.72280291957E-02  1.75295204249E-02  1.78362859871E-02  1.81484209528E-02
  1.84660190047E-02  1.87891738255E-02  1.91179843024E-02  1.94525493227E-02
  1.97929695083E-02  2.01393454815E-02  2.04917848038E-02  2.08503898321E-02
  2.12152715978E-02  2.15865393972E-02  2.19643042617E-02  2.23486789574E-02
  2.27397814550E-02  2.31377279905E-02  2.35426382694E-02  2.39546337321E-02
  2.43738392890E-02  2.48003815849E-02  2.52343890000E-02  2.56759899140E-02
  2.61253196465E-02  2.65825135166E-02  2.70477068439E-02  2.75210418872E-02
  2.80026609052E-02  2.84927078918E-02  2.89913303102E-02  2.94986773589E-02
  3.00149051755E-02  3.05401664281E-02  3.10746189893E-02  3.16184242014E-02
  3.21717468765E-02  3.27347518266E-02  3.33076108033E-02  3.38904938232E-02
  3.44835778425E-02  3.50870398172E-02  3.57010636428E-02  3.63258314802E-02
  3.69615341644E-02  3.76083607954E-02  3.82665074129E-02  3.89361700565E-02
  3.96175534402E-02  4.03108605430E-02  4.10163012835E-02  4.17340855801E-02
  4.24644320257E-02  4.32075609480E-02  4.39636926747E-02  4.47330579428E-02
  4.55158857541E-02  4.63124137852E-02  4.71228814471E-02  4.79475316209E-02
  4.87866141269E-02  4.96403787855E-02  5.05090858263E-02  5.13929954788E-02
  5.22923714424E-02  5.32074878255E-02  5.41386204716E-02  5.50860452238E-02
  5.60500518046E-02  5.70309264664E-02  5.80289676059E-02  5.90444753544E-02
  6.00777533131E-02  6.11291137575E-02  6.21988741677E-02  6.32873537587E-02
  6.43948821546E-02  6.55217924492E-02  6.66684246758E-02  6.78351223375E-02
  6.90222358767E-02  7.02301261452E-02  7.14591522598E-02  7.27096889511E-02
  7.39821074798E-02  7.52767947207E-02  7.65941392832E-02  7.79345367163E-02
  7.92983912433E-02  8.06861122920E-02  8.20981196995E-02  8.35348367726E-02
  8.49966954923E-02  8.64841382489E-02  8.79976109025E-02  8.95375679873E-02
  9.11044761817E-02  9.26988038990E-02  9.43210334313E-02  9.59716522754E-02
  9.76511548674E-02  9.93600512573E-02  1.01098851495E-01  1.02868081244E-01
  1.04668273109E-01  1.06499968365E-01  1.08363716966E-01  1.10260082741E-01
  1.12189632992E-01  1.14152952368E-01  1.16150628986E-01  1.18183264846E-01
  1.20251472354E-01  1.22355872591E-01  1.24497100517E-01  1.26675799768E-01
  1.28892626121E-01  1.31148247498E-01  1.33443342233E-01  1.35778600800E-01
  1.38154725820E-01  1.40572433790E-01  1.43032451620E-01  1.45535518361E-01
  1.48082390414E-01  1.50673832854E-01  1.53310624634E-01  1.55993560322E-01
  1.58723448365E-01  1.61501107618E-01  1.64327377756E-01  1.67203107127E-01
  1.70129161428E-01  1.73106420235E-01  1.76135780473E-01  1.79218165088E-01
  1.82354469272E-01  1.85545681896E-01  1.88792722438E-01  1.92096597119E-01
  1.95458294812E-01  1.98878821737E-01  2.02359201464E-01  2.05900474912E-01
  2.09503735045E-01  2.13170057477E-01  2.16900535175E-01  2.20696295798E-01
  2.24558467009E-01  2.28488245863E-01  2.32486794720E-01  2.36555310635E-01
  2.40695025361E-01  2.44907188002E-01  2.49193065006E-01  2.53553940174E-01
  2.57991132002E-01  2.62505976335E-01  2.67099843715E-01  2.71774087337E-01
  2.76530129789E-01  2.81369411007E-01  2.86293370928E-01  2.91303501537E-01
  2.96401312163E-01  3.01588346836E-01  3.06866132236E-01  3.12236299136E-01
  3.17700426260E-01  3.23260196427E-01  3.28917240410E-01  3.34673293071E-01
  3.40530071927E-01  3.46489346537E-01  3.52552921161E-01  3.58722600058E-01
  3.65000239530E-01  3.71387747929E-01  3.77887033604E-01  3.84500056952E-01
  3.91228795718E-01  3.98075297041E-01  4.05041625409E-01  4.12129845309E-01
  4.19342125322E-01  4.26680616679E-01  4.34147522657E-01  4.41745098578E-01
  4.49475634464E-01  4.57341472379E-01  4.65344937043E-01  4.73488474612E-01
  4.81774531245E-01  4.90205587797E-01  4.98784177170E-01  5.07512901658E-01
  5.16394380907E-01  5.25431286606E-01  5.34626325144E-01  5.43982289651E-01
  5.53501973257E-01  5.63188255838E-01  5.73044051963E-01  5.83072328250E-01
  5.93276086014E-01  6.03658430661E-01  6.14222450248E-01  6.24971336926E-01
  6.35908334888E-01  6.47036740377E-01  6.58359884331E-01  6.69881167084E-01
  6.81604093059E-01  6.93532166683E-01  7.05668979123E-01  7.18018190941E-01
  7.30583497399E-01  7.43368715196E-01  7.56377661033E-01
  </PP_RAB>
</PP_MESH>


<PP_LOCAL>
 -5.07543720000E+01 -5.07543720000E+01 -5.07153760000E+01 -5.08619280000E+01
 -5.10195280000E+01 -5.09744860000E+01 -5.09851140000E+01 -5.09803740000E+01
 -5.09798000000E+01 -5.09780160000E+01 -5.09765020000E+01 -5.09748440000E+01
 -5.09731580000E+01 -5.09714060000E+01 -5.09696000000E+01 -5.09677320000E+01
 -5.09658020000E+01 -5.09638060000E+01 -5.09617440000E+01 -5.09596140000E+01
 -5.09574140000E+01 -5.09551400000E+01 -5.09527900000E+01 -5.09503620000E+01
 -5.09478540000E+01 -5.09452640000E+01 -5.09425860000E+01 -5.09398220000E+01
 -5.09369660000E+01 -5.09340160000E+01 -5.09309700000E+01 -5.09278240000E+01
 -5.09245760000E+01 -5.09212200000E+01 -5.09177560000E+01 -5.09141800000E+01
 -5.09104880000E+01 -5.09066760000E+01 -5.09027420000E+01 -5.08986800000E+01
 -5.08944900000E+01 -5.08901640000E+01 -5.08857020000E+01 -5.08810960000E+01
 -5.08763440000E+01 -5.08714440000E+01 -5.08663880000E+01 -5.08611720000E+01
 -5.08557940000E+01 -5.08502480000E+01 -5.08445300000E+01 -5.08386340000E+01
 -5.08325560000E+01 -5.08262900000E+01 -5.08198340000E+01 -5.08131800000E+01
 -5.08063240000E+01 -5.07992600000E+01 -5.07919820000E+01 -5.07844880000E+01
 -5.07767680000E+01 -5.07688180000E+01 -5.07606340000E+01 -5.07522080000E+01
 -5.07435340000E+01 -5.07346080000E+01 -5.07254220000E+01 -5.07159700000E+01
 -5.07062480000E+01 -5.06962460000E+01 -5.06859580000E+01 -5.06753820000E+01
 -5.06645060000E+01 -5.06533260000E+01 -5.06418340000E+01 -5.06300260000E+01
 -5.06178900000E+01 -5.06054240000E+01 -5.05926200000E+01 -5.05794680000E+01
 -5.05659620000E+01 -5.05520980000E+01 -5.05378640000E+01 -5.05232560000E+01
 -5.05082640000E+01 -5.04928840000E+01 -5.04771040000E+01 -5.04609200000E+01
 -5.04443240000E+01 -5.04273080000E+01 -5.04098620000E+01 -5.03919820000E+01
 -5.03736560000E+01 -5.03548800000E+01 -5.03356460000E+01 -5.03159440000E+01
 -5.02957660000E+01 -5.02751060000E+01 -5.02539560000E+01 -5.02323060000E+01
 -5.02101520000E+01 -5.01874820000E+01 -5.01642880000E+01 -5.01405660000E+01
 -5.01163060000E+01 -5.00915000000E+01 -5.00661400000E+01 -5.00402180000E+01
 -5.00137260000E+01 -4.99866580000E+01 -4.99590060000E+01 -4.99307600000E+01
 -4.99019160000E+01 -4.98724640000E+01 -4.98423980000E+01 -4.98117080000E+01
 -4.97803900000E+01 -4.97484360000E+01 -4.97158400000E+01 -4.96825920000E+01
 -4.96486880000E+01 -4.96141200000E+01 -4.95788840000E+01 -4.95429720000E+01
 -4.95063780000E+01 -4.94690960000E+01 -4.94311200000E+01 -4.93924460000E+01
 -4.93530680000E+01 -4.93129820000E+01 -4.92721840000E+01 -4.92306660000E+01
 -4.91884280000E+01 -4.91454640000E+01 -4.91017720000E+01 -4.90573480000E+01
 -4.90121880000E+01 -4.89662920000E+01 -4.89196580000E+01 -4.88722840000E+01
 -4.88241660000E+01 -4.87753080000E+01 -4.87257080000E+01 -4.86753640000E+01
 -4.86242800000E+01 -4.85724560000E+01 -4.85198920000E+01 -4.84665920000E+01
 -4.84125600000E+01 -4.83577980000E+01 -4.83023080000E+01 -4.82460980000E+01
 -4.81891720000E+01 -4.81315340000E+01 -4.80731920000E+01 -4.80141540000E+01
 -4.79544260000E+01 -4.78940180000E+01 -4.78329360000E+01 -4.77711920000E+01
 -4.77087980000E+01 -4.76457620000E+01 -4.75820980000E+01 -4.75178180000E+01
 -4.74529340000E+01 -4.73874620000E+01 -4.73214140000E+01 -4.72548100000E+01
 -4.71876620000E+01 -4.71199880000E+01 -4.70518060000E+01 -4.69831340000E+01
 -4.69139920000E+01 -4.68443980000E+01 -4.67743740000E+01 -4.67039420000E+01
 -4.66331200000E+01 -4.65619340000E+01 -4.64904040000E+01 -4.64185580000E+01
 -4.63464160000E+01 -4.62740040000E+01 -4.62013480000E+01 -4.61284740000E+01
 -4.60554080000E+01 -4.59821780000E+01 -4.59088080000E+01 -4.58353280000E+01
 -4.57617680000E+01 -4.56881520000E+01 -4.56145120000E+01 -4.55408740000E+01
 -4.54672720000E+01 -4.53937300000E+01 -4.53202820000E+01 -4.52469540000E+01
 -4.51737780000E+01 -4.51007840000E+01 -4.50279980000E+01 -4.49554540000E+01
 -4.48831800000E+01 -4.48112060000E+01 -4.47395580000E+01 -4.46682680000E+01
 -4.45973660000E+01 -4.45268760000E+01 -4.44568280000E+01 -4.43872500000E+01
 -4.43181680000E+01 -4.42496080000E+01 -4.41815980000E+01 -4.41141620000E+01
 -4.40473240000E+01 -4.39811100000E+01 -4.39155420000E+01 -4.38506420000E+01
 -4.37864340000E+01 -4.37229360000E+01 -4.36601680000E+01 -4.35981540000E+01
 -4.35369060000E+01 -4.34764480000E+01 -4.34167900000E+01 -4.33579520000E+01