<PP_INFO>
Generated using "atomic" code by A. Dal Corso  (espresso distribution)     
Author: anonymous   Generation date:  2Sep2007                             
Pt                                                                         
    2        The Pseudo was generated with a Fully-Relativistic Calculation
    0 2.6000000E+00    L component and cutoff radius for Local Potential
nl pn  l   occ               Rcut            Rcut US             E pseu
5D  3  2  4.00      2.10000000000      2.40000000000     -0.64797028262
5D  3  2  0.00      2.10000000000      2.40000000000     -0.20000000000
5D  3  2  4.00      2.10000000000      2.40000000000     -0.54452487475
5D  3  2  0.00      2.10000000000      2.40000000000     -0.20000000000
6P  2  1  0.00      3.30000000000      3.30000000000     -0.11873242514
6P  2  1  0.00      3.40000000000      3.40000000000     -0.07447049527
6S  1  0  2.00      2.60000000000      2.60000000000     -0.47650100725
</PP_INFO>


<PP_HEADER>
   0                   Version Number
  Pt                   Element
   US                  Ultrasoft pseudopotential
    T                  Nonlinear Core Correction
 SLA  PW   PBX  PBC    PBE  Exchange-Correlation functional
   10.00000000000      Z valence
  -89.74702787920      Total energy
     27.476    227.928 Suggested cutoff for wfc and rho
    2                  Max angular momentum component
 1277                  Number of points in mesh
    3    6             Number of Wavefunctions, Number of Projectors
 Wavefunctions         nl  l   occ
                       5D  2  4.00
                       5D  2  4.00
                       6S  0  2.00
</PP_HEADER>


<PP_MESH>
  <PP_R>
  1.16907944302E-05  1.18378465214E-05  1.19867483002E-05  1.21375230328E-05
  1.22901942781E-05  1.24447858913E-05  1.26013220275E-05  1.27598271460E-05
  1.29203260134E-05  1.30828437081E-05  1.32474056237E-05  1.34140374734E-05
  1.35827652937E-05  1.37536154487E-05  1.39266146342E-05  1.41017898815E-05
  1.42791685621E-05  1.44587783919E-05  1.46406474353E-05  1.48248041095E-05
  1.50112771896E-05  1.52000958123E-05  1.53912894809E-05  1.55848880698E-05
  1.57809218291E-05  1.59794213896E-05  1.61804177672E-05  1.63839423680E-05
  1.65900269932E-05  1.67987038437E-05  1.70100055260E-05  1.72239650562E-05
  1.74406158660E-05  1.76599918075E-05  1.78821271587E-05  1.81070566286E-05
  1.83348153629E-05  1.85654389495E-05  1.87989634236E-05  1.90354252741E-05
  1.92748614484E-05  1.95173093591E-05  1.97628068891E-05  2.00113923979E-05
  2.02631047274E-05  2.05179832083E-05  2.07760676658E-05  2.10373984261E-05
  2.13020163227E-05  2.15699627028E-05  2.18412794334E-05  2.21160089083E-05
  2.23941940546E-05  2.26758783393E-05  2.29611057762E-05  2.32499209325E-05
  2.35423689363E-05  2.38384954831E-05  2.41383468433E-05  2.44419698694E-05
  2.47494120029E-05  2.50607212825E-05  2.53759463507E-05  2.56951364622E-05
  2.60183414910E-05  2.63456119386E-05  2.66769989417E-05  2.70125542801E-05
  2.73523303851E-05  2.76963803474E-05  2.80447579254E-05  2.83975175540E-05
  2.87547143524E-05  2.91164041334E-05  2.94826434119E-05  2.98534894133E-05
  3.02290000832E-05  3.06092340959E-05  3.09942508636E-05  3.13841105462E-05
  3.17788740598E-05  3.21786030872E-05  3.25833600868E-05  3.29932083027E-05
  3.34082117745E-05  3.38284353473E-05  3.42539446820E-05  3.46848062653E-05
  3.51210874201E-05  3.55628563163E-05  3.60101819811E-05  3.64631343101E-05
  3.69217840781E-05  3.73862029499E-05  3.78564634920E-05  3.83326391835E-05
  3.88148044279E-05  3.93030345645E-05  3.97974058801E-05  4.02979956214E-05
  4.08048820065E-05  4.13181442375E-05  4.18378625125E-05  4.23641180387E-05
  4.28969930445E-05  4.34365707928E-05  4.39829355936E-05  4.45361728175E-05
  4.50963689091E-05  4.56636114001E-05  4.62379889233E-05  4.68195912263E-05
  4.74085091857E-05  4.80048348211E-05  4.86086613096E-05  4.92200830003E-05
  4.98391954292E-05  5.04660953337E-05  5.11008806683E-05  5.17436506195E-05
  5.23945056213E-05  5.30535473713E-05  5.37208788460E-05  5.43966043172E-05
  5.50808293686E-05  5.57736609117E-05  5.64752072027E-05  5.71855778597E-05
  5.79048838796E-05  5.86332376555E-05  5.93707529940E-05  6.01175451335E-05
  6.08737307617E-05  6.16394280342E-05  6.24147565927E-05  6.31998375839E-05
  6.39947936783E-05  6.47997490895E-05  6.56148295932E-05  6.64401625476E-05
  6.72758769126E-05  6.81221032702E-05  6.89789738450E-05  6.98466225248E-05
  7.07251848815E-05  7.16147981923E-05  7.25156014609E-05  7.34277354399E-05
  7.43513426518E-05  7.52865674123E-05  7.62335558522E-05  7.71924559403E-05
  7.81634175066E-05  7.91465922660E-05  8.01421338414E-05  8.11501977883E-05
  8.21709416187E-05  8.32045248259E-05  8.42511089094E-05  8.53108574000E-05
  8.63839358857E-05  8.74705120371E-05  8.85707556340E-05  8.96848385917E-05
  9.08129349878E-05  9.19552210899E-05  9.31118753822E-05  9.42830785946E-05
  9.54690137298E-05  9.66698660926E-05  9.78858233187E-05  9.91170754038E-05
  1.00363814734E-04  1.01626236114E-04  1.02904536800E-04  1.04198916529E-04
  1.05509577552E-04  1.06836724660E-04  1.08180565224E-04  1.09541309221E-04
  1.10919169271E-04  1.12314360666E-04  1.13727101409E-04  1.15157612243E-04
  1.16606116688E-04  1.18072841077E-04  1.19558014586E-04  1.21061869279E-04
  1.22584640135E-04  1.24126565091E-04  1.25687885075E-04  1.27268844046E-04
  1.28869689034E-04  1.30490670172E-04  1.32132040744E-04  1.33794057215E-04
  1.35476979280E-04  1.37181069899E-04  1.38906595339E-04  1.40653825217E-04
  1.42423032542E-04  1.44214493755E-04  1.46028488776E-04  1.47865301045E-04
  1.49725217569E-04  1.51608528963E-04  1.53515529497E-04  1.55446517146E-04
  1.57401793629E-04  1.59381664463E-04  1.61386439006E-04  1.63416430508E-04
  1.65471956160E-04  1.67553337142E-04  1.69660898674E-04  1.71794970066E-04
  1.73955884772E-04  1.76143980439E-04  1.78359598961E-04  1.80603086533E-04
  1.82874793705E-04  1.85175075436E-04  1.87504291149E-04  1.89862804789E-04
  1.92250984878E-04  1.94669204575E-04  1.97117841731E-04  1.99597278951E-04
  2.02107903652E-04  2.04650108124E-04  2.07224289592E-04  2.09830850277E-04
  2.12470197458E-04  2.15142743541E-04  2.17848906115E-04  2.20589108024E-04
  2.23363777429E-04  2.26173347880E-04  2.29018258376E-04  2.31898953441E-04
  2.34815883189E-04  2.37769503397E-04  2.40760275573E-04  2.43788667032E-04
  2.46855150966E-04  2.49960206520E-04  2.53104318865E-04  2.56287979275E-04
  2.59511685203E-04  2.62775940359E-04  2.66081254791E-04  2.69428144960E-04
  2.72817133825E-04  2.76248750923E-04  2.79723532449E-04  2.83242021347E-04
  2.86804767387E-04  2.90412327255E-04  2.94065264640E-04  2.97764150321E-04
  3.01509562257E-04  3.05302085674E-04  3.09142313164E-04  3.13030844770E-04
  3.16968288081E-04  3.20955258333E-04  3.24992378496E-04  3.29080279380E-04
  3.33219599728E-04  3.37410986315E-04  3.41655094056E-04  3.45952586100E-04
  3.50304133940E-04  3.54710417513E-04  3.59172125311E-04  3.63689954484E-04
  3.68264610952E-04  3.72896809515E-04  3.77587273963E-04  3.82336737191E-04
  3.87145941312E-04  3.92015637774E-04  3.96946587477E-04  4.01939560891E-04
  4.06995338180E-04  4.12114709319E-04  4.17298474219E-04  4.22547442855E-04
  4.27862435389E-04  4.33244282298E-04  4.38693824509E-04  4.44211913521E-04
  4.49799411549E-04  4.55457191650E-04  4.61186137864E-04  4.66987145351E-04
  4.72861120529E-04  4.78808981219E-04  4.84831656786E-04  4.90930088286E-04
  4.97105228612E-04  5.03358042641E-04  5.09689507387E-04  5.16100612157E-04
  5.22592358697E-04  5.29165761356E-04  5.35821847243E-04  5.42561656383E-04
  5.49386241885E-04  5.56296670106E-04  5.63294020813E-04  5.70379387357E-04
  5.77553876840E-04  5.84818610292E-04  5.92174722842E-04  5.99623363897E-04
  6.07165697322E-04  6.14802901623E-04  6.22536170128E-04  6.30366711177E-04
  6.38295748306E-04  6.46324520445E-04  6.54454282105E-04  6.62686303578E-04
  6.71021871134E-04  6.79462287223E-04  6.88008870676E-04  6.96662956915E-04
  7.05425898159E-04  7.14299063635E-04  7.23283839792E-04  7.32381630521E-04
  7.41593857370E-04  7.50921959767E-04  7.60367395249E-04  7.69931639683E-04
  7.79616187503E-04  7.89422551938E-04  7.99352265252E-04  8.09406878985E-04
  8.19587964189E-04  8.29897111679E-04  8.40335932282E-04  8.50906057084E-04
  8.61609137689E-04  8.72446846474E-04  8.83420876855E-04  8.94532943544E-04
  9.05784782826E-04  9.17178152823E-04  9.28714833772E-04  9.40396628304E-04
  9.52225361722E-04  9.64202882290E-04  9.76331061521E-04  9.88611794466E-04
  1.00104700001E-03  1.01363862119E-03  1.02638862547E-03  1.03929900506E-03
  1.05237177723E-03  1.06560898463E-03  1.07901269561E-03  1.09258500451E-03
  1.10632803204E-03  1.12024392558E-03  1.13433485951E-03  1.14860303558E-03
  1.16305068320E-03  1.17768005986E-03  1.19249345142E-03  1.20749317251E-03
  1.22268156687E-03  1.23806100770E-03  1.25363389809E-03  1.26940267133E-03
  1.28536979132E-03  1.30153775295E-03  1.31790908250E-03  1.33448633803E-03
  1.35127210977E-03  1.36826902052E-03  1.38547972609E-03  1.40290691568E-03
  1.42055331234E-03  1.43842167334E-03  1.45651479065E-03  1.47483549136E-03
  1.49338663812E-03  1.51217112958E-03  1.53119190086E-03  1.55045192398E-03
  1.56995420837E-03  1.58970180130E-03  1.60969778837E-03  1.62994529400E-03
  1.65044748189E-03  1.67120755557E-03  1.69222875882E-03  1.71351437626E-03
  1.73506773380E-03  1.75689219921E-03  1.77899118260E-03  1.80136813698E-03
  1.82402655880E-03  1.84696998848E-03  1.87020201098E-03  1.89372625634E-03
  1.91754640029E-03  1.94166616476E-03  1.96608931852E-03  1.99081967774E-03
  2.01586110658E-03  2.04121751783E-03  2.06689287346E-03  2.09289118531E-03
  2.11921651566E-03  2.14587297791E-03  2.17286473717E-03  2.20019601097E-03
  2.22787106988E-03  2.25589423817E-03  2.28426989452E-03  2.31300247270E-03
  2.34209646221E-03  2.37155640907E-03  2.40138691644E-03  2.43159264539E-03
  2.46217831565E-03  2.49314870628E-03  2.52450865646E-03  2.55626306626E-03
  2.58841689737E-03  2.62097517388E-03  2.65394298309E-03  2.68732547630E-03
  2.72112786957E-03  2.75535544462E-03  2.79001354955E-03  2.82510759979E-03
  2.86064307883E-03  2.89662553917E-03  2.93306060314E-03  2.96995396381E-03
  3.00731138582E-03  3.04513870635E-03  3.08344183600E-03  3.12222675972E-03
  3.16149953771E-03  3.20126630644E-03  3.24153327955E-03  3.28230674882E-03
  3.32359308520E-03  3.36539873977E-03  3.40773024473E-03  3.45059421448E-03
  3.49399734659E-03  3.53794642290E-03  3.58244831053E-03  3.62750996300E-03
  3.67313842128E-03  3.71934081492E-03  3.76612436312E-03  3.81349637592E-03
  3.86146425528E-03  3.91003549630E-03  3.95921768831E-03  4.00901851614E-03
  4.05944576127E-03  4.11050730306E-03  4.16221111998E-03  4.21456529085E-03
  4.26757799613E-03  4.32125751915E-03  4.37561224745E-03  4.43065067406E-03
  4.48638139886E-03  4.54281312988E-03  4.59995468469E-03  4.65781499178E-03
  4.71640309194E-03  4.77572813968E-03  4.83579940466E-03  4.89662627313E-03
  4.95821824942E-03  5.02058495739E-03  5.08373614199E-03  5.14768167069E-03
  5.21243153514E-03  5.27799585261E-03  5.34438486767E-03  5.41160895375E-03
  5.47967861473E-03  5.54860448664E-03  5.61839733929E-03  5.68906807796E-03
  5.76062774509E-03  5.83308752203E-03  5.90645873076E-03  5.98075283568E-03
  6.05598144540E-03  6.13215631454E-03  6.20928934558E-03  6.28739259072E-03
  6.36647825374E-03  6.44655869194E-03  6.52764641805E-03  6.60975410219E-03
  6.69289457386E-03  6.77708082392E-03  6.86232600665E-03  6.94864344178E-03
  7.03604661659E-03  7.12454918799E-03  7.21416498470E-03  7.30490800937E-03
  7.39679244078E-03  7.48983263605E-03  7.58404313291E-03  7.67943865194E-03
  7.77603409888E-03  7.87384456697E-03  7.97288533930E-03  8.07317189117E-03
  8.17471989259E-03  8.27754521061E-03  8.38166391192E-03  8.48709226527E-03
  8.59384674405E-03  8.70194402886E-03  8.81140101014E-03  8.92223479075E-03
  9.03446268870E-03  9.14810223983E-03  9.26317120054E-03  9.37968755060E-03
  9.49766949592E-03  9.61713547142E-03  9.73810414391E-03  9.86059441498E-03
  9.98462542399E-03  1.01102165510E-02  1.02373874200E-02  1.03661579016E-02
  1.04965481164E-02  1.06285784382E-02  1.07622694970E-02  1.08976421824E-02
  1.10347176465E-02  1.11735173077E-02  1.13140628536E-02  1.14563762450E-02
  1.16004797184E-02  1.17463957904E-02  1.18941472606E-02  1.20437572156E-02
  1.21952490321E-02  1.23486463810E-02  1.25039732311E-02  1.26612538525E-02
  1.28205128205E-02  1.29817750198E-02  1.31450656477E-02  1.33104102190E-02
  1.34778345689E-02  1.36473648579E-02  1.38190275754E-02  1.39928495441E-02
  1.41688579240E-02  1.43470802168E-02  1.45275442701E-02  1.47102782817E-02
  1.48953108042E-02  1.50826707493E-02  1.52723873925E-02  1.54644903772E-02
  1.56590097200E-02  1.58559758149E-02  1.60554194384E-02  1.62573717537E-02
  1.64618643165E-02  1.66689290791E-02  1.68785983957E-02  1.70909050277E-02
  1.73058821484E-02  1.75235633484E-02  1.77439826408E-02  1.79671744666E-02
  1.81931736999E-02  1.84220156537E-02  1.86537360848E-02  1.88883712002E-02
  1.91259576621E-02  1.93665325937E-02  1.96101335854E-02  1.98567987004E-02
  2.01065664806E-02  2.03594759528E-02  2.06155666344E-02  2.08748785403E-02
  2.11374521885E-02  2.14033286065E-02  2.16725493382E-02  2.19451564498E-02
  2.22211925368E-02  2.25007007303E-02  2.27837247040E-02  2.30703086811E-02
  2.33604974409E-02  2.36543363259E-02  2.39518712491E-02  2.42531487009E-02
  2.45582157566E-02  2.48671200834E-02  2.51799099483E-02  2.54966342254E-02
  2.58173424035E-02  2.61420845938E-02  2.64709115380E-02  2.68038746160E-02
  2.71410258540E-02  2.74824179325E-02  2.78281041947E-02  2.81781386547E-02
  2.85325760063E-02  2.88914716309E-02  2.92548816068E-02  2.96228627174E-02
  2.99954724606E-02  3.03727690574E-02  3.07548114611E-02  3.11416593667E-02
  3.15333732200E-02  3.19300142269E-02  3.23316443636E-02  3.27383263854E-02
  3.31501238374E-02  3.35671010636E-02  3.39893232177E-02  3.44168562727E-02
  3.48497670315E-02  3.52881231373E-02  3.57319930842E-02  3.61814462276E-02
  3.66365527957E-02  3.70973838996E-02  3.75640115453E-02  3.80365086442E-02
  3.85149490250E-02  3.89994074449E-02  3.94899596015E-02  3.99866821447E-02
  4.04896526883E-02  4.09989498226E-02  4.15146531261E-02  4.20368431787E-02
  4.25656015735E-02  4.31010109302E-02  4.36431549076E-02  4.41921182167E-02
  4.47479866341E-02  4.53108470155E-02  4.58807873090E-02  4.64578965688E-02
  4.70422649695E-02  4.76339838198E-02  4.82331455769E-02  4.88398438612E-02
  4.94541734705E-02  5.00762303950E-02  5.07061118323E-02  5.13439162028E-02
  5.19897431647E-02  5.26436936297E-02  5.33058697789E-02  5.39763750788E-02
  5.46553142970E-02  5.53427935194E-02  5.60389201658E-02  5.67438030075E-02
  5.74575521838E-02  5.81802792196E-02  5.89120970424E-02  5.96531200002E-02
  6.04034638794E-02  6.11632459227E-02  6.19325848476E-02  6.27116008649E-02
  6.35004156974E-02  6.42991525990E-02  6.51079363741E-02  6.59268933967E-02
  6.67561516305E-02  6.75958406488E-02  6.84460916548E-02  6.93070375018E-02
  7.01788127145E-02  7.10615535094E-02  7.19553978166E-02  7.28604853011E-02
  7.37769573847E-02  7.47049572680E-02  7.56446299528E-02  7.65961222650E-02
  7.75595828771E-02  7.85351623318E-02  7.95230130654E-02  8.05232894317E-02
  8.15361477257E-02  8.25617462086E-02  8.36002451324E-02  8.46518067646E-02
  8.57165954138E-02  8.67947774555E-02  8.78865213577E-02  8.89919977077E-02
  9.01113792383E-02  9.12448408553E-02  9.23925596644E-02  9.35547149988E-02
  9.47314884478E-02  9.59230638846E-02  9.71296274953E-02  9.83513678080E-02
  9.95884757219E-02  1.00841144538E-01  1.02109569988E-01  1.03393950266E-01
  1.04694486059E-01  1.06011380578E-01  1.07344839591E-01  1.08695071454E-01
  1.10062287143E-01  1.11446700289E-01  1.12848527208E-01  1.14267986938E-01
  1.15705301275E-01  1.17160694800E-01  1.18634394922E-01  1.20126631909E-01
  1.21637638928E-01  1.23167652074E-01  1.24716910417E-01  1.26285656031E-01
  1.27874134036E-01  1.29482592634E-01  1.31111283151E-01  1.32760460073E-01
  1.34430381086E-01  1.36121307120E-01  1.37833502386E-01  1.39567234416E-01
  1.41322774111E-01  1.43100395777E-01  1.44900377170E-01  1.46722999543E-01
  1.48568547682E-01  1.50437309960E-01  1.52329578373E-01  1.54245648593E-01
  1.56185820009E-01  1.58150395777E-01  1.60139682867E-01  1.62153992107E-01
  1.64193638239E-01  1.66258939961E-01  1.68350219981E-01  1.70467805065E-01
  1.72612026090E-01  1.74783218095E-01  1.76981720334E-01  1.79207876327E-01
  1.81462033915E-01  1.83744545315E-01  1.86055767174E-01  1.88396060625E-01
  1.90765791345E-01  1.93165329607E-01  1.95595050344E-01  1.98055333207E-01
  2.00546562618E-01  2.03069127837E-01  2.05623423021E-01  2.08209847283E-01
  2.10828804758E-01  2.13480704662E-01  2.16165961360E-01  2.18884994430E-01
  2.21638228725E-01  2.24426094445E-01  2.27249027198E-01  2.30107468074E-01
  2.33001863711E-01  2.35932666362E-01  2.38900333973E-01  2.41905330247E-01
  2.44948124721E-01  2.48029192838E-01  2.51149016020E-01  2.54308081748E-01
  2.57506883631E-01  2.60745921488E-01  2.64025701426E-01  2.67346735916E-01
  2.70709543879E-01  2.74114650758E-01  2.77562588609E-01  2.81053896179E-01
  2.84589118993E-01  2.88168809435E-01  2.91793526840E-01  2.95463837577E-01
  2.99180315140E-01  3.02943540236E-01  3.06754100877E-01  3.10612592469E-01
  3.14519617912E-01  3.18475787684E-01  3.22481719946E-01  3.26538040633E-01
  3.30645383554E-01  3.34804390488E-01  3.39015711289E-01  3.43280003985E-01
  3.47597934880E-01  3.51970178660E-01  3.56397418496E-01  3.60880346154E-01
  3.65419662100E-01  3.70016075611E-01  3.74670304888E-01  3.79383077161E-01
  3.84155128813E-01  3.88987205485E-01  3.93880062199E-01  3.98834463474E-01
  4.03851183445E-01  4.08931005986E-01  4.14074724828E-01  4.19283143689E-01
  4.24557076393E-01  4.29897347005E-01  4.35304789952E-01  4.40780250158E-01
  4.46324583174E-01  4.51938655315E-01  4.57623343790E-01  4.63379536844E-01
  4.69208133893E-01  4.75110045668E-01  4.81086194354E-01  4.87137513736E-01
  4.93264949347E-01  4.99469458609E-01  5.05752010990E-01  5.12113588152E-01
  5.18555184103E-01  5.25077805358E-01  5.31682471088E-01  5.38370213285E-01
  5.45142076924E-01  5.51999120121E-01  5.58942414304E-01  5.65973044376E-01
  5.73092108888E-01  5.80300720208E-01  5.87600004697E-01  5.94991102881E-01
  6.02475169636E-01  6.10053374361E-01  6.17726901168E-01  6.25496949060E-01
  6.33364732122E-01  6.41331479713E-01  6.49398436652E-01  6.57566863418E-01
  6.65838036344E-01  6.74213247818E-01  6.82693806484E-01  6.91281037446E-01
  6.99976282476E-01  7.08780900225E-01  7.17696266431E-01  7.26723774140E-01
  7.35864833916E-01  7.45120874070E-01  7.54493340876E-01  7.63983698802E-01
  7.73593430735E-01  7.83324038216E-01  7.93177041671E-01  8.03153980653E-01
  8.13256414079E-01  8.23485920473E-01  8.33844098218E-01  8.44332565800E-01
  8.54952962063E-01  8.65706946466E-01  8.76596199340E-01  8.87622422155E-01
  8.98787337778E-01  9.10092690752E-01  9.21540247560E-01  9.33131796906E-01
  9.44869149995E-01  9.56754140810E-01  9.68788626407E-01  9.80974487197E-01
  9.93313627247E-01  1.00580797457E+00  1.01845948144E+00  1.03127012467E+00
  1.04424190596E+00  1.05737685217E+00  1.07067701567E+00  1.08414447462E+00
  1.09778133336E+00  1.11158972267E+00  1.12557180013E+00  1.13972975047E+00
  1.15406578590E+00  1.16858214647E+00  1.18328110037E+00  1.19816494435E+00
  1.21323600404E+00  1.22849663432E+00  1.24394921970E+00  1.25959617468E+00
  1.27543994413E+00  1.29148300366E+00  1.30772786003E+00  1.32417705155E+00
  1.34083314842E+00  1.35769875321E+00  1.37477650118E+00  1.39206906078E+00
  1.40957913400E+00  1.42730945683E+00  1.44526279967E+00  1.46344196776E+00
  1.48184980163E+00  1.50048917755E+00  1.51936300796E+00  1.53847424193E+00
  1.55782586562E+00  1.57742090278E+00  1.59726241517E+00  1.61735350306E+00
  1.63769730572E+00  1.65829700192E+00  1.67915581040E+00  1.70027699039E+00
  1.72166384211E+00  1.74331970732E+00  1.76524796978E+00  1.78745205583E+00
  1.80993543489E+00  1.83270162005E+00  1.85575416857E+00  1.87909668245E+00
  1.90273280901E+00  1.92666624144E+00  1.95090071939E+00  1.97544002955E+00
  2.00028800624E+00  2.02544853199E+00  2.05092553820E+00  2.07672300569E+00
  2.10284496538E+00  2.12929549888E+00  2.15607873913E+00  2.18319887106E+00
  2.21066013227E+00  2.23846681361E+00  2.26662325995E+00  2.29513387079E+00
  2.32400310096E+00  2.35323546135E+00  2.38283551956E+00  2.41280790068E+00
  2.44315728793E+00  2.47388842348E+00  2.50500610914E+00  2.53651520709E+00
  2.56842064070E+00  2.60072739527E+00  2.63344051878E+00  2.66656512273E+00
  2.70010638291E+00  2.73406954020E+00  2.76845990142E+00  2.80328284013E+00
  2.83854379749E+00  2.87424828309E+00  2.91040187584E+00  2.94701022480E+00
  2.98407905010E+00  3.02161414382E+00  3.05962137091E+00  3.09810667005E+00
  3.13707605467E+00  3.17653561380E+00  3.21649151309E+00  3.25694999572E+00
  3.29791738341E+00  3.33940007740E+00  3.38140455945E+00  3.42393739284E+00
  3.46700522341E+00  3.51061478061E+00  3.55477287850E+00  3.59948641689E+00
  3.64476238236E+00  3.69060784936E+00  3.73702998135E+00  3.78403603188E+00
  3.83163334573E+00  3.87982936009E+00  3.92863160568E+00  3.97804770796E+00
  4.02808538828E+00  4.07875246514E+00  4.13005685537E+00  4.18200657538E+00
  4.23460974243E+00  4.28787457587E+00  4.34180939843E+00  4.39642263755E+00
  4.45172282665E+00  4.50771860650E+00  4.56441872655E+00  4.62183204631E+00
  4.67996753673E+00  4.73883428161E+00  4.79844147898E+00  4.85879844259E+00
  4.91991460335E+00  4.98179951077E+00  5.04446283450E+00  5.10791436581E+00
  5.17216401914E+00  5.23722183361E+00  5.30309797465E+00  5.36980273554E+00
  5.43734653904E+00  5.50573993899E+00  5.57499362200E+00  5.64511840912E+00
  5.71612525747E+00  5.78802526202E+00  5.86082965729E+00  5.93454981913E+00
  6.00919726644E+00  6.08478366306E+00  6.16132081950E+00  6.23882069485E+00
  6.31729539863E+00  6.39675719267E+00  6.47721849304E+00  6.55869187197E+00
  6.64119005985E+00  6.72472594719E+00  6.80931258664E+00  6.89496319504E+00
  6.98169115546E+00  7.06951001933E+00  7.15843350853E+00  7.24847551752E+00
  7.33965011556E+00  7.43197154886E+00  7.52545424284E+00  7.62011280436E+00
  7.71596202400E+00  7.81301687841E+00  7.91129253260E+00  8.01080434235E+00
  8.11156785657E+00  8.21359881977E+00  8.31691317450E+00  8.42152706383E+00
  8.52745683390E+00  8.63471903645E+00  8.74333043142E+00  8.85330798955E+00
  8.96466889508E+00  9.07743054835E+00  9.19161056862E+00  9.30722679673E+00
  9.42429729797E+00  9.54284036484E+00  9.66287451993E+00  9.78441851882E+00
  9.90749135301E+00  1.00321122529E+01  1.01583006907E+01  1.02860763837E+01
  1.04154592970E+01  1.05464696471E+01  1.06791279044E+01  1.08134547973E+01
  1.09494713144E+01  1.10871987088E+01  1.12266585004E+01  1.13678724804E+01
  1.15108627135E+01  1.16556515423E+01  1.18022615904E+01  1.19507157659E+01
  1.21010372650E+01  1.22532495758E+01  1.24073764819E+01  1.25634420657E+01
  1.27214707129E+01  1.28814871158E+01  1.30435162772E+01  1.32075835146E+01
  1.33737144639E+01  1.35419350832E+01  1.37122716574E+01  1.38847508019E+01
  1.40593994670E+01  1.42362449419E+01  1.44153148590E+01  1.45966371984E+01
  1.47802402921E+01  1.49661528284E+01  1.51544038565E+01  1.53450227910E+01
  1.55380394166E+01  1.57334838924E+01  1.59313867571E+01  1.61317789334E+01
  1.63346917330E+01  1.65401568614E+01  1.67482064229E+01  1.69588729258E+01
  1.71721892871E+01  1.73881888379E+01  1.76069053286E+01  1.78283729340E+01
  1.80526262590E+01  1.82797003436E+01  1.85096306686E+01  1.87424531610E+01
  1.89782041998E+01  1.92169206217E+01  1.94586397265E+01  1.97033992833E+01
  1.99512375364E+01  2.02021932109E+01  2.04563055192E+01  2.07136141669E+01
  2.09741593589E+01  2.12379818060E+01  2.15051227310E+01  2.17756238751E+01
  2.20495275048E+01  2.23268764180E+01  2.26077139511E+01  2.28920839855E+01
  2.31800309546E+01  2.34715998506E+01  2.37668362319E+01  2.40657862298E+01
  2.43684965556E+01  2.46750145087E+01  2.49853879829E+01  2.52996654749E+01
  2.56178960911E+01  2.59401295556E+01  2.62664162182E+01  2.65968070618E+01
  2.69313537105E+01  2.72701084381E+01  2.76131241756E+01  2.79604545199E+01
  2.83121537421E+01  2.86682767960E+01  2.90288793264E+01  2.93940176783E+01
  2.97637489053E+01  3.01381307785E+01  3.05172217961E+01  3.09010811916E+01
  3.12897689439E+01  3.16833457863E+01  3.20818732159E+01  3.24854135035E+01
  3.28940297030E+01  3.33077856616E+01  3.37267460295E+01  3.41509762700E+01
  3.45805426701E+01  3.50155123503E+01  3.54559532756E+01  3.59019342657E+01
  3.63535250061E+01  3.68107960587E+01  3.72738188731E+01  3.77426657975E+01
  3.82174100903E+01  3.86981259311E+01  3.91848884328E+01  3.96777736531E+01
  4.01768586063E+01  4.06822212753E+01  4.11939406242E+01  4.17120966101E+01
  4.22367701959E+01  4.27680433631E+01  4.33059991240E+01  4.38507215354E+01
  4.44022957113E+01  4.49608078362E+01  4.55263451788E+01  4.60989961054E+01
  4.66788500940E+01  4.72659977479E+01  4.78605308101E+01  4.84625421776E+01
  4.90721259159E+01  4.96893772737E+01  5.03143926978E+01  5.09472698482E+01
  5.15881076131E+01  5.22370061248E+01  5.28940667750E+01  5.35593922307E+01
  5.42330864504E+01  5.49152547002E+01  5.56060035703E+01  5.63054409916E+01
  5.70136762526E+01  5.77308200165E+01  5.84569843384E+01  5.91922826831E+01
  5.99368299425E+01  6.06907424534E+01  6.14541380163E+01  6.22271359133E+01
  6.30098569269E+01  6.38024233588E+01  6.46049590492E+01  6.54175893959E+01
  6.62404413741E+01  6.70736435559E+01  6.79173261310E+01  6.87716209265E+01
  6.96366614277E+01  7.05125827990E+01  7.13995219047E+01  7.22976173310E+01
  7.32070094071E+01  7.41278402274E+01  7.50602536735E+01  7.60043954369E+01
  7.69604130418E+01  7.79284558678E+01  7.89086751736E+01  7.99012241204E+01
  8.09062577960E+01  8.19239332390E+01  8.29544094633E+01  8.39978474828E+01
  8.50544103369E+01  8.61242631156E+01  8.72075729857E+01  8.83045092165E+01
  8.94152432065E+01  9.05399485102E+01  9.16788008650E+01  9.28319782190E+01
  9.39996607584E+01  9.51820309361E+01  9.63792734998E+01  9.75915755210E+01
  9.88191264245E+01
  </PP_R>
  <PP_RAB>
  1.46134930377E-07  1.47973081517E-07  1.49834353753E-07  1.51719037910E-07
  1.53627428477E-07  1.55559823641E-07  1.57516525344E-07  1.59497839325E-07
  1.61504075168E-07  1.63535546351E-07  1.65592570296E-07  1.67675468417E-07
  1.69784566171E-07  1.71920193109E-07  1.74082682927E-07  1.76272373518E-07
  1.78489607026E-07  1.80734729899E-07  1.83008092941E-07  1.85310051369E-07
  1.87640964870E-07  1.90001197654E-07  1.92391118511E-07  1.94811100872E-07
  1.97261522864E-07  1.99742767371E-07  2.02255222090E-07  2.04799279600E-07
  2.07375337414E-07  2.09983798047E-07  2.12625069075E-07  2.15299563203E-07
  2.18007698325E-07  2.20749897594E-07  2.23526589483E-07  2.26338207857E-07
  2.29185192037E-07  2.32067986868E-07  2.34987042795E-07  2.37942815926E-07
  2.40935768105E-07  2.43966366989E-07  2.47035086114E-07  2.50142404973E-07
  2.53288809092E-07  2.56474790103E-07  2.59700845822E-07  2.62967480326E-07
  2.66275204034E-07  2.69624533785E-07  2.73015992917E-07  2.76450111354E-07
  2.79927425683E-07  2.83448479242E-07  2.87013822202E-07  2.90624011656E-07
  2.94279611703E-07  2.97981193539E-07  3.01729335542E-07  3.05524623367E-07
  3.09367650036E-07  3.13259016031E-07  3.17199329384E-07  3.21189205777E-07
  3.25229268637E-07  3.29320149232E-07  3.33462486771E-07  3.37656928501E-07
  3.41904129814E-07  3.46204754342E-07  3.50559474068E-07  3.54968969424E-07
  3.59433929405E-07  3.63955051668E-07  3.68533042648E-07  3.73168617666E-07
  3.77862501040E-07  3.82615426198E-07  3.87428135796E-07  3.92301381827E-07
  3.97235925748E-07  4.02232538590E-07  4.07292001085E-07  4.12415103783E-07
  4.17602647181E-07  4.22855441842E-07  4.28174308526E-07  4.33560078316E-07
  4.39013592751E-07  4.44535703953E-07  4.50127274764E-07  4.55789178876E-07
  4.61522300976E-07  4.67327536873E-07  4.73205793650E-07  4.79157989794E-07
  4.85185055349E-07  4.91287932056E-07  4.97467573501E-07  5.03724945268E-07
  5.10061025082E-07  5.16476802968E-07  5.22973281406E-07  5.29551475484E-07
  5.36212413056E-07  5.42957134909E-07  5.49786694920E-07  5.56702160219E-07
  5.63704611364E-07  5.70795142501E-07  5.77974861541E-07  5.85244890329E-07
  5.92606364821E-07  6.00060435264E-07  6.07608266370E-07  6.15251037504E-07
  6.22989942865E-07  6.30826191671E-07  6.38761008354E-07  6.46795632744E-07
  6.54931320267E-07  6.63169342141E-07  6.71510985574E-07  6.79957553966E-07
  6.88510367108E-07  6.97170761396E-07  7.05940090033E-07  7.14819723246E-07
  7.23811048496E-07  7.32915470694E-07  7.42134412425E-07  7.51469314169E-07
  7.60921634521E-07  7.70492850427E-07  7.80184457409E-07  7.89997969799E-07
  7.99934920979E-07  8.09996863618E-07  8.20185369915E-07  8.30502031845E-07
  8.40948461407E-07  8.51526290877E-07  8.62237173063E-07  8.73082781561E-07
  8.84064811019E-07  8.95184977404E-07  9.06445018262E-07  9.17846692998E-07
  9.29391783148E-07  9.41082092654E-07  9.52919448153E-07  9.64905699253E-07
  9.77042718833E-07  9.89332403325E-07  1.00177667302E-06  1.01437747235E-06
  1.02713677023E-06  1.04005656032E-06  1.05313886137E-06  1.06638571750E-06
  1.07979919857E-06  1.09338140046E-06  1.10713444543E-06  1.12106048240E-06
  1.13516168735E-06  1.14944026362E-06  1.16389844228E-06  1.17853848243E-06
  1.19336267162E-06  1.20837332616E-06  1.22357279148E-06  1.23896344255E-06
  1.25454768417E-06  1.27032795142E-06  1.28630671000E-06  1.30248645662E-06
  1.31886971939E-06  1.33545905825E-06  1.35225706530E-06  1.36926636526E-06
  1.38648961588E-06  1.40392950833E-06  1.42158876762E-06  1.43947015304E-06
  1.45757645861E-06  1.47591051346E-06  1.49447518233E-06  1.51327336599E-06
  1.53230800169E-06  1.55158206363E-06  1.57109856343E-06  1.59086055058E-06