<PP_INFO>
Generated using Andrea Dal Corso code (rrkj3)
Author: Andrea Dal Corso   Generation date: unknown
Info:   Si PBE 3s2 3p2 RRKJ3
    0        The Pseudo was generated with a Non-Relativistic Calculation
  2.50000000000E+00    Local Potential cutoff radius
nl pn  l   occ               Rcut            Rcut US             E pseu
3S  1  0  2.00      2.50000000000      2.60000000000      0.00000000000
3S  1  0  0.00      2.50000000000      2.60000000000      0.00000000000
3P  2  1  2.00      2.50000000000      2.70000000000      0.00000000000
3D  3  2  0.00      2.50000000000      2.50000000000      0.00000000000
</PP_INFO>


<PP_HEADER>
   0                   Version Number
  Si                   Element
   NC                  Norm - Conserving pseudopotential
    F                  Nonlinear Core Correction
 SLA  PW   PBE  PBE    PBE  Exchange-Correlation functional
    4.00000000000      Z valence
   -7.47480832270      Total energy
  0.0000000  0.0000000 Suggested cutoff for wfc and rho
    2                  Max angular momentum component
  883                  Number of points in mesh
    2    3             Number of Wavefunctions, Number of Projectors
 Wavefunctions         nl  l   occ
                       3S  0  2.00
                       3P  1  2.00
</PP_HEADER>


<PP_MESH>
  <PP_R>
  1.77053726905E-04  1.79729551320E-04  1.82445815642E-04  1.85203131043E-04
  1.88002117930E-04  1.90843406086E-04  1.93727634813E-04  1.96655453076E-04
  1.99627519645E-04  2.02644503249E-04  2.05707082721E-04  2.08815947154E-04
  2.11971796056E-04  2.15175339506E-04  2.18427298316E-04  2.21728404189E-04
  2.25079399889E-04  2.28481039403E-04  2.31934088115E-04  2.35439322975E-04
  2.38997532677E-04  2.42609517831E-04  2.46276091150E-04  2.49998077629E-04
  2.53776314730E-04  2.57611652573E-04  2.61504954124E-04  2.65457095393E-04
  2.69468965628E-04  2.73541467517E-04  2.77675517391E-04  2.81872045428E-04
  2.86131995864E-04  2.90456327206E-04  2.94846012447E-04  2.99302039285E-04
  3.03825410344E-04  3.08417143402E-04  3.13078271619E-04  3.17809843768E-04
  3.22612924472E-04  3.27488594446E-04  3.32437950735E-04  3.37462106965E-04
  3.42562193593E-04  3.47739358159E-04  3.52994765549E-04  3.58329598249E-04
  3.63745056621E-04  3.69242359166E-04  3.74822742799E-04  3.80487463130E-04
  3.86237794746E-04  3.92075031495E-04  3.98000486780E-04  4.04015493854E-04
  4.10121406118E-04  4.16319597429E-04  4.22611462406E-04  4.28998416745E-04
  4.35481897537E-04  4.42063363593E-04  4.48744295772E-04  4.55526197309E-04
  4.62410594164E-04  4.69399035352E-04  4.76493093304E-04  4.83694364212E-04
  4.91004468393E-04  4.98425050650E-04  5.05957780647E-04  5.13604353278E-04
  5.21366489056E-04  5.29245934494E-04  5.37244462500E-04  5.45363872776E-04
  5.53605992224E-04  5.61972675356E-04  5.70465804711E-04  5.79087291279E-04
  5.87839074930E-04  5.96723124853E-04  6.05741439997E-04  6.14896049520E-04
  6.24189013248E-04  6.33622422138E-04  6.43198398745E-04  6.52919097706E-04
  6.62786706219E-04  6.72803444536E-04  6.82971566467E-04  6.93293359882E-04
  7.03771147228E-04  7.14407286050E-04  7.25204169526E-04  7.36164227000E-04
  7.47289924530E-04  7.58583765447E-04  7.70048290910E-04  7.81686080488E-04
  7.93499752732E-04  8.05491965767E-04  8.17665417893E-04  8.30022848188E-04
  8.42567037125E-04  8.55300807200E-04  8.68227023565E-04  8.81348594674E-04
  8.94668472934E-04  9.08189655375E-04  9.21915184320E-04  9.35848148071E-04
  9.49991681603E-04  9.64348967272E-04  9.78923235526E-04  9.93717765638E-04
  1.00873588644E-03  1.02398097707E-03  1.03945646774E-03  1.05516584051E-03
  1.07111263003E-03  1.08730042442E-03  1.10373286599E-03  1.12041365212E-03
  1.13734653604E-03  1.15453532773E-03  1.17198389474E-03  1.18969616306E-03
  1.20767611805E-03  1.22592780526E-03  1.24445533139E-03  1.26326286523E-03
  1.28235463854E-03  1.30173494705E-03  1.32140815142E-03  1.34137867819E-03
  1.36165102083E-03  1.38222974069E-03  1.40311946808E-03  1.42432490326E-03
  1.44585081756E-03  1.46770205439E-03  1.48988353037E-03  1.51240023644E-03
  1.53525723893E-03  1.55845968079E-03  1.58201278265E-03  1.60592184405E-03
  1.63019224465E-03  1.65482944538E-03  1.67983898971E-03  1.70522650491E-03
  1.73099770326E-03  1.75715838340E-03  1.78371443159E-03  1.81067182305E-03
  1.83803662331E-03  1.86581498957E-03  1.89401317206E-03  1.92263751552E-03
  1.95169446052E-03  1.98119054501E-03  2.01113240574E-03  2.04152677973E-03
  2.07238050587E-03  2.10370052636E-03  2.13549388835E-03  2.16776774547E-03
  2.20052935948E-03  2.23378610188E-03  2.26754545558E-03  2.30181501657E-03
  2.33660249564E-03  2.37191572014E-03  2.40776263568E-03  2.44415130798E-03
  2.48108992462E-03  2.51858679697E-03  2.55665036198E-03  2.59528918410E-03
  2.63451195723E-03  2.67432750667E-03  2.71474479108E-03  2.75577290453E-03
  2.79742107850E-03  2.83969868402E-03  2.88261523372E-03  2.92618038401E-03
  2.97040393723E-03  3.01529584386E-03  3.06086620479E-03  3.10712527352E-03
  3.15408345855E-03  3.20175132566E-03  3.25013960033E-03  3.29925917012E-03
  3.34912108714E-03  3.39973657054E-03  3.45111700900E-03  3.50327396336E-03
  3.55621916913E-03  3.60996453922E-03  3.66452216657E-03  3.71990432685E-03
  3.77612348131E-03  3.83319227948E-03  3.89112356208E-03  3.94993036391E-03
  4.00962591672E-03  4.07022365229E-03  4.13173720535E-03  4.19418041671E-03
  4.25756733635E-03  4.32191222661E-03  4.38722956536E-03  4.45353404926E-03
  4.52084059712E-03  4.58916435318E-03  4.65852069058E-03  4.72892521479E-03
  4.80039376712E-03  4.87294242831E-03  4.94658752210E-03  5.02134561894E-03
  5.09723353974E-03  5.17426835959E-03  5.25246741165E-03  5.33184829103E-03
  5.41242885877E-03  5.49422724585E-03  5.57726185723E-03  5.66155137605E-03
  5.74711476782E-03  5.83397128466E-03  5.92214046966E-03  6.01164216124E-03
  6.10249649767E-03  6.19472392155E-03  6.28834518446E-03  6.38338135155E-03
  6.47985380639E-03  6.57778425566E-03  6.67719473415E-03  6.77810760962E-03
  6.88054558789E-03  6.98453171795E-03  7.09008939712E-03  7.19724237631E-03
  7.30601476540E-03  7.41643103863E-03  7.52851604013E-03  7.64229498951E-03
  7.75779348750E-03  7.87503752175E-03  7.99405347267E-03  8.11486811934E-03
  8.23750864558E-03  8.36200264601E-03  8.48837813231E-03  8.61666353951E-03
  8.74688773236E-03  8.87908001184E-03  9.01327012179E-03  9.14948825554E-03
  9.28776506274E-03  9.42813165627E-03  9.57061961920E-03  9.71526101192E-03
  9.86208837935E-03  1.00111347583E-02  1.01624336848E-02  1.03160192017E-02
  1.04719258665E-02  1.06301887587E-02  1.07908434883E-02  1.09539262032E-02
  1.11194735977E-02  1.12875229207E-02  1.14581119839E-02  1.16312791707E-02
  1.18070634444E-02  1.19855043572E-02  1.21666420590E-02  1.23505173066E-02
  1.25371714726E-02  1.27266465552E-02  1.29189851869E-02  1.31142306448E-02
  1.33124268600E-02  1.35136184273E-02  1.37178506158E-02  1.39251693785E-02
  1.41356213631E-02  1.43492539222E-02  1.45661151239E-02  1.47862537629E-02
  1.50097193715E-02  1.52365622302E-02  1.54668333797E-02  1.57005846320E-02
  1.59378685820E-02  1.61787386197E-02  1.64232489419E-02  1.66714545644E-02
  1.69234113344E-02  1.71791759435E-02  1.74388059395E-02  1.77023597405E-02
  1.79698966471E-02  1.82414768563E-02  1.85171614747E-02  1.87970125326E-02
  1.90810929976E-02  1.93694667890E-02  1.96621987921E-02  1.99593548730E-02
  2.02610018928E-02  2.05672077236E-02  2.08780412629E-02  2.11935724496E-02
  2.15138722794E-02  2.18390128213E-02  2.21690672332E-02  2.25041097788E-02
  2.28442158440E-02  2.31894619542E-02  2.35399257911E-02  2.38956862106E-02
  2.42568232604E-02  2.46234181977E-02  2.49955535079E-02  2.53733129232E-02
  2.57567814409E-02  2.61460453431E-02  2.65411922159E-02  2.69423109688E-02
  2.73494918554E-02  2.77628264930E-02  2.81824078837E-02  2.86083304351E-02
  2.90406899815E-02  2.94795838056E-02  2.99251106605E-02  3.03773707916E-02
  3.08364659592E-02  3.13024994618E-02  3.17755761588E-02  3.22558024945E-02
  3.27432865218E-02  3.32381379267E-02  3.37404680529E-02  3.42503899268E-02
  3.47680182829E-02  3.52934695897E-02  3.58268620761E-02  3.63683157577E-02
  3.69179524637E-02  3.74758958648E-02  3.80422715005E-02  3.86172068078E-02
  3.92008311496E-02  3.97932758437E-02  4.03946741928E-02  4.10051615140E-02
  4.16248751696E-02  4.22539545976E-02  4.28925413437E-02  4.35407790926E-02
  4.41988137004E-02  4.48667932278E-02  4.55448679730E-02  4.62331905056E-02
  4.69319157011E-02  4.76412007756E-02  4.83612053213E-02  4.90920913422E-02
  4.98340232908E-02  5.05871681048E-02  5.13516952451E-02  5.21277767335E-02
  5.29155871916E-02  5.37153038800E-02  5.45271067383E-02  5.53511784258E-02
  5.61877043619E-02  5.70368727685E-02  5.78988747122E-02  5.87739041469E-02
  5.96621579579E-02  6.05638360063E-02  6.14791411732E-02  6.24082794063E-02
  6.33514597655E-02  6.43088944704E-02  6.52807989479E-02  6.62673918806E-02
  6.72688952560E-02  6.82855344166E-02  6.93175381106E-02  7.03651385431E-02
  7.14285714286E-02  7.25080760440E-02  7.36038952824E-02  7.47162757078E-02
  7.58454676104E-02  7.69917250632E-02  7.81553059789E-02  7.93364721683E-02
  8.05354893985E-02  8.17526274537E-02  8.29881601949E-02  8.42423656222E-02
  8.55155259373E-02  8.68079276064E-02  8.81198614255E-02  8.94516225851E-02
  9.08035107372E-02  9.21758300623E-02  9.35688893381E-02  9.49830020087E-02
  9.64184862554E-02  9.78756650684E-02  9.93548663188E-02  1.00856422833E-01
  1.02380672469E-01  1.03927958187E-01  1.05498628134E-01  1.07093035718E-01
  1.08711539687E-01  1.10354504211E-01  1.12022298964E-01  1.13715299206E-01
  1.15433885871E-01  1.17178445647E-01  1.18949371068E-01  1.20747060599E-01
  1.22571918727E-01  1.24424356055E-01  1.26304789388E-01  1.28213641831E-01
  1.30151342885E-01  1.32118328540E-01  1.34115041376E-01  1.36141930662E-01
  1.38199452457E-01  1.40288069712E-01  1.42408252375E-01  1.44560477494E-01
  1.46745229332E-01  1.48962999465E-01  1.51214286901E-01  1.53499598190E-01
  1.55819447536E-01  1.58174356915E-01  1.60564856191E-01  1.62991483238E-01
  1.65454784056E-01  1.67955312898E-01  1.70493632395E-01  1.73070313678E-01
  1.75685936511E-01  1.78341089422E-01  1.81036369830E-01  1.83772384185E-01
  1.86549748102E-01  1.89369086499E-01  1.92231033739E-01  1.95136233773E-01
  1.98085340283E-01  2.01079016830E-01  2.04117937005E-01  2.07202784576E-01
  2.10334253648E-01  2.13513048814E-01  2.16739885317E-01  2.20015489208E-01
  2.23340597513E-01  2.26715958395E-01  2.30142331323E-01  2.33620487248E-01
  2.37151208767E-01  2.40735290309E-01  2.44373538306E-01  2.48066771381E-01
  2.51815820526E-01  2.55621529293E-01  2.59484753982E-01  2.63406363836E-01
  2.67387241233E-01  2.71428281887E-01  2.75530395050E-01  2.79694503714E-01
  2.83921544821E-01  2.88212469474E-01  2.92568243148E-01  2.96989845911E-01
  3.01478272643E-01  3.06034533257E-01  3.10659652933E-01  3.15354672341E-01
  3.20120647881E-01  3.24958651918E-01  3.29869773021E-01  3.34855116216E-01
  3.39915803224E-01  3.45052972722E-01  3.50267780595E-01  3.55561400196E-01
  3.60935022612E-01  3.66389856931E-01  3.71927130513E-01  3.77548089269E-01
  3.83253997937E-01  3.89046140372E-01  3.94925819830E-01  4.00894359264E-01
  4.06953101619E-01  4.13103410140E-01  4.19346668670E-01  4.25684281970E-01
  4.32117676029E-01  4.38648298389E-01  4.45277618466E-01  4.52007127886E-01
  4.58838340816E-01  4.65772794309E-01  4.72812048646E-01  4.79957687688E-01
  4.87211319235E-01  4.94574575384E-01  5.02049112899E-01  5.09636613583E-01
  5.17338784654E-01  5.25157359135E-01  5.33094096237E-01  5.41150781760E-01
  5.49329228491E-01  5.57631276617E-01  5.66058794132E-01  5.74613677264E-01
  5.83297850898E-01  5.92113269009E-01  6.01061915103E-01  6.10145802664E-01
  6.19366975605E-01  6.28727508728E-01  6.38229508193E-01  6.47875111990E-01
  6.57666490420E-01  6.67605846585E-01  6.77695416883E-01  6.87937471508E-01
  6.98334314966E-01  7.08888286592E-01  7.19601761072E-01  7.30477148985E-01
  7.41516897338E-01  7.52723490121E-01  7.64099448865E-01  7.75647333209E-01
  7.87369741474E-01  7.99269311254E-01  8.11348720000E-01  8.23610685631E-01
  8.36057967141E-01  8.48693365221E-01  8.61519722889E-01  8.74539926129E-01
  8.87756904541E-01  9.01173632003E-01  9.14793127333E-01  9.28618454976E-01
  9.42652725690E-01  9.56899097243E-01  9.71360775131E-01  9.86041013291E-01
  1.00094311484E+00  1.01607043281E+00  1.03142637091E+00  1.04701438430E+00
  1.06283798035E+00  1.07890071942E+00  1.09520621571E+00  1.11175813801E+00
  1.12856021059E+00  1.14561621398E+00  1.16292998584E+00  1.18050542186E+00
  1.19834647658E+00  1.21645716431E+00  1.23484156004E+00  1.25350380033E+00
  1.27244808426E+00  1.29167867438E+00  1.31119989764E+00  1.33101614642E+00
  1.35113187945E+00  1.37155162285E+00  1.39227997115E+00  1.41332158831E+00
  1.43468120880E+00  1.45636363861E+00  1.47837375638E+00  1.50071651449E+00
  1.52339694014E+00  1.54642013654E+00  1.56979128398E+00  1.59351564109E+00
  1.61759854594E+00  1.64204541729E+00  1.66686175578E+00  1.69205314520E+00
  1.71762525372E+00  1.74358383516E+00  1.76993473033E+00  1.79668386827E+00
  1.82383726767E+00  1.85140103814E+00  1.87938138166E+00  1.90778459392E+00
  1.93661706576E+00  1.96588528461E+00  1.99559583595E+00  2.02575540476E+00
  2.05637077709E+00  2.08744884152E+00  2.11899659074E+00  2.15102112314E+00
  2.18352964436E+00  2.21652946897E+00  2.25002802205E+00  2.28403284094E+00
  2.31855157685E+00  2.35359199664E+00  2.38916198457E+00  2.42526954402E+00
  2.46192279935E+00  2.49912999769E+00  2.53689951083E+00  2.57523983706E+00
  2.61415960312E+00  2.65366756612E+00  2.69377261551E+00  2.73448377511E+00
  2.77581020510E+00  2.81776120409E+00  2.86034621123E+00  2.90357480835E+00
  2.94745672204E+00  2.99200182594E+00  3.03722014286E+00  3.08312184713E+00
  3.12971726683E+00  3.17701688611E+00  3.22503134759E+00  3.27377145474E+00
  3.32324817427E+00  3.37347263866E+00  3.42445614863E+00  3.47621017568E+00
  3.52874636468E+00  3.58207653650E+00  3.63621269066E+00  3.69116700801E+00
  3.74695185351E+00  3.80357977898E+00  3.86106352595E+00  3.91941602851E+00
  3.97865041620E+00  4.03878001702E+00  4.09981836039E+00  4.16177918018E+00
  4.22467641785E+00  4.28852422553E+00  4.35333696926E+00  4.41912923217E+00
  4.48591581780E+00  4.55371175342E+00  4.62253229339E+00  4.69239292262E+00
  4.76330936007E+00  4.83529756221E+00  4.90837372670E+00  4.98255429599E+00
  5.05785596102E+00  5.13429566498E+00  5.21189060712E+00  5.29065824663E+00
  5.37061630657E+00  5.45178277784E+00  5.53417592323E+00  5.61781428156E+00
  5.70271667179E+00  5.78890219734E+00  5.87639025030E+00  5.96520051586E+00
  6.05535297670E+00  6.14686791751E+00  6.23976592953E+00  6.33406791521E+00
  6.42979509289E+00  6.52696900160E+00  6.62561150587E+00  6.72574480067E+00
  6.82739141643E+00  6.93057422407E+00  7.03531644014E+00  7.14164163209E+00
  7.24957372354E+00  7.35913699966E+00  7.47035611265E+00  7.58325608728E+00
  7.69786232653E+00  7.81420061727E+00  7.93229713612E+00  8.05217845529E+00
  8.17387154858E+00  8.29740379746E+00  8.42280299719E+00  8.55009736313E+00
  8.67931553705E+00  8.81048659358E+00  8.94364004677E+00  9.07880585670E+00
  9.21601443624E+00  9.35529665792E+00  9.49668386081E+00  9.64020785763E+00
  9.78590094189E+00  9.93379589515E+00  1.00839259944E+01  1.02363250195E+01
  1.03910272610E+01  1.05480675274E+01  1.07074811535E+01  1.08693040080E+01
  1.10335725018E+01  1.12003235960E+01  1.13695948102E+01  1.15414242313E+01
  1.17158505214E+01  1.18929129274E+01  1.20726512889E+01  1.22551060479E+01
  1.24403182575E+01  1.26283295912E+01  1.28191823523E+01  1.30129194835E+01
  1.32095845765E+01  1.34092218817E+01  1.36118763185E+01  1.38175934848E+01
  1.40264196680E+01  1.42384018548E+01  1.44535877420E+01  1.46720257475E+01
  1.48937650206E+01  1.51188554538E+01  1.53473476932E+01  1.55792931505E+01
  1.58147440146E+01  1.60537532628E+01  1.62963746731E+01  1.65426628366E+01
  1.67926731689E+01  1.70464619236E+01  1.73040862041E+01  1.75656039771E+01
  1.78310740850E+01  1.81005562598E+01  1.83741111361E+01  1.86518002650E+01
  1.89336861276E+01  1.92198321494E+01  1.95103027146E+01  1.98051631802E+01
  2.01044798911E+01  2.04083201948E+01  2.07167524566E+01  2.10298460751E+01
  2.13476714976E+01  2.16703002364E+01  2.19978048841E+01  2.23302591307E+01
  2.26677377798E+01  2.30103167656E+01  2.33580731697E+01  2.37110852388E+01
  2.40694324021E+01  2.44331952893E+01  2.48024557485E+01  2.51772968648E+01
  2.55578029792E+01  2.59440597071E+01  2.63361539578E+01  2.67341739543E+01
  2.71382092527E+01  2.75483507627E+01  2.79646907678E+01  2.83873229464E+01
  2.88163423923E+01  2.92518456369E+01  2.96939306701E+01  3.01426969631E+01
  3.05982454899E+01  3.10606787512E+01  3.15301007961E+01  3.20066172468E+01
  3.24903353214E+01  3.29813638585E+01  3.34798133416E+01  3.39857959240E+01
  3.44994254538E+01  3.50208174999E+01  3.55500893776E+01  3.60873601755E+01
  3.66327507816E+01  3.71863839112E+01  3.77483841341E+01  3.83188779027E+01
  3.88979935804E+01  3.94858614708E+01  4.00826138466E+01  4.06883849797E+01
  4.13033111710E+01  4.19275307816E+01  4.25611842634E+01  4.32044141913E+01
  4.38573652947E+01  4.45201844903E+01  4.51930209152E+01  4.58760259604E+01
  4.65693533051E+01  4.72731589507E+01  4.79876012565E+01  4.87128409750E+01
  4.94490412883E+01  5.01963678445E+01  5.09549887952E+01  5.17250748334E+01
  5.25067992316E+01  5.33003378811E+01  5.41058693316E+01  5.49235748309E+01
  5.57536383662E+01  5.65962467054E+01  5.74515894389E+01  5.83198590223E+01
  5.92012508201E+01  6.00959631491E+01  6.10041973233E+01  6.19261576993E+01
  6.28620517220E+01  6.38120899715E+01  6.47764862105E+01  6.57554574322E+01
  6.67492239092E+01  6.77580092432E+01  6.87820404151E+01  6.98215478363E+01
  7.08767654004E+01  7.19479305356E+01  7.30352842588E+01  7.41390712290E+01
  7.52595398030E+01  7.63969420910E+01  7.75515340133E+01  7.87235753579E+01
  7.99133298390E+01  8.11210651565E+01  8.23470530560E+01  8.35915693897E+01
  8.48548941792E+01  8.61373116779E+01  8.74391104351E+01  8.87605833611E+01
  9.01020277927E+01  9.14637455608E+01  9.28460430574E+01  9.42492313055E+01
  9.56736260282E+01  9.71195477204E+01  9.85873217205E+01
  </PP_R>
  <PP_RAB>
  2.65580590357E-06  2.69594326980E-06  2.73668723464E-06  2.77804696565E-06
  2.82003176894E-06  2.86265109129E-06  2.90591452220E-06  2.94983179614E-06
  2.99441279468E-06  3.03966754873E-06  3.08560624081E-06  3.13223920730E-06
  3.17957694084E-06  3.22763009259E-06  3.27640947474E-06  3.32592606284E-06
  3.37619099833E-06  3.42721559105E-06  3.47901132173E-06  3.53158984463E-06
  3.58496299015E-06  3.63914276746E-06  3.69414136725E-06  3.74997116444E-06
  3.80664472095E-06  3.86417478859E-06  3.92257431185E-06  3.98185643089E-06
  4.04203448442E-06  4.10312201276E-06  4.16513276087E-06  4.22808068142E-06
  4.29197993795E-06  4.35684490809E-06  4.42269018670E-06  4.48953058927E-06
  4.55738115516E-06  4.62625715104E-06  4.69617407429E-06  4.76714765652E-06
  4.83919386708E-06  4.91232891669E-06  4.98656926102E-06  5.06193160447E-06
  5.13843290389E-06  5.21609037239E-06  5.29492148323E-06  5.37494397374E-06
  5.45617584932E-06  5.53863538749E-06  5.62234114198E-06  5.70731194695E-06
  5.79356692119E-06  5.88112547242E-06  5.97000730170E-06  6.06023240781E-06
  6.15182109177E-06  6.24479396144E-06  6.33917193609E-06  6.43497625117E-06
  6.53222846305E-06  6.63095045390E-06  6.73116443657E-06  6.83289295964E-06
  6.93615891245E-06  7.04098553028E-06  7.14739639956E-06  7.25541546318E-06
  7.36506702589E-06  7.47637575975E-06  7.58936670970E-06  7.70406529917E-06
  7.82049733584E-06  7.93868901741E-06  8.05866693749E-06  8.18045809164E-06
  8.30408988336E-06  8.42959013034E-06  8.55698707067E-06  8.68630936918E-06
  8.81758612395E-06  8.95084687280E-06  9.08612159995E-06  9.22344074280E-06
  9.36283519872E-06  9.50433633207E-06  9.64797598118E-06  9.79378646560E-06
  9.94180059328E-06  1.00920516680E-05  1.02445734970E-05  1.03994003982E-05
  1.05565672084E-05  1.07161092908E-05  1.08780625429E-05  1.10424634050E-05
  1.12093488680E-05  1.13787564817E-05  1.15507243637E-05  1.17252912073E-05
  1.19024962910E-05  1.20823794865E-05  1.22649812684E-05  1.24503427228E-05
  1.26385055569E-05  1.28295121080E-05  1.30234053535E-05  1.32202289201E-05
  1.34200270940E-05  1.36228448306E-05  1.38287277648E-05  1.40377222211E-05
  1.42498752240E-05  1.44652345091E-05  1.46838485329E-05  1.49057664846E-05
  1.51310382966E-05  1.53597146561E-05  1.55918470162E-05  1.58274876076E-05
  1.60666894505E-05  1.63095063663E-05  1.65559929899E-05  1.68062047817E-05
  1.70601980405E-05  1.73180299159E-05  1.75797584210E-05  1.78454424460E-05
  1.81151417708E-05  1.83889170789E-05  1.86668299709E-05  1.89489429784E-05
  1.92353195780E-05  1.95260242057E-05  1.98211222712E-05  2.01206801729E-05
  2.04247653124E-05  2.07334461104E-05  2.10467920211E-05  2.13648735489E-05
  2.16877622634E-05  2.20155308158E-05  2.23482529556E-05  2.26860035466E-05
  2.30288585840E-05  2.33768952118E-05  2.37301917397E-05  2.40888276608E-05
  2.44528836697E-05  2.48224416807E-05  2.51975848457E-05  2.55783975737E-05
  2.59649655490E-05  2.63573757510E-05  2.67557164739E-05  2.71600773458E-05
  2.75705493497E-05  2.79872248435E-05  2.84101975810E-05  2.88395627327E-05
  2.92754169078E-05  2.97178581752E-05  3.01669860860E-05  3.06229016960E-05
  3.10857075881E-05  3.15555078955E-05  3.20324083253E-05  3.25165161821E-05
  3.30079403922E-05  3.35067915282E-05  3.40131818336E-05  3.45272252485E-05
  3.50490374347E-05  3.55787358021E-05  3.61164395353E-05  3.66622696196E-05
  3.72163488694E-05  3.77788019546E-05  3.83497554296E-05  3.89293377614E-05
  3.95176793585E-05  4.01149126001E-05  4.07211718663E-05  4.13365935679E-05
  4.19613161775E-05  4.25954802602E-05  4.32392285057E-05  4.38927057601E-05
  4.45560590584E-05  4.52294376580E-05  4.59129930718E-05  4.66068791028E-05
  4.73112518782E-05  4.80262698849E-05  4.87520940050E-05  4.94888875518E-05
  5.02368163071E-05  5.09960485581E-05  5.17667551351E-05  5.25491094504E-05
  5.33432875370E-05  5.41494680884E-05  5.49678324985E-05  5.57985649028E-05
  5.66418522197E-05  5.74978841922E-05  5.83668534313E-05  5.92489554586E-05
  6.01443887509E-05  6.10533547843E-05  6.19760580802E-05  6.29127062506E-05
  6.38635100453E-05  6.48286833992E-05  6.58084434804E-05  6.68030107389E-05
  6.78126089568E-05  6.88374652977E-05  6.98778103587E-05  7.09338782219E-05
  7.20059065069E-05  7.30941364246E-05  7.41988128314E-05  7.53201842842E-05
  7.64585030961E-05  7.76140253938E-05  7.87870111747E-05  7.99777243655E-05
  8.11864328816E-05  8.24134086877E-05  8.36589278584E-05  8.49232706408E-05
  8.62067215174E-05  8.75095692700E-05  8.88321070448E-05  9.01746324185E-05
  9.15374474650E-05  9.29208588233E-05  9.43251777668E-05  9.57507202733E-05
  9.71978070958E-05  9.86667638349E-05  1.00157921012E-04  1.01671614144E-04
  1.03208183818E-04  1.04767975769E-04  1.06351340957E-04  1.07958635645E-04
  1.09590221481E-04  1.11246465579E-04  1.12927740602E-04  1.14634424843E-04
  1.16366902312E-04  1.18125562826E-04  1.19910802090E-04  1.21723021790E-04
  1.23562629684E-04  1.25430039690E-04  1.27325671985E-04  1.29249953093E-04
  1.31203315985E-04  1.33186200178E-04  1.35199051827E-04  1.37242323833E-04
  1.39316475941E-04  1.41421974844E-04  1.43559294288E-04  1.45728915179E-04
  1.47931325690E-04  1.50167021374E-04  1.52436505271E-04  1.54740288025E-04
  1.57078887997E-04  1.59452831381E-04  1.61862652325E-04  1.64308893048E-04
  1.66792103966E-04  1.69312843810E-04  1.71871679759E-04  1.74469187561E-04
  1.77105951666E-04  1.79782565357E-04  1.82499630884E-04  1.85257759598E-04
  1.88057572090E-04  1.90899698328E-04  1.93784777804E-04  1.96713459673E-04
  1.99686402899E-04  2.02704276409E-04  2.05767759237E-04  2.08877540678E-04
  2.12034320447E-04  2.15238808832E-04  2.18491726858E-04  2.21793806444E-04
  2.25145790572E-04  2.28548433453E-04  2.32002500696E-04  2.35508769480E-04
  2.39068028730E-04  2.42681079296E-04  2.46348734129E-04  2.50071818466E-04
  2.53851170017E-04  2.57687639152E-04  2.61582089093E-04  2.65535396108E-04
  2.69548449707E-04  2.73622152844E-04  2.77757422121E-04  2.81955187989E-04
  2.86216394963E-04  2.90542001835E-04  2.94932981882E-04  2.99390323094E-04
  3.03915028393E-04  3.08508115854E-04  3.13170618944E-04  3.17903586744E-04
  3.22708084192E-04  3.27585192320E-04  3.32536008499E-04  3.37561646682E-04
  3.42663237660E-04  3.47841929313E-04  3.53098886866E-04  3.58435293159E-04
  3.63852348905E-04  3.69351272965E-04  3.74933302619E-04  3.80599693848E-04
  3.86351721614E-04  3.92190680147E-04  3.98117883238E-04  4.04134664532E-04
  4.10242377830E-04  4.16442397395E-04  4.22736118255E-04  4.29124956526E-04
  4.35610349722E-04  4.42193757085E-04  4.48876659908E-04  4.55660561874E-04
  4.62546989388E-04  4.69537491927E-04  4.76633642382E-04  4.83837037417E-04
  4.91149297827E-04  4.98572068901E-04  5.06107020794E-04  5.13755848902E-04
  5.21520274243E-04  5.29402043846E-04  5.37402931142E-04  5.45524736365E-04
  5.53769286955E-04  5.62138437971E-04  5.70634072507E-04  5.79258102117E-04
  5.88012467244E-04  5.96899137656E-04  6.05920112892E-04  6.15077422710E-04
  6.24373127544E-04  6.33809318964E-04  6.43388120156E-04  6.53111686389E-04
  6.62982205507E-04  6.73001898417E-04  6.83173019595E-04  6.93497857584E-04
  7.03978735516E-04  7.14618011634E-04  7.25418079819E-04  7.36381370133E-04
  7.47510349362E-04  7.58807521573E-04  7.70275428677E-04  7.81916651003E-04
  7.93733807873E-04  8.05729558199E-04  8.17906601075E-04  8.30267676387E-04
  8.42815565428E-04  8.55553091528E-04  8.68483120682E-04  8.81608562203E-04
  8.94932369369E-04  9.08457540094E-04  9.22187117598E-04  9.36124191094E-04
  9.50271896483E-04  9.64633417057E-04  9.79211984219E-04  9.94010878209E-04
  1.00903342884E-03  1.02428301625E-03  1.03976307166E-03  1.05547707815E-03
  1.07142857143E-03  1.08762114066E-03  1.10405842924E-03  1.12074413562E-03
  1.13768201416E-03  1.15487587595E-03  1.17232958968E-03  1.19004708252E-03
  1.20803234098E-03  1.22628941180E-03  1.24482240292E-03  1.26363548433E-03
  1.28273288906E-03  1.30211891410E-03  1.32179792138E-03  1.34177433878E-03
  1.36205266106E-03  1.38263745094E-03  1.40353334007E-03  1.42474503013E-03
  1.44627729383E-03  1.46813497603E-03  1.49032299478E-03  1.51284634250E-03
  1.53571008703E-03  1.55891937281E-03  1.58247942202E-03  1.60639553578E-03
  1.63067309531E-03  1.65531756316E-03  1.68033448445E-03  1.70572948809E-03
  1.73150828806E-03  1.75767668470E-03  1.78424056601E-03  1.81120590898E-03
  1.83857878091E-03  1.86636534083E-03  1.89457184082E-03  1.92320462747E-03
  1.95227014328E-03  1.98177492810E-03  2.01172562064E-03  2.04212895993E-03
  2.07299178686E-03  2.10432104568E-03  2.13612378562E-03  2.16840716242E-03
  2.20117843998E-03  2.23444499197E-03  2.26821430351E-03  2.30249397284E-03
  2.33729171303E-03  2.37261535372E-03  2.40847284287E-03  2.44487224857E-03
  2.48182176084E-03  2.51932969347E-03  2.55740448592E-03  2.59605470516E-03
  2.63528904767E-03  2.67511634133E-03  2.71554554745E-03  2.75658576277E-03
  2.79824622152E-03  2.84053629748E-03  2.88346550609E-03  2.92704350660E-03
  2.97128010425E-03  3.01618525245E-03  3.06176905507E-03  3.10804176864E-03
  3.15501380471E-03  3.20269573221E-03  3.25109827975E-03  3.30023233813E-03
  3.35010896270E-03  3.40073937592E-03  3.45213496985E-03  3.50430730871E-03
  3.55726813150E-03  3.61102935463E-03  3.66560307460E-03  3.72100157072E-03
  3.77723730789E-03  3.83432293939E-03  3.89227130974E-03  3.95109545754E-03
  4.01080861849E-03  4.07142422831E-03  4.13295592575E-03  4.19541755571E-03
  4.25882317232E-03  4.32318704211E-03  4.38852364722E-03  4.45484768867E-03
  4.52217408964E-03  4.59051799886E-03  4.65989479400E-03  4.73032008512E-03
  4.80180971822E-03  4.87437977876E-03  4.94804659532E-03  5.02282674324E-03
  5.09873704836E-03  5.17579459083E-03  5.25401670892E-03  5.33342100294E-03
  5.41402533918E-03  5.49584785396E-03  5.57890695769E-03  5.66322133903E-03
  5.74880996906E-03  5.83569210559E-03  5.92388729745E-03  6.01341538896E-03
  6.10429652429E-03  6.19655115210E-03  6.29020003005E-03  6.38526422955E-03
  6.48176514044E-03  6.57972447583E-03  6.67916427699E-03  6.78010691829E-03
  6.88257511225E-03  6.98659191464E-03  7.09218072969E-03  7.19936531532E-03
  7.30816978853E-03  7.41861863076E-03  7.53073669349E-03  7.64454920374E-03
  7.76008176982E-03  7.87736038703E-03  7.99641144356E-03  8.11726172640E-03
  8.23993842737E-03  8.36446914925E-03  8.49088191198E-03  8.61920515896E-03
  8.74946776347E-03  8.88169903513E-03  9.01592872654E-03  9.15218703996E-03
  9.29050463407E-03  9.43091263092E-03  9.57344262289E-03  9.71812667985E-03
  9.86499735630E-03  1.00140876988E-02  1.01654312532E-02  1.03190620726E-02
  1.04750147245E-02  1.06333242989E-02  1.07940264161E-02  1.09571572348E-02
  1.11227534601E-02  1.12908523518E-02  1.14614917330E-02  1.16347099981E-02
  1.18105461221E-02  1.19890396688E-02  1.21702308000E-02  1.23541602845E-02
  1.25408695071E-02  1.27304004783E-02  1.29227958433E-02  1.31180988919E-02
  1.33163535681E-02  1.35176044800E-02  1.37218969100E-02  1.39292768246E-02
  1.41397908853E-02  1.43534864587E-02  1.45704116270E-02  1.47906151994E-02
  1.50141467226E-02  1.52410564921E-02  1.54713955637E-02  1.57052157646E-02
  1.59425697052E-02  1.61835107913E-02  1.64280932356E-02  1.66763720702E-02
  1.69284031589E-02  1.71842432096E-02  1.74439497876E-02  1.77075813279E-02
  1.79751971487E-02  1.82468574647E-02  1.85226234006E-02  1.88025570049E-02
  1.90867212639E-02  1.93751801156E-02  1.96679984647E-02  1.99652421963E-02
  2.02669781917E-02  2.05732743427E-02  2.08841995672E-02  2.11998238247E-02
  2.15202181320E-02  2.18454545792E-02  2.21756063458E-02  2.25107477174E-02