
     Program PWSCF v.4.2        starts on 30Aug2010 at  7:34: 6 

     This program is part of the open-source Quantum ESPRESSO suite
     for quantum simulation of materials; please cite
         "P. Giannozzi et al., J. Phys.:Condens. Matter 21 395502 (2009);
          URL http://www.quantum-espresso.org", 
     in publications or presentations arising from this work. More details at
     http://www.quantum-espresso.org/wiki/index.php/Citing_Quantum-ESPRESSO

     Current dimensions of program PWSCF are:
     Max number of different atomic species (ntypx) = 10
     Max number of k-points (npk) =  40000
     Max angular momentum in pseudopotentials (lmaxx) =  3
     Waiting for input...


     bravais-lattice index     =            1
     lattice parameter (a_0)   =       7.3699  a.u.
     unit-cell volume          =     400.2993 (a.u.)^3
     number of atoms/cell      =            5
     number of atomic types    =            3
     number of electrons       =        44.00
     number of Kohn-Sham states=           25
     kinetic-energy cutoff     =      25.0000  Ry
     charge density cutoff     =     200.0000  Ry
     convergence threshold     =      1.0E-12
     mixing beta               =       0.3000
     number of iterations used =            8  plain     mixing
     Exchange-correlation      =  SLA  PZ   NOGX NOGC (1100)
     EXX-fraction              =        0.00

     celldm(1)=   7.369900  celldm(2)=   0.000000  celldm(3)=   0.000000
     celldm(4)=   0.000000  celldm(5)=   0.000000  celldm(6)=   0.000000

     crystal axes: (cart. coord. in units of a_0)
               a(1) = (   1.000000   0.000000   0.000000 )  
               a(2) = (   0.000000   1.000000   0.000000 )  
               a(3) = (   0.000000   0.000000   1.000000 )  

     reciprocal axes: (cart. coord. in units 2 pi/a_0)
               b(1) = (  1.000000  0.000000  0.000000 )  
               b(2) = (  0.000000  1.000000  0.000000 )  
               b(3) = (  0.000000  0.000000  1.000000 )  


     PseudoPot. # 1 for Pb read from file Pb.pz-d-van.UPF
     MD5 check sum: 538fb1cee63a8844ad826065d2f15c46
     Pseudo is Ultrasoft, Zval = 14.0
     Generated by new atomic code, or converted to UPF format
     Using radial grid of  899 points,  6 beta functions with: 
                l(1) =   0
                l(2) =   0
                l(3) =   1
                l(4) =   1
                l(5) =   2
                l(6) =   2
     Q(r) pseudized with  8 coefficients,  rinner =    1.000   1.000   1.000
                                                       1.000   1.000

     PseudoPot. # 2 for Ti read from file Ti.pz-sp-van_ak.UPF
     MD5 check sum: f67a6ac64ee61a7ecf7fe5a85c09e74a
     Pseudo is Ultrasoft, Zval = 12.0
     Generated by new atomic code, or converted to UPF format
     Using radial grid of  851 points,  6 beta functions with: 
                l(1) =   0
                l(2) =   0
                l(3) =   1
                l(4) =   1
                l(5) =   2
                l(6) =   2
     Q(r) pseudized with  5 coefficients,  rinner =    1.000   1.000   1.000
                                                       1.000   1.000

     PseudoPot. # 3 for O  read from file O.pz-van_ak.UPF
     MD5 check sum: a88cfb3d8e2d890594819b68c625574b
     Pseudo is Ultrasoft, Zval =  6.0
     Generated by new atomic code, or converted to UPF format
     Using radial grid of  737 points,  4 beta functions with: 
                l(1) =   0
                l(2) =   0
                l(3) =   1
                l(4) =   1
     Q(r) pseudized with  8 coefficients,  rinner =    0.700   0.700   0.700


     atomic species   valence    mass     pseudopotential
        Pb            14.00   207.20000     Pb( 1.00)
        Ti            12.00    47.86700     Ti( 1.00)
        O              6.00    15.99940     O ( 1.00)

      8 Sym.Ops. (no inversion)


   Cartesian axes

     site n.     atom                  positions (a_0 units)
         1           Pb  tau(  1) = (   0.0000000   0.0000000   0.0100000  )
         2           Ti  tau(  2) = (   0.5000000   0.5000000   0.5000000  )
         3           O   tau(  3) = (   0.0000000   0.5000000   0.5000000  )
         4           O   tau(  4) = (   0.5000000   0.5000000   0.0000000  )
         5           O   tau(  5) = (   0.5000000   0.0000000   0.5000000  )

     number of k points=     1
                       cart. coord. in units 2pi/a_0
        k(    1) = (   0.2500000   0.2500000   0.2500000), wk =   2.0000000

     G cutoff =  275.1652  (  19213 G-vectors)     FFT grid: ( 36, 36, 36)
     G cutoff =  137.5826  (   6763 G-vectors)  smooth grid: ( 24, 24, 24)

     Largest allocated arrays     est. size (Mb)     dimensions
        Kohn-Sham Wavefunctions         0.32 Mb     (    847,  25)
        NL pseudopotentials             0.78 Mb     (    847,  60)
        Each V/rho on FFT grid          0.71 Mb     (  46656)
        Each G-vector array             0.15 Mb     (  19213)
        G-vector shells                 0.00 Mb     (    232)
     Largest temporary arrays     est. size (Mb)     dimensions
        Auxiliary wavefunctions         1.29 Mb     (    847, 100)
        Each subspace H/S matrix        0.15 Mb     (    100, 100)
        Each <psi_i|beta_j> matrix      0.02 Mb     (     60,  25)
        Arrays for rho mixing           5.70 Mb     (  46656,   8)

     Initial potential from superposition of free atoms

     starting charge   42.99817, renormalised to   44.00000
     Starting wfc are   31 atomic wfcs

     total cpu time spent up to now is      1.87 secs

     per-process dynamical memory:    36.6 Mb

     Self-consistent Calculation

     iteration #  1     ecut=    25.00 Ry     beta=0.30
     Davidson diagonalization with overlap
     ethr =  1.00E-02,  avg # of iterations =  2.0

     total cpu time spent up to now is      1.99 secs

     total energy              =    -333.61778354 Ry
     Harris-Foulkes estimate   =    -334.04944849 Ry
     estimated scf accuracy    <       0.95707807 Ry

     iteration #  2     ecut=    25.00 Ry     beta=0.30
     Davidson diagonalization with overlap
     ethr =  2.18E-03,  avg # of iterations =  2.0

     total cpu time spent up to now is      2.10 secs

     total energy              =    -333.70190517 Ry
     Harris-Foulkes estimate   =    -333.77699944 Ry
     estimated scf accuracy    <       0.18343562 Ry

     iteration #  3     ecut=    25.00 Ry     beta=0.30
     Davidson diagonalization with overlap
     ethr =  4.17E-04,  avg # of iterations =  4.0

     total cpu time spent up to now is      2.21 secs

     total energy              =    -333.71435499 Ry
     Harris-Foulkes estimate   =    -333.73141351 Ry
     estimated scf accuracy    <       0.03731771 Ry

     iteration #  4     ecut=    25.00 Ry     beta=0.30
     Davidson diagonalization with overlap
     ethr =  8.48E-05,  avg # of iterations =  3.0

     total cpu time spent up to now is      2.33 secs

     total energy              =    -333.71630592 Ry
     Harris-Foulkes estimate   =    -333.71977928 Ry
     estimated scf accuracy    <       0.00694914 Ry

     iteration #  5     ecut=    25.00 Ry     beta=0.30
     Davidson diagonalization with overlap
     ethr =  1.58E-05,  avg # of iterations =  5.0

     total cpu time spent up to now is      2.48 secs

     total energy              =    -333.71725342 Ry
     Harris-Foulkes estimate   =    -333.71819520 Ry
     estimated scf accuracy    <       0.00267384 Ry

     iteration #  6     ecut=    25.00 Ry     beta=0.30
     Davidson diagonalization with overlap
     ethr =  6.08E-06,  avg # of iterations =  4.0

     total cpu time spent up to now is      2.59 secs

     total energy              =    -333.71743793 Ry
     Harris-Foulkes estimate   =    -333.71753856 Ry
     estimated scf accuracy    <       0.00024634 Ry

     iteration #  7     ecut=    25.00 Ry     beta=0.30
     Davidson diagonalization with overlap
     ethr =  5.60E-07,  avg # of iterations =  4.0

     total cpu time spent up to now is      2.73 secs

     total energy              =    -333.71752825 Ry
     Harris-Foulkes estimate   =    -333.71754162 Ry
     estimated scf accuracy    <       0.00005367 Ry

     iteration #  8     ecut=    25.00 Ry     beta=0.30
     Davidson diagonalization with overlap
     ethr =  1.22E-07,  avg # of iterations =  1.0

     total cpu time spent up to now is      2.83 secs

     total energy              =    -333.71752345 Ry
     Harris-Foulkes estimate   =    -333.71753037 Ry
     estimated scf accuracy    <       0.00001705 Ry

     iteration #  9     ecut=    25.00 Ry     beta=0.30
     Davidson diagonalization with overlap
     ethr =  3.87E-08,  avg # of iterations =  3.0

     total cpu time spent up to now is      2.95 secs

     total energy              =    -333.71752703 Ry
     Harris-Foulkes estimate   =    -333.71752709 Ry
     estimated scf accuracy    <       0.00000049 Ry

     iteration # 10     ecut=    25.00 Ry     beta=0.30
     Davidson diagonalization with overlap
     ethr =  1.12E-09,  avg # of iterations =  2.0

     total cpu time spent up to now is      3.06 secs

     total energy              =    -333.71752697 Ry
     Harris-Foulkes estimate   =    -333.71752693 Ry
     estimated scf accuracy    <       0.00000006 Ry

     iteration # 11     ecut=    25.00 Ry     beta=0.30
     Davidson diagonalization with overlap
     ethr =  1.47E-10,  avg # of iterations =  3.0

     total cpu time spent up to now is      3.18 secs

     total energy              =    -333.71752740 Ry
     Harris-Foulkes estimate   =    -333.71752685 Ry
     estimated scf accuracy    <          9.7E-09 Ry

     iteration # 12     ecut=    25.00 Ry     beta=0.30
     Davidson diagonalization with overlap
     ethr =  2.20E-11,  avg # of iterations =  2.0

     total cpu time spent up to now is      3.29 secs

     total energy              =    -333.71752732 Ry
     Harris-Foulkes estimate   =    -333.71752730 Ry
     estimated scf accuracy    <          1.8E-09 Ry

     iteration # 13     ecut=    25.00 Ry     beta=0.30
     Davidson diagonalization with overlap
     ethr =  4.04E-12,  avg # of iterations =  2.0

     total cpu time spent up to now is      3.40 secs

     total energy              =    -333.71752725 Ry
     Harris-Foulkes estimate   =    -333.71752725 Ry
     estimated scf accuracy    <          3.9E-10 Ry

     iteration # 14     ecut=    25.00 Ry     beta=0.30
     Davidson diagonalization with overlap
     ethr =  8.79E-13,  avg # of iterations =  3.0

     total cpu time spent up to now is      3.52 secs

     total energy              =    -333.71752721 Ry
     Harris-Foulkes estimate   =    -333.71752720 Ry
     estimated scf accuracy    <          3.8E-11 Ry

     iteration # 15     ecut=    25.00 Ry     beta=0.30
     Davidson diagonalization with overlap
     ethr =  8.54E-14,  avg # of iterations =  3.0

     total cpu time spent up to now is      3.64 secs

     total energy              =    -333.71752717 Ry
     Harris-Foulkes estimate   =    -333.71752717 Ry
     estimated scf accuracy    <          4.1E-12 Ry

     iteration # 16     ecut=    25.00 Ry     beta=0.30
     Davidson diagonalization with overlap
     ethr =  9.38E-15,  avg # of iterations =  3.0

     total cpu time spent up to now is      3.75 secs

     End of self-consistent calculation

          k = 0.2500 0.2500 0.2500 (   847 PWs)   bands (ev):

   -44.7108 -21.3460 -21.3453 -21.3448  -5.9499  -5.3567  -5.3500  -4.4750
    -4.4687  -4.3654  -4.1915  -4.1810   3.6063   6.7126   6.7147   7.5228
     7.7593   7.7601   9.7704   9.9195   9.9229  10.1417  13.9183  14.4108
    14.4120

     highest occupied, lowest unoccupied level (ev):    10.1417   13.9183

!    total energy              =    -333.71752714 Ry
     Harris-Foulkes estimate   =    -333.71752714 Ry
     estimated scf accuracy    <          8.1E-13 Ry

     The total energy is the sum of the following terms:

     one-electron contribution =     -80.23093261 Ry
     hartree contribution      =      67.73579907 Ry
     xc contribution           =     -49.67975058 Ry
     ewald contribution        =    -271.54264303 Ry

     convergence has been achieved in  16 iterations

     Writing output data file pwscf.save
 
     init_run     :      1.71s CPU      1.73s WALL (       1 calls)
     electrons    :      1.83s CPU      1.88s WALL (       1 calls)

     Called by init_run:
     wfcinit      :      0.03s CPU      0.03s WALL (       1 calls)
     potinit      :      0.03s CPU      0.03s WALL (       1 calls)
     realus       :      0.29s CPU      0.31s WALL (       1 calls)

     Called by electrons:
     c_bands      :      1.10s CPU      1.14s WALL (      16 calls)
     sum_band     :      0.35s CPU      0.35s WALL (      16 calls)
     v_of_rho     :      0.12s CPU      0.12s WALL (      17 calls)
     newd         :      0.06s CPU      0.06s WALL (      17 calls)
     mix_rho      :      0.09s CPU      0.09s WALL (      16 calls)

     Called by c_bands:
     init_us_2    :      0.03s CPU      0.03s WALL (      33 calls)
     cegterg      :      1.03s CPU      1.06s WALL (      16 calls)

     Called by *egterg:
     h_psi        :      0.70s CPU      0.70s WALL (      63 calls)
     s_psi        :      0.05s CPU      0.05s WALL (      63 calls)
     g_psi        :      0.02s CPU      0.02s WALL (      46 calls)
     cdiaghg      :      0.11s CPU      0.14s WALL (      62 calls)

     Called by h_psi:
     add_vuspsi   :      0.05s CPU      0.06s WALL (      63 calls)

     General routines
     calbec       :      0.08s CPU      0.08s WALL (      79 calls)
     fft          :      0.15s CPU      0.16s WALL (     115 calls)
     ffts         :      0.02s CPU      0.02s WALL (      33 calls)
     fftw         :      0.60s CPU      0.60s WALL (    2396 calls)
     interpolate  :      0.07s CPU      0.07s WALL (      33 calls)
     davcio       :      0.00s CPU      0.00s WALL (      16 calls)
 
 
     PWSCF        :     3.71s CPU         3.89s WALL

 
   This run was terminated on:   7:34:10  30Aug2010            

=------------------------------------------------------------------------------=
   JOB DONE.
=------------------------------------------------------------------------------=
