
     Program PWSCF v.4.2        starts on 30Aug2010 at  7:34:22 

     This program is part of the open-source Quantum ESPRESSO suite
     for quantum simulation of materials; please cite
         "P. Giannozzi et al., J. Phys.:Condens. Matter 21 395502 (2009);
          URL http://www.quantum-espresso.org", 
     in publications or presentations arising from this work. More details at
     http://www.quantum-espresso.org/wiki/index.php/Citing_Quantum-ESPRESSO

     Current dimensions of program PWSCF are:
     Max number of different atomic species (ntypx) = 10
     Max number of k-points (npk) =  40000
     Max angular momentum in pseudopotentials (lmaxx) =  3
     Waiting for input...
     file N.pbe-paw_kj.UPF: wavefunction(s)  2P renormalized

     gamma-point specific algorithms are used


     bravais-lattice index     =            1
     lattice parameter (a_0)   =      12.0000  a.u.
     unit-cell volume          =    1728.0000 (a.u.)^3
     number of atoms/cell      =            5
     number of atomic types    =            2
     number of electrons       =         8.00
     number of Kohn-Sham states=            8
     kinetic-energy cutoff     =      30.0000  Ry
     charge density cutoff     =     120.0000  Ry
     convergence threshold     =      1.0E-07
     mixing beta               =       0.7000
     number of iterations used =            8  plain     mixing
     Exchange-correlation      =  SLA  PW   PBX  PBC (1434)
     EXX-fraction              =        0.00
     nstep                     =           50


     celldm(1)=  12.000000  celldm(2)=   0.000000  celldm(3)=   0.000000
     celldm(4)=   0.000000  celldm(5)=   0.000000  celldm(6)=   0.000000

     crystal axes: (cart. coord. in units of a_0)
               a(1) = (   1.000000   0.000000   0.000000 )  
               a(2) = (   0.000000   1.000000   0.000000 )  
               a(3) = (   0.000000   0.000000   1.000000 )  

     reciprocal axes: (cart. coord. in units 2 pi/a_0)
               b(1) = (  1.000000  0.000000  0.000000 )  
               b(2) = (  0.000000  1.000000  0.000000 )  
               b(3) = (  0.000000  0.000000  1.000000 )  


     PseudoPot. # 1 for  N read from file N.pbe-paw_kj.UPF
     MD5 check sum: 784def1e20c8513c628b118ec611e520
     Pseudo is Projector augmented-wave + core cor, Zval =  5.0
     Generated using "atomic" code by A. Dal Corso  (Quantum ESPRESSO distribution)
     Shape of augmentation charge: BESSEL
     Using radial grid of 1085 points,  4 beta functions with: 
                l(1) =   0
                l(2) =   0
                l(3) =   1
                l(4) =   1
     Q(r) pseudized with 0 coefficients 


     PseudoPot. # 2 for  H read from file H.pbe-paw_kj.UPF
     MD5 check sum: b6732a8c2b51919c45a22ac3ed50cb01
     Pseudo is Projector augmented-wave, Zval =  1.0
     Generated using "atomic" code by A. Dal Corso (espresso distribution)
     Shape of augmentation charge: PSQ
     Using radial grid of  929 points,  2 beta functions with: 
                l(1) =   0
                l(2) =   0
     Q(r) pseudized with 0 coefficients 


     atomic species   valence    mass     pseudopotential
        N              5.00     1.00000      N( 1.00)
        H              1.00     1.00000      H( 1.00)

     24 Sym.Ops. (no inversion)


   Cartesian axes

     site n.     atom                  positions (a_0 units)
         1           N   tau(  1) = (   0.0000000   0.0000000   0.0000000  )
         2           H   tau(  2) = (   0.0833333   0.0833333   0.0833333  )
         3           H   tau(  3) = (  -0.0833333  -0.0833333   0.0833333  )
         4           H   tau(  4) = (  -0.0833333   0.0833333  -0.0833333  )
         5           H   tau(  5) = (   0.0833333  -0.0833333  -0.0833333  )

     number of k points=     1
                       cart. coord. in units 2pi/a_0
        k(    1) = (   0.0000000   0.0000000   0.0000000), wk =   2.0000000

     G cutoff =  437.7075  (  19201 G-vectors)     FFT grid: ( 45, 45, 45)

     Largest allocated arrays     est. size (Mb)     dimensions
        Kohn-Sham Wavefunctions         0.29 Mb     (   2401,   8)
        NL pseudopotentials             0.59 Mb     (   2401,  16)
        Each V/rho on FFT grid          1.39 Mb     (  91125)
        Each G-vector array             0.15 Mb     (  19201)
        G-vector shells                 0.00 Mb     (    368)
     Largest temporary arrays     est. size (Mb)     dimensions
        Auxiliary wavefunctions         0.59 Mb     (   2401,  32)
        Each subspace H/S matrix        0.01 Mb     (     32,  32)
        Each <psi_i|beta_j> matrix      0.00 Mb     (     16,   8)
        Arrays for rho mixing          11.12 Mb     (  91125,   8)
  alpha, beta MT =    2.00000000000000       0.250000000000000     

     Check: negative/imaginary core charge=   -0.000005    0.000000

     Initial potential from superposition of free atoms
     Check: negative starting charge=   -0.000542

     starting charge    8.99996, renormalised to    8.00000

     negative rho (up, down):  0.482E-03 0.000E+00
     Starting wfc are    8 atomic wfcs

     total cpu time spent up to now is      1.13 secs

     per-process dynamical memory:    19.2 Mb

     Self-consistent Calculation

     iteration #  1     ecut=    30.00 Ry     beta=0.70
     Davidson diagonalization with overlap
     ethr =  1.00E-02,  avg # of iterations =  3.0

     negative rho (up, down):  0.310E-02 0.000E+00

     total cpu time spent up to now is      1.43 secs

     total energy              =     -31.58206331 Ry
     Harris-Foulkes estimate   =     -33.30200371 Ry
     estimated scf accuracy    <       2.30328662 Ry

     iteration #  2     ecut=    30.00 Ry     beta=0.70
     Davidson diagonalization with overlap
     ethr =  1.00E-02,  avg # of iterations =  2.0

     negative rho (up, down):  0.579E-02 0.000E+00

     total cpu time spent up to now is      1.72 secs

     total energy              =     -32.20740114 Ry
     Harris-Foulkes estimate   =     -32.59234171 Ry
     estimated scf accuracy    <       0.70328421 Ry

     iteration #  3     ecut=    30.00 Ry     beta=0.70
     Davidson diagonalization with overlap
     ethr =  8.79E-03,  avg # of iterations =  2.0

     negative rho (up, down):  0.126E-01 0.000E+00

     total cpu time spent up to now is      2.01 secs

     total energy              =     -32.33992912 Ry
     Harris-Foulkes estimate   =     -32.34660989 Ry
     estimated scf accuracy    <       0.01273090 Ry

     iteration #  4     ecut=    30.00 Ry     beta=0.70
     Davidson diagonalization with overlap
     ethr =  1.59E-04,  avg # of iterations =  5.0

     negative rho (up, down):  0.104E-01 0.000E+00

     total cpu time spent up to now is      2.34 secs

     total energy              =     -32.34426201 Ry
     Harris-Foulkes estimate   =     -32.34496310 Ry
     estimated scf accuracy    <       0.00151548 Ry

     iteration #  5     ecut=    30.00 Ry     beta=0.70
     Davidson diagonalization with overlap
     ethr =  1.89E-05,  avg # of iterations =  3.0

     negative rho (up, down):  0.108E-01 0.000E+00

     total cpu time spent up to now is      2.65 secs

     total energy              =     -32.34433098 Ry
     Harris-Foulkes estimate   =     -32.34434483 Ry
     estimated scf accuracy    <       0.00002973 Ry

     iteration #  6     ecut=    30.00 Ry     beta=0.70
     Davidson diagonalization with overlap
     ethr =  3.72E-07,  avg # of iterations =  4.0

     negative rho (up, down):  0.109E-01 0.000E+00

     total cpu time spent up to now is      2.99 secs

     total energy              =     -32.34434241 Ry
     Harris-Foulkes estimate   =     -32.34435614 Ry
     estimated scf accuracy    <       0.00003172 Ry

     iteration #  7     ecut=    30.00 Ry     beta=0.70
     Davidson diagonalization with overlap
     ethr =  3.72E-07,  avg # of iterations =  1.0

     negative rho (up, down):  0.109E-01 0.000E+00

     total cpu time spent up to now is      3.29 secs

     total energy              =     -32.34434547 Ry
     Harris-Foulkes estimate   =     -32.34434557 Ry
     estimated scf accuracy    <       0.00000041 Ry

     iteration #  8     ecut=    30.00 Ry     beta=0.70
     Davidson diagonalization with overlap
     ethr =  5.12E-09,  avg # of iterations =  3.0

     negative rho (up, down):  0.109E-01 0.000E+00

     total cpu time spent up to now is      3.57 secs

     End of self-consistent calculation

          k = 0.0000 0.0000 0.0000 (  2401 PWs)   bands (ev):

   -33.6494 -22.3917 -22.3917 -22.3917  -7.0410  -3.7176  -3.7176  -3.7176

     highest occupied, lowest unoccupied level (ev):   -22.3917   -7.0410

!    total energy              =     -32.34434569 Ry
     Harris-Foulkes estimate   =     -32.34434573 Ry
     estimated scf accuracy    <       0.00000005 Ry

     total all-electron energy =      -113.643147 Ry

     The total energy is the sum of the following terms:

     one-electron contribution =     -82.06686626 Ry
     hartree contribution      =      38.91703603 Ry
     xc contribution           =      -8.21265201 Ry
     ewald contribution        =      27.33665144 Ry
     one-center paw contrib.   =      -8.31851490 Ry

     convergence has been achieved in   8 iterations

     Forces acting on atoms (Ry/au):


     negative rho (up, down):  0.109E-01 0.000E+00
     atom   1 type  1   force =     0.00000000    0.00000000    0.00000000
     atom   2 type  2   force =     0.15457343    0.15457343    0.15457343
     atom   3 type  2   force =    -0.15457343   -0.15457343    0.15457343
     atom   4 type  2   force =    -0.15457343    0.15457343   -0.15457343
     atom   5 type  2   force =     0.15457343   -0.15457343   -0.15457343

     Total force =     0.535458     Total SCF correction =     0.000139

     BFGS Geometry Optimization

     number of scf cycles    =   1
     number of bfgs steps    =   0

     energy   new            =     -32.3443456924 Ry

     new trust radius        =       0.5000000000 bohr
     new conv_thr            =       0.0000001000 Ry


ATOMIC_POSITIONS (bohr)
N        0.000000000   0.000000000   0.000000000    0   0   0
H        1.144337567   1.144337567   1.144337567
H       -1.144337567  -1.144337567   1.144337567
H       -1.144337567   1.144337567  -1.144337567
H        1.144337567  -1.144337567  -1.144337567



     Writing output data file pwscf.save
     Check: negative starting charge=   -0.000542
     NEW-OLD atomic charge density approx. for the potential

     Check: negative/imaginary core charge=   -0.000005    0.000000
     Check: negative starting charge=   -0.000597

     negative rho (up, down):  0.481E-02 0.000E+00

     total cpu time spent up to now is      4.07 secs

     per-process dynamical memory:    26.6 Mb
  alpha, beta MT =    2.00000000000000       0.250000000000000     

     Self-consistent Calculation

     iteration #  1     ecut=    30.00 Ry     beta=0.70
     Davidson diagonalization with overlap
     ethr =  1.00E-06,  avg # of iterations = 13.0

     negative rho (up, down):  0.593E-02 0.000E+00

     total cpu time spent up to now is      4.54 secs

     total energy              =     -32.41535614 Ry
     Harris-Foulkes estimate   =     -32.47231487 Ry
     estimated scf accuracy    <       0.08747150 Ry

     iteration #  2     ecut=    30.00 Ry     beta=0.70
     Davidson diagonalization with overlap
     ethr =  1.09E-03,  avg # of iterations =  2.0

     negative rho (up, down):  0.631E-02 0.000E+00

     total cpu time spent up to now is      4.82 secs

     total energy              =     -32.43837464 Ry
     Harris-Foulkes estimate   =     -32.46665176 Ry
     estimated scf accuracy    <       0.05547739 Ry

     iteration #  3     ecut=    30.00 Ry     beta=0.70
     Davidson diagonalization with overlap
     ethr =  6.93E-04,  avg # of iterations =  1.0

     negative rho (up, down):  0.745E-02 0.000E+00

     total cpu time spent up to now is      5.10 secs

     total energy              =     -32.44942112 Ry
     Harris-Foulkes estimate   =     -32.44935323 Ry
     estimated scf accuracy    <       0.00026990 Ry

     iteration #  4     ecut=    30.00 Ry     beta=0.70
     Davidson diagonalization with overlap
     ethr =  3.37E-06,  avg # of iterations =  3.0

     negative rho (up, down):  0.745E-02 0.000E+00

     total cpu time spent up to now is      5.41 secs

     total energy              =     -32.44967064 Ry
     Harris-Foulkes estimate   =     -32.44967931 Ry
     estimated scf accuracy    <       0.00004873 Ry

     iteration #  5     ecut=    30.00 Ry     beta=0.70
     Davidson diagonalization with overlap
     ethr =  6.09E-07,  avg # of iterations =  1.0

     negative rho (up, down):  0.747E-02 0.000E+00

     total cpu time spent up to now is      5.70 secs

     total energy              =     -32.44966422 Ry
     Harris-Foulkes estimate   =     -32.44967291 Ry
     estimated scf accuracy    <       0.00002023 Ry

     iteration #  6     ecut=    30.00 Ry     beta=0.70
     Davidson diagonalization with overlap
     ethr =  2.53E-07,  avg # of iterations =  2.0

     negative rho (up, down):  0.745E-02 0.000E+00

     total cpu time spent up to now is      6.00 secs

     total energy              =     -32.44966885 Ry
     Harris-Foulkes estimate   =     -32.44967008 Ry
     estimated scf accuracy    <       0.00000275 Ry

     iteration #  7     ecut=    30.00 Ry     beta=0.70
     Davidson diagonalization with overlap
     ethr =  3.44E-08,  avg # of iterations =  1.0

     negative rho (up, down):  0.745E-02 0.000E+00

     total cpu time spent up to now is      6.25 secs

     End of self-consistent calculation

          k = 0.0000 0.0000 0.0000 (  2401 PWs)   bands (ev):

   -31.3750 -20.6783 -20.6783 -20.6783  -7.4711  -4.6579  -4.6579  -4.6579

     highest occupied, lowest unoccupied level (ev):   -20.6783   -7.4711

!    total energy              =     -32.44966919 Ry
     Harris-Foulkes estimate   =     -32.44966924 Ry
     estimated scf accuracy    <       0.00000008 Ry

     total all-electron energy =      -113.748470 Ry

     The total energy is the sum of the following terms:

     one-electron contribution =     -76.79849473 Ry
     hartree contribution      =      36.53854562 Ry
     xc contribution           =      -7.77530969 Ry
     ewald contribution        =      23.88862537 Ry
     one-center paw contrib.   =      -8.30303576 Ry

     convergence has been achieved in   7 iterations

     Forces acting on atoms (Ry/au):


     negative rho (up, down):  0.745E-02 0.000E+00
     atom   1 type  1   force =     0.00000000    0.00000000    0.00000000
     atom   2 type  2   force =    -0.01178231   -0.01178231   -0.01178231
     atom   3 type  2   force =     0.01178231    0.01178231   -0.01178231
     atom   4 type  2   force =     0.01178231   -0.01178231    0.01178231
     atom   5 type  2   force =    -0.01178231    0.01178231    0.01178231

     Total force =     0.040815     Total SCF correction =     0.000122

     number of scf cycles    =   2
     number of bfgs steps    =   1

     energy   old            =     -32.3443456924 Ry
     energy   new            =     -32.4496691886 Ry

     CASE: energy  _new < energy  _old

     new trust radius        =       0.0354129959 bohr
     new conv_thr            =       0.0000001000 Ry


ATOMIC_POSITIONS (bohr)
N        0.000000000   0.000000000   0.000000000    0   0   0
H        1.134114716   1.134114716   1.134114716
H       -1.134114716  -1.134114716   1.134114716
H       -1.134114716   1.134114716  -1.134114716
H        1.134114716  -1.134114716  -1.134114716



     Writing output data file pwscf.save
     Check: negative starting charge=   -0.000597
     NEW-OLD atomic charge density approx. for the potential

     Check: negative/imaginary core charge=   -0.000005    0.000000
     Check: negative starting charge=   -0.000601

     negative rho (up, down):  0.800E-02 0.000E+00

     total cpu time spent up to now is      6.73 secs

     per-process dynamical memory:    26.6 Mb
  alpha, beta MT =    2.00000000000000       0.250000000000000     

     Self-consistent Calculation

     iteration #  1     ecut=    30.00 Ry     beta=0.70
     Davidson diagonalization with overlap
     ethr =  1.00E-06,  avg # of iterations =  3.0

     negative rho (up, down):  0.781E-02 0.000E+00

     total cpu time spent up to now is      7.07 secs

     total energy              =     -32.45052882 Ry
     Harris-Foulkes estimate   =     -32.45068364 Ry
     estimated scf accuracy    <       0.00025753 Ry

     iteration #  2     ecut=    30.00 Ry     beta=0.70
     Davidson diagonalization with overlap
     ethr =  3.22E-06,  avg # of iterations =  2.0

     negative rho (up, down):  0.777E-02 0.000E+00

     total cpu time spent up to now is      7.34 secs

     total energy              =     -32.45059277 Ry
     Harris-Foulkes estimate   =     -32.45066650 Ry
     estimated scf accuracy    <       0.00014278 Ry

     iteration #  3     ecut=    30.00 Ry     beta=0.70
     Davidson diagonalization with overlap
     ethr =  1.78E-06,  avg # of iterations =  2.0

     negative rho (up, down):  0.773E-02 0.000E+00

     total cpu time spent up to now is      7.63 secs

     total energy              =     -32.45062307 Ry
     Harris-Foulkes estimate   =     -32.45062276 Ry
     estimated scf accuracy    <       0.00000134 Ry

     iteration #  4     ecut=    30.00 Ry     beta=0.70
     Davidson diagonalization with overlap
     ethr =  1.67E-08,  avg # of iterations =  2.0

     negative rho (up, down):  0.773E-02 0.000E+00

     total cpu time spent up to now is      7.88 secs

     End of self-consistent calculation

          k = 0.0000 0.0000 0.0000 (  2401 PWs)   bands (ev):

   -31.5229 -20.7909 -20.7909 -20.7909  -7.4308  -4.5818  -4.5818  -4.5818

     highest occupied, lowest unoccupied level (ev):   -20.7909   -7.4308

!    total energy              =     -32.45062337 Ry
     Harris-Foulkes estimate   =     -32.45062338 Ry
     estimated scf accuracy    <       0.00000002 Ry

     total all-electron energy =      -113.749425 Ry

     The total energy is the sum of the following terms:

     one-electron contribution =     -77.13835812 Ry
     hartree contribution      =      36.69056881 Ry
     xc contribution           =      -7.80299941 Ry
     ewald contribution        =      24.10395620 Ry
     one-center paw contrib.   =      -8.30379087 Ry

     convergence has been achieved in   4 iterations

     Forces acting on atoms (Ry/au):


     negative rho (up, down):  0.773E-02 0.000E+00
     atom   1 type  1   force =     0.00000000    0.00000000    0.00000000
     atom   2 type  2   force =    -0.00373662   -0.00373662   -0.00373662
     atom   3 type  2   force =     0.00373662    0.00373662   -0.00373662
     atom   4 type  2   force =     0.00373662   -0.00373662    0.00373662
     atom   5 type  2   force =    -0.00373662    0.00373662    0.00373662

     Total force =     0.012944     Total SCF correction =     0.000044

     number of scf cycles    =   3
     number of bfgs steps    =   2

     energy   old            =     -32.4496691886 Ry
     energy   new            =     -32.4506233737 Ry

     CASE: energy  _new < energy  _old

     new trust radius        =       0.0164466752 bohr
     new conv_thr            =       0.0000000374 Ry


ATOMIC_POSITIONS (bohr)
N        0.000000000   0.000000000   0.000000000    0   0   0
H        1.129366970   1.129366970   1.129366970
H       -1.129366970  -1.129366970   1.129366970
H       -1.129366970   1.129366970  -1.129366970
H        1.129366970  -1.129366970  -1.129366970



     Writing output data file pwscf.save
     Check: negative starting charge=   -0.000601
     NEW-OLD atomic charge density approx. for the potential

     Check: negative/imaginary core charge=   -0.000005    0.000000
     Check: negative starting charge=   -0.000602

     negative rho (up, down):  0.798E-02 0.000E+00

     total cpu time spent up to now is      8.36 secs

     per-process dynamical memory:    26.6 Mb
  alpha, beta MT =    2.00000000000000       0.250000000000000     

     Self-consistent Calculation

     iteration #  1     ecut=    30.00 Ry     beta=0.70
     Davidson diagonalization with overlap
     ethr =  1.00E-06,  avg # of iterations =  3.0

     negative rho (up, down):  0.791E-02 0.000E+00

     total cpu time spent up to now is      8.69 secs

     total energy              =     -32.45070339 Ry
     Harris-Foulkes estimate   =     -32.45073893 Ry
     estimated scf accuracy    <       0.00005869 Ry

     iteration #  2     ecut=    30.00 Ry     beta=0.70
     Davidson diagonalization with overlap
     ethr =  7.34E-07,  avg # of iterations =  2.0

     negative rho (up, down):  0.789E-02 0.000E+00

     total cpu time spent up to now is      8.97 secs

     total energy              =     -32.45071822 Ry
     Harris-Foulkes estimate   =     -32.45073474 Ry
     estimated scf accuracy    <       0.00003188 Ry

     iteration #  3     ecut=    30.00 Ry     beta=0.70
     Davidson diagonalization with overlap
     ethr =  3.98E-07,  avg # of iterations =  2.0

     negative rho (up, down):  0.787E-02 0.000E+00

     total cpu time spent up to now is      9.25 secs

     total energy              =     -32.45072498 Ry
     Harris-Foulkes estimate   =     -32.45072490 Ry
     estimated scf accuracy    <       0.00000029 Ry

     iteration #  4     ecut=    30.00 Ry     beta=0.70
     Davidson diagonalization with overlap
     ethr =  3.63E-09,  avg # of iterations =  3.0

     negative rho (up, down):  0.787E-02 0.000E+00

     total cpu time spent up to now is      9.52 secs

     End of self-consistent calculation

          k = 0.0000 0.0000 0.0000 (  2401 PWs)   bands (ev):

   -31.5927 -20.8441 -20.8441 -20.8441  -7.4133  -4.5470  -4.5470  -4.5470

     highest occupied, lowest unoccupied level (ev):   -20.8441   -7.4133

!    total energy              =     -32.45072506 Ry
     Harris-Foulkes estimate   =     -32.45072506 Ry
     estimated scf accuracy    <          5.6E-09 Ry

     total all-electron energy =      -113.749526 Ry

     The total energy is the sum of the following terms:

     one-electron contribution =     -77.29786137 Ry
     hartree contribution      =      36.76202595 Ry
     xc contribution           =      -7.81601191 Ry
     ewald contribution        =      24.20528683 Ry
     one-center paw contrib.   =      -8.30416456 Ry

     convergence has been achieved in   4 iterations

     Forces acting on atoms (Ry/au):


     negative rho (up, down):  0.787E-02 0.000E+00
     atom   1 type  1   force =     0.00000000    0.00000000    0.00000000
     atom   2 type  2   force =     0.00015872    0.00015872    0.00015872
     atom   3 type  2   force =    -0.00015872   -0.00015872    0.00015872
     atom   4 type  2   force =    -0.00015872    0.00015872   -0.00015872
     atom   5 type  2   force =     0.00015872   -0.00015872   -0.00015872

     Total force =     0.000550     Total SCF correction =     0.000025

     number of scf cycles    =   4
     number of bfgs steps    =   3

     energy   old            =     -32.4506233737 Ry
     energy   new            =     -32.4507250552 Ry

     CASE: energy  _new < energy  _old

     new trust radius        =       0.0006701572 bohr
     new conv_thr            =       0.0000000100 Ry


ATOMIC_POSITIONS (bohr)
N        0.000000000   0.000000000   0.000000000    0   0   0
H        1.129560427   1.129560427   1.129560427
H       -1.129560427  -1.129560427   1.129560427
H       -1.129560427   1.129560427  -1.129560427
H        1.129560427  -1.129560427  -1.129560427



     Writing output data file pwscf.save
     Check: negative starting charge=   -0.000602
     NEW-OLD atomic charge density approx. for the potential

     Check: negative/imaginary core charge=   -0.000005    0.000000
     Check: negative starting charge=   -0.000602

     negative rho (up, down):  0.786E-02 0.000E+00

     total cpu time spent up to now is     10.00 secs

     per-process dynamical memory:    26.6 Mb
  alpha, beta MT =    2.00000000000000       0.250000000000000     

     Self-consistent Calculation

     iteration #  1     ecut=    30.00 Ry     beta=0.70
     Davidson diagonalization with overlap
     ethr =  1.00E-06,  avg # of iterations =  2.0

     Threshold (ethr) on eigenvalues was too large:
     Diagonalizing with lowered threshold

     Davidson diagonalization with overlap
     ethr =  1.89E-09,  avg # of iterations =  1.0

     negative rho (up, down):  0.786E-02 0.000E+00

     total cpu time spent up to now is     10.39 secs

     total energy              =     -32.45072520 Ry
     Harris-Foulkes estimate   =     -32.45072530 Ry
     estimated scf accuracy    <       0.00000016 Ry

     iteration #  2     ecut=    30.00 Ry     beta=0.70
     Davidson diagonalization with overlap
     ethr =  2.01E-09,  avg # of iterations =  2.0

     negative rho (up, down):  0.787E-02 0.000E+00

     total cpu time spent up to now is     10.67 secs

     total energy              =     -32.45072524 Ry
     Harris-Foulkes estimate   =     -32.45072528 Ry
     estimated scf accuracy    <       0.00000009 Ry

     iteration #  3     ecut=    30.00 Ry     beta=0.70
     Davidson diagonalization with overlap
     ethr =  1.13E-09,  avg # of iterations =  2.0

     negative rho (up, down):  0.787E-02 0.000E+00

     total cpu time spent up to now is     10.93 secs

     End of self-consistent calculation

          k = 0.0000 0.0000 0.0000 (  2401 PWs)   bands (ev):

   -31.5900 -20.8421 -20.8421 -20.8421  -7.4141  -4.5486  -4.5486  -4.5486

     highest occupied, lowest unoccupied level (ev):   -20.8421   -7.4141

!    total energy              =     -32.45072526 Ry
     Harris-Foulkes estimate   =     -32.45072526 Ry
     estimated scf accuracy    <          5.1E-10 Ry

     total all-electron energy =      -113.749527 Ry

     The total energy is the sum of the following terms:

     one-electron contribution =     -77.29111550 Ry
     hartree contribution      =      36.75881258 Ry
     xc contribution           =      -7.81542109 Ry
     ewald contribution        =      24.20114124 Ry
     one-center paw contrib.   =      -8.30414249 Ry

     convergence has been achieved in   3 iterations

     Forces acting on atoms (Ry/au):


     negative rho (up, down):  0.787E-02 0.000E+00
     atom   1 type  1   force =     0.00000000    0.00000000    0.00000000
     atom   2 type  2   force =     0.00000857    0.00000857    0.00000857
     atom   3 type  2   force =    -0.00000857   -0.00000857    0.00000857
     atom   4 type  2   force =    -0.00000857    0.00000857   -0.00000857
     atom   5 type  2   force =     0.00000857   -0.00000857   -0.00000857

     Total force =     0.000030     Total SCF correction =     0.000007
     SCF correction compared to forces is too large, reduce conv_thr

     bfgs converged in   5 scf cycles and   4 bfgs steps
     (criteria: energy < 0.10E-03, force < 0.10E-02)

     End of BFGS Geometry Optimization

     Final energy   =     -32.4507252569 Ry
Begin final coordinates

ATOMIC_POSITIONS (bohr)
N        0.000000000   0.000000000   0.000000000    0   0   0
H        1.129560427   1.129560427   1.129560427
H       -1.129560427  -1.129560427   1.129560427
H       -1.129560427   1.129560427  -1.129560427
H        1.129560427  -1.129560427  -1.129560427
End final coordinates



     Writing output data file pwscf.save
 
     init_run     :      0.74s CPU      0.75s WALL (       1 calls)
     electrons    :      7.68s CPU      7.85s WALL (       5 calls)
     update_pot   :      0.81s CPU      0.82s WALL (       4 calls)
     forces       :      0.76s CPU      0.76s WALL (       5 calls)

     Called by init_run:
     wfcinit      :      0.02s CPU      0.02s WALL (       1 calls)
     potinit      :      0.17s CPU      0.17s WALL (       1 calls)

     Called by electrons:
     c_bands      :      1.67s CPU      1.69s WALL (      27 calls)
     sum_band     :      0.98s CPU      0.99s WALL (      27 calls)
     v_of_rho     :      2.63s CPU      2.73s WALL (      31 calls)
     newd         :      0.60s CPU      0.61s WALL (      31 calls)
     mix_rho      :      0.37s CPU      0.38s WALL (      27 calls)

     Called by c_bands:
     init_us_2    :      0.06s CPU      0.06s WALL (      55 calls)
     regterg      :      1.62s CPU      1.63s WALL (      27 calls)

     Called by *egterg:
     h_psi        :      1.41s CPU      1.42s WALL (     100 calls)
     s_psi        :      0.01s CPU      0.02s WALL (     100 calls)
     g_psi        :      0.04s CPU      0.04s WALL (      72 calls)
     rdiaghg      :      0.02s CPU      0.02s WALL (      94 calls)

     Called by h_psi:
     add_vuspsi   :      0.01s CPU      0.02s WALL (     100 calls)

     General routines
     calbec       :      0.03s CPU      0.04s WALL (     147 calls)
     fft          :      1.52s CPU      1.52s WALL (     465 calls)
     fftw         :      1.41s CPU      1.41s WALL (     780 calls)
     davcio       :      0.00s CPU      0.01s WALL (      26 calls)
 
 
     PAW routines
     PAW_pot      :      1.89s CPU      1.90s WALL (      31 calls)
     PAW_ddot     :      0.20s CPU      0.20s WALL (     170 calls)
     PAW_symme    :      0.00s CPU      0.00s WALL (      54 calls)
 
     PWSCF        :    10.78s CPU        11.18s WALL

 
   This run was terminated on:   7:34:33  30Aug2010            

=------------------------------------------------------------------------------=
   JOB DONE.
=------------------------------------------------------------------------------=
