
     Program PWSCF v.4.3b       starts on 25Mar2011 at  7:43: 4 

     This program is part of the open-source Quantum ESPRESSO suite
     for quantum simulation of materials; please cite
         "P. Giannozzi et al., J. Phys.:Condens. Matter 21 395502 (2009);
          URL http://www.quantum-espresso.org", 
     in publications or presentations arising from this work. More details at
     http://www.quantum-espresso.org/wiki/index.php/Citing_Quantum-ESPRESSO

     Current dimensions of program PWSCF are:
     Max number of different atomic species (ntypx) = 10
     Max number of k-points (npk) =  40000
     Max angular momentum in pseudopotentials (lmaxx) =  3
     Waiting for input...
     file H.pz-vbc.UPF: wavefunction(s)  1S renormalized
 
   Stick Mesh
   ----------
   nst =   597,  nstw =   173, nsts =   597
               n.st   n.stw   n.sts    n.g    n.gw   n.gs
   min         597     173     597   25351    3829   25351
   max         597     173     597   25351    3829   25351
        597     173     597   25351    3829   25351
 


     bravais-lattice index     =            9
     lattice parameter (a_0)   =      10.0000  a.u.
     unit-cell volume          =    1500.0000 (a.u.)^3
     number of atoms/cell      =            2
     number of atomic types    =            1
     number of electrons       =         2.00
     number of Kohn-Sham states=            1
     kinetic-energy cutoff     =      25.0000  Ry
     charge density cutoff     =     100.0000  Ry
     convergence threshold     =      1.0E-06
     mixing beta               =       0.7000
     number of iterations used =            8  plain     mixing
     Exchange-correlation      =  SLA  PZ   NOGX NOGC (1100)
     EXX-fraction              =        0.00

     celldm(1)=  10.000000  celldm(2)=   1.500000  celldm(3)=   2.000000
     celldm(4)=   0.000000  celldm(5)=   0.000000  celldm(6)=   0.000000

     crystal axes: (cart. coord. in units of a_0)
               a(1) = (   0.500000   0.750000   0.000000 )  
               a(2) = (  -0.500000   0.750000   0.000000 )  
               a(3) = (   0.000000   0.000000   2.000000 )  

     reciprocal axes: (cart. coord. in units 2 pi/a_0)
               b(1) = (  1.000000  0.666667  0.000000 )  
               b(2) = ( -1.000000  0.666667  0.000000 )  
               b(3) = (  0.000000  0.000000  0.500000 )  


     PseudoPot. # 1 for H  read from file H.pz-vbc.UPF
     MD5 check sum: 90becb985b714f09656c73597998d266
     Pseudo is Norm-conserving, Zval =  1.0
     Generated by new atomic code, or converted to UPF format
     Using radial grid of  131 points,  0 beta functions with: 

     atomic species   valence    mass     pseudopotential
        H              1.00     1.00080     H ( 1.00)

      8 Sym.Ops. (with inversion)


   Cartesian axes

     site n.     atom                  positions (a_0 units)
         1           H   tau(  1) = (   0.0000000   0.0000000  -0.0661404  )
         2           H   tau(  2) = (   0.0000000   0.0000000   0.0661404  )

     number of k points=     2
                       cart. coord. in units 2pi/a_0
        k(    1) = (   0.0000000   0.3333333   0.1250000), wk =   1.0000000
        k(    2) = (   0.5000000   0.0000000   0.1250000), wk =   1.0000000

     G cutoff =  253.3030  (  25351 G-vectors)     FFT grid: ( 30, 30, 64)

     Largest allocated arrays     est. size (Mb)     dimensions
        Kohn-Sham Wavefunctions         0.05 Mb     (   3167,   1)
        NL pseudopotentials             0.00 Mb     (   3167,   0)
        Each V/rho on FFT grid          0.88 Mb     (  57600)
        Each G-vector array             0.19 Mb     (  25351)
        G-vector shells                 0.01 Mb     (   1384)
     Largest temporary arrays     est. size (Mb)     dimensions
        Auxiliary wavefunctions         0.19 Mb     (   3167,   4)
        Each subspace H/S matrix        0.00 Mb     (      4,   4)
        Each <psi_i|beta_j> matrix      0.00 Mb     (      0,   1)
        Arrays for rho mixing           7.03 Mb     (  57600,   8)

     Initial potential from superposition of free atoms
     Check: negative starting charge=   -0.002141

     starting charge    1.99995, renormalised to    2.00000

     negative rho (up, down):  0.214E-02 0.000E+00
     Starting wfc are    2 atomic wfcs

     total cpu time spent up to now is      0.07 secs

     per-process dynamical memory:    11.0 Mb

     Self-consistent Calculation

     iteration #  1     ecut=    25.00 Ry     beta=0.70
     Davidson diagonalization with overlap
     ethr =  1.00E-02,  avg # of iterations =  2.0

     negative rho (up, down):  0.623E-03 0.000E+00

     total cpu time spent up to now is      0.12 secs

     total energy              =      -2.21991215 Ry
     Harris-Foulkes estimate   =      -2.28990477 Ry
     estimated scf accuracy    <       0.13301306 Ry

     iteration #  2     ecut=    25.00 Ry     beta=0.70
     Davidson diagonalization with overlap
     ethr =  6.65E-03,  avg # of iterations =  1.0

     negative rho (up, down):  0.132E-03 0.000E+00

     total cpu time spent up to now is      0.16 secs

     total energy              =      -2.23090525 Ry
     Harris-Foulkes estimate   =      -2.23134809 Ry
     estimated scf accuracy    <       0.00100237 Ry

     iteration #  3     ecut=    25.00 Ry     beta=0.70
     Davidson diagonalization with overlap
     ethr =  5.01E-05,  avg # of iterations =  2.0

     negative rho (up, down):  0.164E-04 0.000E+00

     total cpu time spent up to now is      0.21 secs

     total energy              =      -2.23120002 Ry
     Harris-Foulkes estimate   =      -2.23120171 Ry
     estimated scf accuracy    <       0.00001172 Ry

     iteration #  4     ecut=    25.00 Ry     beta=0.70
     Davidson diagonalization with overlap
     ethr =  5.86E-07,  avg # of iterations =  1.5

     total cpu time spent up to now is      0.24 secs

     End of self-consistent calculation

          k = 0.0000 0.3333 0.1250 (  3167 PWs)   bands (ev):

   -10.1850

          k = 0.5000 0.0000 0.1250 (  3162 PWs)   bands (ev):

   -10.1719

!    total energy              =      -2.23120122 Ry
     Harris-Foulkes estimate   =      -2.23120120 Ry
     estimated scf accuracy    <       0.00000043 Ry

     The total energy is the sum of the following terms:

     one-electron contribution =      -3.67597647 Ry
     hartree contribution      =       1.94828967 Ry
     xc contribution           =      -1.31412598 Ry
     ewald contribution        =       0.81061156 Ry

     convergence has been achieved in   4 iterations

     Writing output data file pwscf.save
 
     init_run     :      0.05s CPU      0.06s WALL (       1 calls)
     electrons    :      0.15s CPU      0.17s WALL (       1 calls)

     Called by init_run:
     wfcinit      :      0.01s CPU      0.01s WALL (       1 calls)
     potinit      :      0.02s CPU      0.02s WALL (       1 calls)

     Called by electrons:
     c_bands      :      0.05s CPU      0.05s WALL (       4 calls)
     sum_band     :      0.03s CPU      0.03s WALL (       4 calls)
     v_of_rho     :      0.04s CPU      0.04s WALL (       5 calls)
     mix_rho      :      0.02s CPU      0.02s WALL (       4 calls)

     Called by c_bands:
     cegterg      :      0.05s CPU      0.05s WALL (       8 calls)

     Called by *egterg:
     h_psi        :      0.05s CPU      0.05s WALL (      23 calls)
     g_psi        :      0.00s CPU      0.00s WALL (      13 calls)
     cdiaghg      :      0.00s CPU      0.00s WALL (      21 calls)

     Called by h_psi:

     General routines
     fft          :      0.03s CPU      0.03s WALL (      19 calls)
     fftw         :      0.05s CPU      0.05s WALL (      58 calls)
     davcio       :      0.00s CPU      0.00s WALL (      26 calls)
 
 
     PWSCF        :     0.24s CPU         0.27s WALL

 
   This run was terminated on:   7:43: 4  25Mar2011            

=------------------------------------------------------------------------------=
   JOB DONE.
=------------------------------------------------------------------------------=
