
     Program PWSCF v.4.3b       starts on 25Mar2011 at  7:43: 2 

     This program is part of the open-source Quantum ESPRESSO suite
     for quantum simulation of materials; please cite
         "P. Giannozzi et al., J. Phys.:Condens. Matter 21 395502 (2009);
          URL http://www.quantum-espresso.org", 
     in publications or presentations arising from this work. More details at
     http://www.quantum-espresso.org/wiki/index.php/Citing_Quantum-ESPRESSO

     Current dimensions of program PWSCF are:
     Max number of different atomic species (ntypx) = 10
     Max number of k-points (npk) =  40000
     Max angular momentum in pseudopotentials (lmaxx) =  3
     Waiting for input...
     file H.pz-vbc.UPF: wavefunction(s)  1S renormalized

     gamma-point specific algorithms are used
 
   Stick Mesh
   ----------
   nst =   343,  nstw =    82, nsts =   343
               n.st   n.stw   n.sts    n.g    n.gw   n.gs
   min         685     163     685   11935    1459   11935
   max         685     163     685   11935    1459   11935
        685     163     685   11935    1459   11935
 


     bravais-lattice index     =            5
     lattice parameter (a_0)   =      10.0000  a.u.
     unit-cell volume          =     707.1068 (a.u.)^3
     number of atoms/cell      =            2
     number of atomic types    =            1
     number of electrons       =         2.00
     number of Kohn-Sham states=            1
     kinetic-energy cutoff     =      25.0000  Ry
     charge density cutoff     =     100.0000  Ry
     convergence threshold     =      1.0E-06
     mixing beta               =       0.7000
     number of iterations used =            8  plain     mixing
     Exchange-correlation      =  SLA  PZ   NOGX NOGC (1100)
     EXX-fraction              =        0.00

     celldm(1)=  10.000000  celldm(2)=   0.000000  celldm(3)=   0.000000
     celldm(4)=   0.500000  celldm(5)=   0.000000  celldm(6)=   0.000000

     crystal axes: (cart. coord. in units of a_0)
               a(1) = (   0.500000  -0.288675   0.816497 )  
               a(2) = (   0.000000   0.577350   0.816497 )  
               a(3) = (  -0.500000  -0.288675   0.816497 )  

     reciprocal axes: (cart. coord. in units 2 pi/a_0)
               b(1) = (  1.000000 -0.577350  0.408248 )  
               b(2) = (  0.000000  1.154701  0.408248 )  
               b(3) = ( -1.000000 -0.577350  0.408248 )  


     PseudoPot. # 1 for H  read from file H.pz-vbc.UPF
     MD5 check sum: 90becb985b714f09656c73597998d266
     Pseudo is Norm-conserving, Zval =  1.0
     Generated by new atomic code, or converted to UPF format
     Using radial grid of  131 points,  0 beta functions with: 

     atomic species   valence    mass     pseudopotential
        H              1.00     1.00080     H ( 1.00)

     12 Sym.Ops. (with inversion)


   Cartesian axes

     site n.     atom                  positions (a_0 units)
         1           H   tau(  1) = (   0.0000000   0.0000000  -0.0661404  )
         2           H   tau(  2) = (   0.0000000   0.0000000   0.0661404  )

     number of k points=     1
                       cart. coord. in units 2pi/a_0
        k(    1) = (   0.0000000   0.0000000   0.0000000), wk =   2.0000000

     G cutoff =  253.3030  (   5968 G-vectors)     FFT grid: ( 32, 32, 32)

     Largest allocated arrays     est. size (Mb)     dimensions
        Kohn-Sham Wavefunctions         0.01 Mb     (    730,   1)
        NL pseudopotentials             0.00 Mb     (    730,   0)
        Each V/rho on FFT grid          0.50 Mb     (  32768)
        Each G-vector array             0.05 Mb     (   5968)
        G-vector shells                 0.00 Mb     (    170)
     Largest temporary arrays     est. size (Mb)     dimensions
        Auxiliary wavefunctions         0.02 Mb     (    730,   4)
        Each subspace H/S matrix        0.00 Mb     (      4,   4)
        Each <psi_i|beta_j> matrix      0.00 Mb     (      0,   1)
        Arrays for rho mixing           4.00 Mb     (  32768,   8)

     Initial potential from superposition of free atoms

     starting charge    1.99995, renormalised to    2.00000

     negative rho (up, down):  0.556E-05 0.000E+00
     Starting wfc are    2 atomic wfcs

     total cpu time spent up to now is      0.03 secs

     per-process dynamical memory:     6.4 Mb

     Self-consistent Calculation

     iteration #  1     ecut=    25.00 Ry     beta=0.70
     Davidson diagonalization with overlap
     ethr =  1.00E-02,  avg # of iterations =  2.0

     negative rho (up, down):  0.336E-06 0.000E+00

     total cpu time spent up to now is      0.05 secs

     total energy              =      -2.22433808 Ry
     Harris-Foulkes estimate   =      -2.29126416 Ry
     estimated scf accuracy    <       0.12787713 Ry

     iteration #  2     ecut=    25.00 Ry     beta=0.70
     Davidson diagonalization with overlap
     ethr =  6.39E-03,  avg # of iterations =  1.0

     total cpu time spent up to now is      0.06 secs

     total energy              =      -2.23593185 Ry
     Harris-Foulkes estimate   =      -2.23619684 Ry
     estimated scf accuracy    <       0.00063745 Ry

     iteration #  3     ecut=    25.00 Ry     beta=0.70
     Davidson diagonalization with overlap
     ethr =  3.19E-05,  avg # of iterations =  2.0

     total cpu time spent up to now is      0.08 secs

     total energy              =      -2.23646865 Ry
     Harris-Foulkes estimate   =      -2.23646732 Ry
     estimated scf accuracy    <       0.00003091 Ry

     iteration #  4     ecut=    25.00 Ry     beta=0.70
     Davidson diagonalization with overlap
     ethr =  1.55E-06,  avg # of iterations =  1.0

     total cpu time spent up to now is      0.09 secs

     total energy              =      -2.23647142 Ry
     Harris-Foulkes estimate   =      -2.23646981 Ry
     estimated scf accuracy    <       0.00000315 Ry

     iteration #  5     ecut=    25.00 Ry     beta=0.70
     Davidson diagonalization with overlap
     ethr =  1.57E-07,  avg # of iterations =  2.0

     total cpu time spent up to now is      0.10 secs

     End of self-consistent calculation

          k = 0.0000 0.0000 0.0000 (   730 PWs)   bands (ev):

   -10.2481

!    total energy              =      -2.23647188 Ry
     Harris-Foulkes estimate   =      -2.23647212 Ry
     estimated scf accuracy    <       0.00000039 Ry

     The total energy is the sum of the following terms:

     one-electron contribution =      -2.51661472 Ry
     hartree contribution      =       1.35362859 Ry
     xc contribution           =      -1.29904131 Ry
     ewald contribution        =       0.22555555 Ry

     convergence has been achieved in   5 iterations

     Writing output data file pwscf.save
 
     init_run     :      0.01s CPU      0.02s WALL (       1 calls)
     electrons    :      0.07s CPU      0.07s WALL (       1 calls)

     Called by init_run:
     wfcinit      :      0.00s CPU      0.00s WALL (       1 calls)
     potinit      :      0.01s CPU      0.01s WALL (       1 calls)

     Called by electrons:
     c_bands      :      0.01s CPU      0.01s WALL (       5 calls)
     sum_band     :      0.01s CPU      0.01s WALL (       5 calls)
     v_of_rho     :      0.03s CPU      0.03s WALL (       6 calls)
     mix_rho      :      0.01s CPU      0.01s WALL (       5 calls)

     Called by c_bands:
     regterg      :      0.01s CPU      0.01s WALL (       5 calls)

     Called by *egterg:
     h_psi        :      0.01s CPU      0.01s WALL (      14 calls)
     g_psi        :      0.00s CPU      0.00s WALL (       8 calls)
     rdiaghg      :      0.00s CPU      0.00s WALL (      13 calls)

     Called by h_psi:

     General routines
     fft          :      0.02s CPU      0.01s WALL (      23 calls)
     fftw         :      0.01s CPU      0.01s WALL (      33 calls)
     davcio       :      0.00s CPU      0.00s WALL (       5 calls)
 
 
     PWSCF        :     0.12s CPU         0.13s WALL

 
   This run was terminated on:   7:43: 2  25Mar2011            

=------------------------------------------------------------------------------=
   JOB DONE.
=------------------------------------------------------------------------------=
