
     Program PWSCF v.4.3        starts on  1Apr2011 at 12:27:43 

     This program is part of the open-source Quantum ESPRESSO suite
     for quantum simulation of materials; please cite
         "P. Giannozzi et al., J. Phys.:Condens. Matter 21 395502 (2009);
          URL http://www.quantum-espresso.org", 
     in publications or presentations arising from this work. More details at
     http://www.quantum-espresso.org/wiki/index.php/Citing_Quantum-ESPRESSO

     Current dimensions of program PWSCF are:
     Max number of different atomic species (ntypx) = 10
     Max number of k-points (npk) =  40000
     Max angular momentum in pseudopotentials (lmaxx) =  3
     Waiting for input...
     file O.pz-rrkjus.UPF: wavefunction(s)  2S renormalized
     file Fe.pz-nd-rrkjus.UPF: wavefunction(s)  4S renormalized
     file Fe.pz-nd-rrkjus.UPF: wavefunction(s)  4S renormalized
 
   Stick Mesh
   ----------
   nst =  1061,  nstw =   163, nsts =   539
               n.st   n.stw   n.sts    n.g    n.gw   n.gs
   min        1061     163     539   17255    1081    6111
   max        1061     163     539   17255    1081    6111
       1061     163     539   17255    1081    6111
 


     bravais-lattice index     =            0
     lattice parameter (a_0)   =       8.1900  a.u.
     unit-cell volume          =     274.6766 (a.u.)^3
     number of atoms/cell      =            4
     number of atomic types    =            3
     number of electrons       =        28.00
     number of Kohn-Sham states=           20
     kinetic-energy cutoff     =      30.0000  Ry
     charge density cutoff     =     240.0000  Ry
     convergence threshold     =      1.0E-06
     mixing beta               =       0.3000
     number of iterations used =            8  plain     mixing
     Exchange-correlation      =  SLA  PZ   NOGX NOGC (1100)
     EXX-fraction              =        0.00

     celldm(1)=   8.190000  celldm(2)=   0.000000  celldm(3)=   0.000000
     celldm(4)=   0.000000  celldm(5)=   0.000000  celldm(6)=   0.000000

     crystal axes: (cart. coord. in units of a_0)
               a(1) = (   0.500000   0.500000   1.000000 )  
               a(2) = (   0.500000   1.000000   0.500000 )  
               a(3) = (   1.000000   0.500000   0.500000 )  

     reciprocal axes: (cart. coord. in units 2 pi/a_0)
               b(1) = ( -0.500000 -0.500000  1.500000 )  
               b(2) = ( -0.500000  1.500000 -0.500000 )  
               b(3) = (  1.500000 -0.500000 -0.500000 )  


     PseudoPot. # 1 for O  read from file O.pz-rrkjus.UPF
     MD5 check sum: 24fb942a68ef5d262e498166c462ef4a
     Pseudo is Ultrasoft, Zval =  6.0
     Generated by new atomic code, or converted to UPF format
     Using radial grid of 1269 points,  4 beta functions with: 
                l(1) =   0
                l(2) =   0
                l(3) =   1
                l(4) =   1
     Q(r) pseudized with 0 coefficients 


     PseudoPot. # 2 for Fe read from file Fe.pz-nd-rrkjus.UPF
     MD5 check sum: 2e083728ad07023434bc1cc596eb954d
     Pseudo is Ultrasoft + core correction, Zval =  8.0
     Generated by new atomic code, or converted to UPF format
     Using radial grid of  957 points,  6 beta functions with: 
                l(1) =   0
                l(2) =   0
                l(3) =   1
                l(4) =   1
                l(5) =   2
                l(6) =   2
     Q(r) pseudized with 0 coefficients 


     PseudoPot. # 3 for Fe read from file Fe.pz-nd-rrkjus.UPF
     MD5 check sum: 2e083728ad07023434bc1cc596eb954d
     Pseudo is Ultrasoft + core correction, Zval =  8.0
     Generated by new atomic code, or converted to UPF format
     Using radial grid of  957 points,  6 beta functions with: 
                l(1) =   0
                l(2) =   0
                l(3) =   1
                l(4) =   1
                l(5) =   2
                l(6) =   2
     Q(r) pseudized with 0 coefficients 


     atomic species   valence    mass     pseudopotential
        O1             6.00     1.00000     O ( 1.00)
        Fe1            8.00     1.00000     Fe( 1.00)
        Fe2            8.00     1.00000     Fe( 1.00)

     Starting magnetic structure 
     atomic species   magnetization
        O1           0.000
        Fe1          0.500
        Fe2         -0.500

     LDA+U calculation, Hubbard_lmax = 2
     atomic species  L   Hubbard U  Hubbard alpha
        Fe1          2    0.316044    0.000000
        Fe2          2    0.316044    0.000000

     12 Sym.Ops. (with inversion)


   Cartesian axes

     site n.     atom                  positions (a_0 units)
         1           O1  tau(  1) = (   0.5000000   0.5000000   0.5000000  )
         2           O1  tau(  2) = (   1.5000000   1.5000000   1.5000000  )
         3           Fe1 tau(  3) = (   0.0000000   0.0000000   0.0000000  )
         4           Fe2 tau(  4) = (   1.0000000   1.0000000   1.0000000  )

     number of k points=     8  gaussian smearing, width (Ry)=  0.0100
                       cart. coord. in units 2pi/a_0
        k(    1) = (   0.0000000   0.0000000   0.0000000), wk =   0.1250000
        k(    2) = (  -0.7500000   0.2500000   0.2500000), wk =   0.3750000
        k(    3) = (  -0.5000000  -0.5000000   0.5000000), wk =   0.3750000
        k(    4) = (  -0.2500000  -0.2500000  -0.2500000), wk =   0.1250000
        k(    5) = (   0.0000000   0.0000000   0.0000000), wk =   0.1250000
        k(    6) = (  -0.7500000   0.2500000   0.2500000), wk =   0.3750000
        k(    7) = (  -0.5000000  -0.5000000   0.5000000), wk =   0.3750000
        k(    8) = (  -0.2500000  -0.2500000  -0.2500000), wk =   0.1250000

     G cutoff =  407.7738  (  17255 G-vectors)     FFT grid: ( 50, 50, 50)
     G cutoff =  203.8869  (   6111 G-vectors)  smooth grid: ( 36, 36, 36)

     Largest allocated arrays     est. size (Mb)     dimensions
        Kohn-Sham Wavefunctions         0.24 Mb     (    780,  20)
        Atomic wavefunctions            0.24 Mb     (    780,  20)
        NL pseudopotentials             0.62 Mb     (    780,  52)
        Each V/rho on FFT grid          3.81 Mb     ( 125000,   2)
        Each G-vector array             0.13 Mb     (  17255)
        G-vector shells                 0.00 Mb     (    342)
     Largest temporary arrays     est. size (Mb)     dimensions
        Auxiliary wavefunctions         0.95 Mb     (    780,  80)
        Each subspace H/S matrix        0.10 Mb     (     80,  80)
        Each <psi_i|beta_j> matrix      0.02 Mb     (     52,  20)
        Arrays for rho mixing          15.26 Mb     ( 125000,   8)

     Check: negative/imaginary core charge=   -0.000003    0.000000

     Initial potential from superposition of free atoms

     starting charge   27.99905, renormalised to   28.00000

     Parameters of the lda+U calculation:
     Number of iteration with fixed ns =  0
     Starting ns and Hubbard U :
 enter write_ns
U( 1) =  0.0000      U( 2) =  4.3000      U( 3) =  4.3000
alpha( 1) =  0.0000      alpha( 2) =  0.0000      alpha( 3) =  0.0000
atom    3   Tr[ns(na)]=   6.0000000
atom    3   spin  1
eigenvalues:  1.0000000 1.0000000 1.0000000 1.0000000 1.0000000
 eigenvectors
 1   1.0000000  0.0000000  0.0000000  0.0000000  0.0000000
 2   0.0000000  1.0000000  0.0000000  0.0000000  0.0000000
 3   0.0000000  0.0000000  1.0000000  0.0000000  0.0000000
 4   0.0000000  0.0000000  0.0000000  1.0000000  0.0000000
 5   0.0000000  0.0000000  0.0000000  0.0000000  1.0000000
 occupations
 1.000  0.000  0.000  0.000  0.000
 0.000  1.000  0.000  0.000  0.000
 0.000  0.000  1.000  0.000  0.000
 0.000  0.000  0.000  1.000  0.000
 0.000  0.000  0.000  0.000  1.000
atom    3   spin  2
eigenvalues:  0.2000000 0.2000000 0.2000000 0.2000000 0.2000000
 eigenvectors
 1   1.0000000  0.0000000  0.0000000  0.0000000  0.0000000
 2   0.0000000  1.0000000  0.0000000  0.0000000  0.0000000
 3   0.0000000  0.0000000  1.0000000  0.0000000  0.0000000
 4   0.0000000  0.0000000  0.0000000  1.0000000  0.0000000
 5   0.0000000  0.0000000  0.0000000  0.0000000  1.0000000
 occupations
 0.200  0.000  0.000  0.000  0.000
 0.000  0.200  0.000  0.000  0.000
 0.000  0.000  0.200  0.000  0.000
 0.000  0.000  0.000  0.200  0.000
 0.000  0.000  0.000  0.000  0.200
atom    4   Tr[ns(na)]=   6.0000000
atom    4   spin  1
eigenvalues:  0.2000000 0.2000000 0.2000000 0.2000000 0.2000000
 eigenvectors
 1   1.0000000  0.0000000  0.0000000  0.0000000  0.0000000
 2   0.0000000  1.0000000  0.0000000  0.0000000  0.0000000
 3   0.0000000  0.0000000  1.0000000  0.0000000  0.0000000
 4   0.0000000  0.0000000  0.0000000  1.0000000  0.0000000
 5   0.0000000  0.0000000  0.0000000  0.0000000  1.0000000
 occupations
 0.200  0.000  0.000  0.000  0.000
 0.000  0.200  0.000  0.000  0.000
 0.000  0.000  0.200  0.000  0.000
 0.000  0.000  0.000  0.200  0.000
 0.000  0.000  0.000  0.000  0.200
atom    4   spin  2
eigenvalues:  1.0000000 1.0000000 1.0000000 1.0000000 1.0000000
 eigenvectors
 1   1.0000000  0.0000000  0.0000000  0.0000000  0.0000000
 2   0.0000000  1.0000000  0.0000000  0.0000000  0.0000000
 3   0.0000000  0.0000000  1.0000000  0.0000000  0.0000000
 4   0.0000000  0.0000000  0.0000000  1.0000000  0.0000000
 5   0.0000000  0.0000000  0.0000000  0.0000000  1.0000000
 occupations
 1.000  0.000  0.000  0.000  0.000
 0.000  1.000  0.000  0.000  0.000
 0.000  0.000  1.000  0.000  0.000
 0.000  0.000  0.000  1.000  0.000
 0.000  0.000  0.000  0.000  1.000
nsum =  12.0000000
 exit write_ns
 Atomic wfc used for LDA+U Projector are NOT orthogonalized
     Starting wfc are   20 atomic wfcs

     total cpu time spent up to now is      2.63 secs

     per-process dynamical memory:    31.5 Mb

     Self-consistent Calculation

     iteration #  1     ecut=    30.00 Ry     beta=0.30
     Davidson diagonalization with overlap
     ethr =  1.00E-02,  avg # of iterations =  3.2
 enter write_ns
U( 1) =  0.0000      U( 2) =  4.3000      U( 3) =  4.3000
alpha( 1) =  0.0000      alpha( 2) =  0.0000      alpha( 3) =  0.0000
atom    3   Tr[ns(na)]=   6.1226789
atom    3   spin  1
eigenvalues:  0.9969552 0.9969552 1.0025536 1.0025536 1.0030281
 eigenvectors
 1   0.6573617  0.0419715 -0.4419273 -0.4591836 -0.3999558
 2   0.4591836 -0.4860615  0.2066823  0.6573617 -0.2793791
 3  -0.3896791 -0.6433189  0.2163382 -0.4529638 -0.4269807
 4   0.4529638 -0.1216145  0.6179378 -0.3896791  0.4963233
 5   0.0000000  0.5773503  0.5773503  0.0000000 -0.5773503
 occupations
 0.999  0.001  0.001  0.000  0.002
 0.001  1.001  0.001  0.002 -0.001
 0.001  0.001  1.001 -0.002 -0.001
 0.000  0.002 -0.002  0.999  0.000
 0.002 -0.001 -0.001  0.000  1.001
atom    3   spin  2
eigenvalues:  0.1553851 0.1553851 0.2567868 0.2765381 0.2765381
 eigenvectors
 1   0.1186775 -0.0574749  0.0660312 -0.9890293  0.0085563
 2  -0.9890293 -0.0430631 -0.0282431 -0.1186775 -0.0713062
 3   0.0000000 -0.5773503 -0.5773503  0.0000000  0.5773503
 4  -0.0849144  0.2088923  0.5762922  0.0229397  0.7851845
 5  -0.0229397  0.7860489 -0.5739305 -0.0849144  0.2121184
 occupations
 0.156 -0.004 -0.004  0.000 -0.009
-0.004  0.269 -0.006 -0.008  0.006
-0.004 -0.006  0.269  0.008  0.006
 0.000 -0.008  0.008  0.156  0.000
-0.009  0.006  0.006  0.000  0.269
atom    4   Tr[ns(na)]=   6.1226789
atom    4   spin  1
eigenvalues:  0.1553851 0.1553851 0.2567868 0.2765381 0.2765381
 eigenvectors
 1  -0.5695748  0.0304932 -0.0715579  0.8172196 -0.0410647
 2   0.8172196  0.0650227 -0.0061035  0.5695748  0.0589192
 3   0.0000000  0.5773503  0.5773503  0.0000000 -0.5773503
 4   0.0688015  0.1207389 -0.7569312 -0.0548000 -0.6361923
 5   0.0548000 -0.8043202  0.2975971  0.0688015 -0.5067231
 occupations
 0.156 -0.004 -0.004  0.000 -0.009
-0.004  0.269 -0.006 -0.008  0.006
-0.004 -0.006  0.269  0.008  0.006
 0.000 -0.008  0.008  0.156  0.000
-0.009  0.006  0.006  0.000  0.269
atom    4   spin  2
eigenvalues:  0.9969552 0.9969552 1.0025536 1.0025536 1.0030281
 eigenvectors
 1   0.6629963  0.0359506 -0.4393346 -0.4510099 -0.4033840
 2   0.4510099 -0.4865438  0.2121378  0.6629963 -0.2744060
 3  -0.4055872 -0.6385719  0.1941603 -0.4387767 -0.4444116
 4   0.4387767 -0.1444827  0.6252608 -0.4055872  0.4807782
 5   0.0000000  0.5773503  0.5773503  0.0000000 -0.5773503
 occupations
 0.999  0.001  0.001  0.000  0.002
 0.001  1.001  0.001  0.002 -0.001
 0.001  0.001  1.001 -0.002 -0.001
 0.000  0.002 -0.002  0.999  0.000
 0.002 -0.001 -0.001  0.000  1.001
nsum =  12.2453578
 exit write_ns
 Modify starting ns matrices according to input values 
 enter write_ns
U( 1) =  0.0000      U( 2) =  4.3000      U( 3) =  4.3000
alpha( 1) =  0.0000      alpha( 2) =  0.0000      alpha( 3) =  0.0000
atom    3   Tr[ns(na)]=   6.8658921
atom    3   spin  1
eigenvalues:  0.9969552 0.9969552 1.0025536 1.0025536 1.0030281
 eigenvectors
 1   0.5983492  0.0992450 -0.4632961 -0.5338091 -0.3640511
 2   0.5338091 -0.4776691  0.1528859  0.5983492 -0.3247832
 3  -0.3780899 -0.6461909  0.2319087 -0.4626814 -0.4142821
 4   0.4626814 -0.1052933  0.6122644 -0.3780899  0.5069710
 5   0.0000000  0.5773503  0.5773503  0.0000000 -0.5773503
 occupations
 0.999  0.001  0.001  0.000  0.002
 0.001  1.001  0.001  0.002 -0.001
 0.001  0.001  1.001 -0.002 -0.001
 0.000  0.002 -0.002  0.999  0.000
 0.002 -0.001 -0.001  0.000  1.001
atom    3   spin  2
eigenvalues:  0.1553851 0.1553851 0.2765381 0.2765381 1.0000000
 eigenvectors
 1   0.0377134 -0.0607919  0.0635109 -0.9954100  0.0027190
 2  -0.9954100 -0.0382379 -0.0335284 -0.0377134 -0.0717663
 3   0.0857432 -0.2393406 -0.5535077 -0.0196160 -0.7928484
 4   0.0196160 -0.7773191  0.5959346  0.0857432 -0.1813845
 5   0.0000000 -0.5773503 -0.5773503  0.0000000  0.5773503
 occupations
 0.156 -0.004 -0.004  0.000 -0.009
-0.004  0.517  0.241 -0.008 -0.241
-0.004  0.241  0.517  0.008 -0.241
 0.000 -0.008  0.008  0.156  0.000
-0.009 -0.241 -0.241  0.000  0.517
atom    4   Tr[ns(na)]=   6.8658921
atom    4   spin  1
eigenvalues:  0.1553851 0.1553851 0.2765381 0.2765381 1.0000000
 eigenvectors
 1   0.5973528 -0.0282381  0.0713056 -0.7971404  0.0430675
 2  -0.7971404 -0.0660333  0.0085617 -0.5973528 -0.0574716
 3   0.0808897 -0.0973285 -0.6506405 -0.0345477 -0.7479689
 4   0.0345477 -0.8074875  0.4880327  0.0808897 -0.3194548
 5   0.0000000 -0.5773503 -0.5773503  0.0000000  0.5773503
 occupations
 0.156 -0.004 -0.004  0.000 -0.009
-0.004  0.517  0.241 -0.008 -0.241
-0.004  0.241  0.517  0.008 -0.241
 0.000 -0.008  0.008  0.156  0.000
-0.009 -0.241 -0.241  0.000  0.517
atom    4   spin  2
eigenvalues:  0.9969552 0.9969552 1.0025536 1.0025536 1.0030281
 eigenvectors
 1  -0.5162372 -0.1662536  0.4803456  0.6135740  0.3140920
 2  -0.6135740  0.4586688 -0.0853546 -0.5162372  0.3733142
 3  -0.4110381 -0.6367167  0.1863324 -0.4336746 -0.4503843
 4   0.4336746 -0.1524505  0.6276381 -0.4110381  0.4751876
 5   0.0000000  0.5773503  0.5773503  0.0000000 -0.5773503
 occupations
 0.999  0.001  0.001  0.000  0.002
 0.001  1.001  0.001  0.002 -0.001
 0.001  0.001  1.001 -0.002 -0.001
 0.000  0.002 -0.002  0.999  0.000
 0.002 -0.001 -0.001  0.000  1.001
nsum =  13.7317842
 exit write_ns

     total cpu time spent up to now is      4.15 secs

     total energy              =    -174.07564992 Ry
     Harris-Foulkes estimate   =    -174.94035763 Ry
     estimated scf accuracy    <       2.39740308 Ry

     total magnetization       =     0.00 Bohr mag/cell
     absolute magnetization    =     8.54 Bohr mag/cell

     iteration #  2     ecut=    30.00 Ry     beta=0.30
     Davidson diagonalization with overlap
     ethr =  8.56E-03,  avg # of iterations =  2.2

     total cpu time spent up to now is      5.63 secs

     total energy              =    -174.49924999 Ry
     Harris-Foulkes estimate   =    -174.52962431 Ry
     estimated scf accuracy    <       0.27318920 Ry

     total magnetization       =     0.00 Bohr mag/cell
     absolute magnetization    =     7.16 Bohr mag/cell

     iteration #  3     ecut=    30.00 Ry     beta=0.30
     Davidson diagonalization with overlap
     ethr =  9.76E-04,  avg # of iterations =  1.0

     total cpu time spent up to now is      6.99 secs

     total energy              =    -174.52669743 Ry
     Harris-Foulkes estimate   =    -174.51756237 Ry
     estimated scf accuracy    <       0.09640680 Ry

     total magnetization       =     0.00 Bohr mag/cell
     absolute magnetization    =     7.33 Bohr mag/cell

     iteration #  4     ecut=    30.00 Ry     beta=0.30
     Davidson diagonalization with overlap
     ethr =  3.44E-04,  avg # of iterations =  2.0

     total cpu time spent up to now is      8.57 secs

     total energy              =    -174.53641282 Ry
     Harris-Foulkes estimate   =    -174.53687287 Ry
     estimated scf accuracy    <       0.00280489 Ry

     total magnetization       =     0.00 Bohr mag/cell
     absolute magnetization    =     7.34 Bohr mag/cell

     iteration #  5     ecut=    30.00 Ry     beta=0.30
     Davidson diagonalization with overlap
     ethr =  1.00E-05,  avg # of iterations =  2.8

     total cpu time spent up to now is     10.13 secs

     total energy              =    -174.53718512 Ry
     Harris-Foulkes estimate   =    -174.53703363 Ry
     estimated scf accuracy    <       0.00104090 Ry

     total magnetization       =     0.00 Bohr mag/cell
     absolute magnetization    =     7.32 Bohr mag/cell

     iteration #  6     ecut=    30.00 Ry     beta=0.30
     Davidson diagonalization with overlap
     ethr =  3.72E-06,  avg # of iterations =  2.0

     total cpu time spent up to now is     11.54 secs

     total energy              =    -174.53735937 Ry
     Harris-Foulkes estimate   =    -174.53739111 Ry
     estimated scf accuracy    <       0.00016489 Ry

     total magnetization       =     0.00 Bohr mag/cell
     absolute magnetization    =     7.31 Bohr mag/cell

     iteration #  7     ecut=    30.00 Ry     beta=0.30
     Davidson diagonalization with overlap
     ethr =  5.89E-07,  avg # of iterations =  4.0

     total cpu time spent up to now is     13.11 secs

     total energy              =    -174.53740684 Ry
     Harris-Foulkes estimate   =    -174.53739679 Ry
     estimated scf accuracy    <       0.00001654 Ry

     total magnetization       =     0.00 Bohr mag/cell
     absolute magnetization    =     7.32 Bohr mag/cell

     iteration #  8     ecut=    30.00 Ry     beta=0.30
     Davidson diagonalization with overlap
     ethr =  5.91E-08,  avg # of iterations =  3.0

     total cpu time spent up to now is     14.58 secs

     End of self-consistent calculation
 enter write_ns
U( 1) =  0.0000      U( 2) =  4.3000      U( 3) =  4.3000
alpha( 1) =  0.0000      alpha( 2) =  0.0000      alpha( 3) =  0.0000
atom    3   Tr[ns(na)]=   6.7659806
atom    3   spin  1
eigenvalues:  0.9940300 0.9940300 1.0012167 1.0012167 1.0019611
 eigenvectors
 1   0.7083380  0.0512392 -0.2338928 -0.6384071 -0.1826536
 2   0.6384071 -0.2404932  0.0758721  0.7083380 -0.1646211
 3   0.2615233  0.6724123  0.0037194  0.1493293  0.6761317
 4   0.1493293 -0.3925122  0.7785823 -0.2615233  0.3860701
 5   0.0000000  0.5773503  0.5773503  0.0000000 -0.5773503
 occupations
 0.995  0.001  0.001  0.000  0.002
 0.001  1.001  0.000  0.001  0.000
 0.001  0.000  1.001 -0.001  0.000
 0.000  0.001 -0.001  0.995  0.000
 0.002  0.000  0.000  0.000  1.001
atom    3   spin  2
eigenvalues:  0.1023082 0.1023082 0.2924747 0.2924747 0.9839604
 eigenvectors
 1   0.0748483  0.0700670 -0.7365670 -0.0522995 -0.6665000
 2   0.0522995 -0.8100611  0.3443508  0.0748483 -0.4657103
 3   0.0784449  0.0673018 -0.0614288  0.9927280  0.0058729
 4   0.9927280  0.0320752  0.0422474 -0.0784449  0.0743226
 5   0.0000000 -0.5773503 -0.5773503  0.0000000  0.5773503
 occupations
 0.291  0.007  0.007  0.000  0.014
 0.007  0.397  0.293  0.012 -0.293
 0.007  0.293  0.397 -0.012 -0.293
 0.000  0.012 -0.012  0.291  0.000
 0.014 -0.293 -0.293  0.000  0.397
atom    4   Tr[ns(na)]=   6.7659806
atom    4   spin  1
eigenvalues:  0.1023082 0.1023082 0.2924747 0.2924747 0.9839604
 eigenvectors
 1   0.0682679  0.1636717 -0.7715749 -0.0606384 -0.6079032
 2   0.0606384 -0.7964420  0.2564772  0.0682679 -0.5399649
 3  -0.3111255  0.0496873 -0.0729803  0.9459722 -0.0232931
 4   0.9459722  0.0555835  0.0152387  0.3111255  0.0708222
 5   0.0000000 -0.5773503 -0.5773503  0.0000000  0.5773503
 occupations
 0.291  0.007  0.007  0.000  0.014
 0.007  0.397  0.293  0.012 -0.293
 0.007  0.293  0.397 -0.012 -0.293
 0.000  0.012 -0.012  0.291  0.000
 0.014 -0.293 -0.293  0.000  0.397
atom    4   spin  2
eigenvalues:  0.9940300 0.9940300 1.0012167 1.0012167 1.0019611
 eigenvectors
 1   0.7256046  0.0446148 -0.2317208 -0.6187118 -0.1871060
 2   0.6187118 -0.2418098  0.0822674  0.7256046 -0.1595424
 3   0.2187098  0.7462499 -0.1808062  0.2070258  0.5654437
 4   0.2070258 -0.2220705  0.7573066 -0.2187098  0.5352361
 5   0.0000000  0.5773503  0.5773503  0.0000000 -0.5773503
 occupations
 0.995  0.001  0.001  0.000  0.002
 0.001  1.001  0.000  0.001  0.000
 0.001  0.000  1.001 -0.001  0.000
 0.000  0.001 -0.001  0.995  0.000
 0.002  0.000  0.000  0.000  1.001
nsum =  13.5319613
 exit write_ns

 ------ SPIN UP ------------


          k = 0.0000 0.0000 0.0000 (   731 PWs)   bands (ev):

    -8.7173  -7.4665   1.4539   3.6641   3.6641   5.4886   5.4886   6.8737
     7.8292   7.8818   7.8818   8.4609   8.4609   9.8933  11.5967  12.5851
    12.5851  13.4565  13.4565  15.5167

          k =-0.7500 0.2500 0.2500 (   764 PWs)   bands (ev):

    -8.0095  -7.3290   2.4598   3.6248   4.1631   4.2263   5.5893   5.6537
     6.2712   6.5411   7.3463   8.7896   9.2136   9.4800  12.5140  12.7503
    13.3343  13.6651  17.3711  17.6648

          k =-0.5000-0.5000 0.5000 (   780 PWs)   bands (ev):

    -7.8290  -7.4821   1.8599   4.1299   4.1640   4.2164   5.6534   5.6828
     6.6633   6.6864   7.2420   8.6743   8.8905   9.7832  12.5715  12.8528
    13.7811  13.8685  15.3276  16.6999

          k =-0.2500-0.2500-0.2500 (   748 PWs)   bands (ev):

    -8.2011  -8.1481   3.4507   3.7644   3.7644   4.2993   5.5344   5.5344
     6.9764   6.9764   7.8695   9.4397   9.4397   9.5151  12.5342  12.5342
    13.1793  13.1793  14.1113  14.3875

 ------ SPIN DOWN ----------


          k = 0.0000 0.0000 0.0000 (   731 PWs)   bands (ev):

    -8.7173  -7.4665   1.4539   3.6641   3.6641   5.4886   5.4886   6.8737
     7.8292   7.8818   7.8818   8.4609   8.4609   9.8933  11.5967  12.5851
    12.5851  13.4565  13.4565  15.5167

          k =-0.7500 0.2500 0.2500 (   764 PWs)   bands (ev):

    -8.0095  -7.3290   2.4598   3.6248   4.1631   4.2263   5.5893   5.6537
     6.2712   6.5411   7.3463   8.7896   9.2136   9.4800  12.5140  12.7503
    13.3343  13.6651  17.3711  17.6648

          k =-0.5000-0.5000 0.5000 (   780 PWs)   bands (ev):

    -7.8290  -7.4821   1.8599   4.1299   4.1640   4.2164   5.6534   5.6828
     6.6633   6.6864   7.2420   8.6743   8.8905   9.7832  12.5715  12.8528
    13.7811  13.8685  15.3276  16.6999

          k =-0.2500-0.2500-0.2500 (   748 PWs)   bands (ev):

    -8.2011  -8.1481   3.4507   3.7644   3.7644   4.2993   5.5344   5.5344
     6.9764   6.9764   7.8695   9.4397   9.4397   9.5151  12.5342  12.5342
    13.1793  13.1793  14.1113  14.3875

     the Fermi energy is    10.7846 ev

!    total energy              =    -174.53741628 Ry
     Harris-Foulkes estimate   =    -174.53741139 Ry
     estimated scf accuracy    <       0.00000093 Ry

     The total energy is the sum of the following terms:

     one-electron contribution =       0.54198630 Ry
     hartree contribution      =      28.08890546 Ry
     xc contribution           =     -65.85521256 Ry
     ewald contribution        =    -137.50929535 Ry
     Hubbard energy            =       0.19619987 Ry
     smearing contrib. (-TS)   =       0.00000000 Ry

     total magnetization       =     0.00 Bohr mag/cell
     absolute magnetization    =     7.32 Bohr mag/cell

     convergence has been achieved in   8 iterations

     Writing output data file pwscf.save
 
     init_run     :      2.50s CPU      2.53s WALL (       1 calls)
     electrons    :     11.64s CPU     11.96s WALL (       1 calls)

     Called by init_run:
     wfcinit      :      0.35s CPU      0.35s WALL (       1 calls)
     potinit      :      0.10s CPU      0.10s WALL (       1 calls)

     Called by electrons:
     c_bands      :      6.57s CPU      6.63s WALL (       8 calls)
     sum_band     :      3.16s CPU      3.21s WALL (       8 calls)
     v_of_rho     :      0.38s CPU      0.39s WALL (       9 calls)
     newd         :      1.21s CPU      1.24s WALL (       9 calls)
     mix_rho      :      0.16s CPU      0.16s WALL (       8 calls)

     Called by c_bands:
     init_us_2    :      0.12s CPU      0.11s WALL (     144 calls)
     cegterg      :      6.33s CPU      6.36s WALL (      64 calls)

     Called by *egterg:
     h_psi        :      5.87s CPU      5.88s WALL (     234 calls)
     s_psi        :      0.12s CPU      0.12s WALL (     242 calls)
     g_psi        :      0.05s CPU      0.05s WALL (     162 calls)
     cdiaghg      :      0.22s CPU      0.23s WALL (     226 calls)

     Called by h_psi:
     add_vuspsi   :      0.14s CPU      0.14s WALL (     234 calls)

     General routines
     calbec       :      0.27s CPU      0.27s WALL (     540 calls)
     fft          :      0.63s CPU      0.62s WALL (     143 calls)
     ffts         :      0.05s CPU      0.05s WALL (      34 calls)
     fftw         :      5.60s CPU      5.59s WALL (    7372 calls)
     interpolate  :      0.24s CPU      0.24s WALL (      34 calls)
     davcio       :      0.00s CPU      0.05s WALL (     416 calls)
 
 
     PWSCF        :    14.31s CPU        14.72s WALL

 
   This run was terminated on:  12:27:57   1Apr2011            

=------------------------------------------------------------------------------=
   JOB DONE.
=------------------------------------------------------------------------------=
