
     Program PWSCF v.4.99       starts on  6Jan2012 at 10:48:57 

     This program is part of the open-source Quantum ESPRESSO suite
     for quantum simulation of materials; please cite
         "P. Giannozzi et al., J. Phys.:Condens. Matter 21 395502 (2009);
          URL http://www.quantum-espresso.org", 
     in publications or presentations arising from this work. More details at
     http://www.quantum-espresso.org/quote.php

     Serial version

     Current dimensions of program PWSCF are:
     Max number of different atomic species (ntypx) = 10
     Max number of k-points (npk) =  40000
     Max angular momentum in pseudopotentials (lmaxx) =  3
     Reading input from /home/giannozz/trunk/espresso/tests/lda+U_force.in
               file O.pz-rrkjus.UPF: wavefunction(s)  2S renormalized
               file Fe.pz-nd-rrkjus.UPF: wavefunction(s)  4S renormalized
               file Fe.pz-nd-rrkjus.UPF: wavefunction(s)  4S renormalized
 
     G-vector sticks info
     --------------------
     sticks:   dense  smooth     PW     G-vecs:    dense   smooth      PW
     Sum        1061     539    163                17255     6111    1081
 


     bravais-lattice index     =            0
     lattice parameter (alat)  =       8.1900  a.u.
     unit-cell volume          =     274.6766 (a.u.)^3
     number of atoms/cell      =            4
     number of atomic types    =            3
     number of electrons       =        28.00
     number of Kohn-Sham states=           20
     kinetic-energy cutoff     =      30.0000  Ry
     charge density cutoff     =     240.0000  Ry
     convergence threshold     =      1.0E-06
     mixing beta               =       0.3000
     number of iterations used =            8  plain     mixing
     Exchange-correlation      =  SLA  PZ   NOGX NOGC ( 1 1 0 0 0)
     EXX-fraction              =        0.00

     celldm(1)=   8.190000  celldm(2)=   0.000000  celldm(3)=   0.000000
     celldm(4)=   0.000000  celldm(5)=   0.000000  celldm(6)=   0.000000

     crystal axes: (cart. coord. in units of alat)
               a(1) = (   0.500000   0.500000   1.000000 )  
               a(2) = (   0.500000   1.000000   0.500000 )  
               a(3) = (   1.000000   0.500000   0.500000 )  

     reciprocal axes: (cart. coord. in units 2 pi/alat)
               b(1) = ( -0.500000 -0.500000  1.500000 )  
               b(2) = ( -0.500000  1.500000 -0.500000 )  
               b(3) = (  1.500000 -0.500000 -0.500000 )  


     PseudoPot. # 1 for O  read from file:
     /home/giannozz/trunk/espresso/pseudo/O.pz-rrkjus.UPF
     MD5 check sum: 24fb942a68ef5d262e498166c462ef4a
     Pseudo is Ultrasoft, Zval =  6.0
     Generated by new atomic code, or converted to UPF format
     Using radial grid of 1269 points,  4 beta functions with: 
                l(1) =   0
                l(2) =   0
                l(3) =   1
                l(4) =   1
     Q(r) pseudized with 0 coefficients 


     PseudoPot. # 2 for Fe read from file:
     /home/giannozz/trunk/espresso/pseudo/Fe.pz-nd-rrkjus.UPF
     MD5 check sum: 2e083728ad07023434bc1cc596eb954d
     Pseudo is Ultrasoft + core correction, Zval =  8.0
     Generated by new atomic code, or converted to UPF format
     Using radial grid of  957 points,  6 beta functions with: 
                l(1) =   0
                l(2) =   0
                l(3) =   1
                l(4) =   1
                l(5) =   2
                l(6) =   2
     Q(r) pseudized with 0 coefficients 


     PseudoPot. # 3 for Fe read from file:
     /home/giannozz/trunk/espresso/pseudo/Fe.pz-nd-rrkjus.UPF
     MD5 check sum: 2e083728ad07023434bc1cc596eb954d
     Pseudo is Ultrasoft + core correction, Zval =  8.0
     Generated by new atomic code, or converted to UPF format
     Using radial grid of  957 points,  6 beta functions with: 
                l(1) =   0
                l(2) =   0
                l(3) =   1
                l(4) =   1
                l(5) =   2
                l(6) =   2
     Q(r) pseudized with 0 coefficients 


     atomic species   valence    mass     pseudopotential
        O1             6.00     1.00000     O ( 1.00)
        Fe1            8.00     1.00000     Fe( 1.00)
        Fe2            8.00     1.00000     Fe( 1.00)

     Starting magnetic structure 
     atomic species   magnetization
        O1           0.000
        Fe1          0.500
        Fe2         -0.500

     LDA+U calculation, Hubbard_lmax = 2
     atomic species  L   Hubbard U  Hubbard alpha
        Fe1          2    0.316044    0.000000
        Fe2          2    0.316044    0.000000

      6 Sym. Ops. (no inversion) found



   Cartesian axes

     site n.     atom                  positions (alat units)
         1           O1  tau(   1) = (   0.5000000   0.5000000   0.5000000  )
         2           O1  tau(   2) = (   1.5000000   1.5000000   1.5000000  )
         3           Fe1 tau(   3) = (   0.1000000   0.1000000   0.1000000  )
         4           Fe2 tau(   4) = (   0.9000000   0.9000000   0.9000000  )

     number of k points=     8  gaussian smearing, width (Ry)=  0.0100
                       cart. coord. in units 2pi/alat
        k(    1) = (   0.0000000   0.0000000   0.0000000), wk =   0.1250000
        k(    2) = (  -0.7500000   0.2500000   0.2500000), wk =   0.3750000
        k(    3) = (  -0.5000000  -0.5000000   0.5000000), wk =   0.3750000
        k(    4) = (  -0.2500000  -0.2500000  -0.2500000), wk =   0.1250000
        k(    5) = (   0.0000000   0.0000000   0.0000000), wk =   0.1250000
        k(    6) = (  -0.7500000   0.2500000   0.2500000), wk =   0.3750000
        k(    7) = (  -0.5000000  -0.5000000   0.5000000), wk =   0.3750000
        k(    8) = (  -0.2500000  -0.2500000  -0.2500000), wk =   0.1250000

     Dense  grid:    17255 G-vectors     FFT dimensions: (  50,  50,  50)

     Smooth grid:     6111 G-vectors     FFT dimensions: (  36,  36,  36)

     Largest allocated arrays     est. size (Mb)     dimensions
        Kohn-Sham Wavefunctions         0.24 Mb     (    780,   20)
        Atomic wavefunctions            0.24 Mb     (    780,   20)
        NL pseudopotentials             0.62 Mb     (    780,   52)
        Each V/rho on FFT grid          3.81 Mb     ( 125000,   2)
        Each G-vector array             0.13 Mb     (  17255)
        G-vector shells                 0.00 Mb     (    342)
     Largest temporary arrays     est. size (Mb)     dimensions
        Auxiliary wavefunctions         0.95 Mb     (    780,   80)
        Each subspace H/S matrix        0.10 Mb     (  80,  80)
        Each <psi_i|beta_j> matrix      0.02 Mb     (     52,   20)
        Arrays for rho mixing          15.26 Mb     ( 125000,   8)

     Check: negative/imaginary core charge=   -0.000006    0.000000

     Initial potential from superposition of free atoms

     starting charge   27.99905, renormalised to   28.00000

     Parameters of the lda+U calculation:
     Number of iteration with fixed ns =  0
     Starting ns and Hubbard U :
 enter write_ns
U( 1) =  0.0000      U( 2) =  4.3000      U( 3) =  4.3000
alpha( 1) =  0.0000      alpha( 2) =  0.0000      alpha( 3) =  0.0000
atom    3   Tr[ns(na)]=   6.0000000
atom    3   spin  1
eigenvalues:  1.0000000 1.0000000 1.0000000 1.0000000 1.0000000
 eigenvectors
 1   1.0000000  0.0000000  0.0000000  0.0000000  0.0000000
 2   0.0000000  1.0000000  0.0000000  0.0000000  0.0000000
 3   0.0000000  0.0000000  1.0000000  0.0000000  0.0000000
 4   0.0000000  0.0000000  0.0000000  1.0000000  0.0000000
 5   0.0000000  0.0000000  0.0000000  0.0000000  1.0000000
 occupations
 1.000  0.000  0.000  0.000  0.000
 0.000  1.000  0.000  0.000  0.000
 0.000  0.000  1.000  0.000  0.000
 0.000  0.000  0.000  1.000  0.000
 0.000  0.000  0.000  0.000  1.000
atom    3   spin  2
eigenvalues:  0.2000000 0.2000000 0.2000000 0.2000000 0.2000000
 eigenvectors
 1   1.0000000  0.0000000  0.0000000  0.0000000  0.0000000
 2   0.0000000  1.0000000  0.0000000  0.0000000  0.0000000
 3   0.0000000  0.0000000  1.0000000  0.0000000  0.0000000
 4   0.0000000  0.0000000  0.0000000  1.0000000  0.0000000
 5   0.0000000  0.0000000  0.0000000  0.0000000  1.0000000
 occupations
 0.200  0.000  0.000  0.000  0.000
 0.000  0.200  0.000  0.000  0.000
 0.000  0.000  0.200  0.000  0.000
 0.000  0.000  0.000  0.200  0.000
 0.000  0.000  0.000  0.000  0.200
atom    4   Tr[ns(na)]=   6.0000000
atom    4   spin  1
eigenvalues:  0.2000000 0.2000000 0.2000000 0.2000000 0.2000000
 eigenvectors
 1   1.0000000  0.0000000  0.0000000  0.0000000  0.0000000
 2   0.0000000  1.0000000  0.0000000  0.0000000  0.0000000
 3   0.0000000  0.0000000  1.0000000  0.0000000  0.0000000
 4   0.0000000  0.0000000  0.0000000  1.0000000  0.0000000
 5   0.0000000  0.0000000  0.0000000  0.0000000  1.0000000
 occupations
 0.200  0.000  0.000  0.000  0.000
 0.000  0.200  0.000  0.000  0.000
 0.000  0.000  0.200  0.000  0.000
 0.000  0.000  0.000  0.200  0.000
 0.000  0.000  0.000  0.000  0.200
atom    4   spin  2
eigenvalues:  1.0000000 1.0000000 1.0000000 1.0000000 1.0000000
 eigenvectors
 1   1.0000000  0.0000000  0.0000000  0.0000000  0.0000000
 2   0.0000000  1.0000000  0.0000000  0.0000000  0.0000000
 3   0.0000000  0.0000000  1.0000000  0.0000000  0.0000000
 4   0.0000000  0.0000000  0.0000000  1.0000000  0.0000000
 5   0.0000000  0.0000000  0.0000000  0.0000000  1.0000000
 occupations
 1.000  0.000  0.000  0.000  0.000
 0.000  1.000  0.000  0.000  0.000
 0.000  0.000  1.000  0.000  0.000
 0.000  0.000  0.000  1.000  0.000
 0.000  0.000  0.000  0.000  1.000
nsum =  12.0000000
 exit write_ns
 Atomic wfc used for LDA+U Projector are NOT orthogonalized
     Starting wfc are   20 randomized atomic wfcs

     total cpu time spent up to now is        2.5 secs

     per-process dynamical memory:    35.5 Mb

     Self-consistent Calculation

     iteration #  1     ecut=    30.00 Ry     beta=0.30
     Davidson diagonalization with overlap
     ethr =  1.00E-02,  avg # of iterations =  2.9
 enter write_ns
U( 1) =  0.0000      U( 2) =  4.3000      U( 3) =  4.3000
alpha( 1) =  0.0000      alpha( 2) =  0.0000      alpha( 3) =  0.0000
atom    3   Tr[ns(na)]=   6.3952210
atom    3   spin  1
eigenvalues:  0.9360329 0.9360329 0.9574186 0.9755905 0.9755905
 eigenvectors
 1  -0.1433579 -0.0467044 -0.6734218  0.0720318 -0.7201262
 2  -0.0720318 -0.8045653  0.4427299 -0.1433579 -0.3618354
 3   0.0000000 -0.5773503 -0.5773503  0.0000000  0.5773503
 4   0.2864300  0.0895577 -0.1275714 -0.9445728 -0.0380137
 5   0.9445728 -0.0956006 -0.0297589  0.2864300 -0.1253595
 occupations
 0.975 -0.003 -0.003  0.000 -0.005
-0.003  0.944  0.007 -0.004 -0.007
-0.003  0.007  0.944  0.004 -0.007
 0.000 -0.004  0.004  0.975  0.000
-0.005 -0.007 -0.007  0.000  0.944
atom    3   spin  2
eigenvalues:  0.1773055 0.1773055 0.3154787 0.4722330 0.4722330
 eigenvectors
 1  -0.3489026 -0.1800646  0.2891927  0.8662000  0.1091281
 2  -0.8662000  0.2299706  0.0409552 -0.3489026  0.2709258
 3   0.0000000 -0.5773503 -0.5773503  0.0000000  0.5773503
 4  -0.1447446 -0.7581050  0.4495881 -0.3271293 -0.3085169
 5   0.3271293  0.0814475  0.6158145 -0.1447446  0.6972620
 occupations
 0.215  0.040  0.040  0.000  0.080
 0.040  0.395 -0.040  0.070  0.040
 0.040 -0.040  0.395 -0.070  0.040
 0.000  0.070 -0.070  0.215  0.000
 0.080  0.040  0.040  0.000  0.395
atom    4   Tr[ns(na)]=   6.3956068
atom    4   spin  1
eigenvalues:  0.1773615 0.1773615 0.3153169 0.4724000 0.4724000
 eigenvectors
 1  -0.4303610 -0.1570736  0.2915600  0.8288688  0.1344864
 2  -0.8288688  0.2459780  0.0130407 -0.4303610  0.2590188
 3   0.0000000  0.5773503  0.5773503  0.0000000 -0.5773503
 4   0.2144998  0.7570689 -0.2994645  0.2859297  0.4576044
 5   0.2859297 -0.0913021  0.7012919 -0.2144998  0.6099898
 occupations
 0.215  0.040  0.040  0.000  0.080
 0.040  0.395 -0.040  0.070  0.040
 0.040 -0.040  0.395 -0.070  0.040
 0.000  0.070 -0.070  0.215  0.000
 0.080  0.040  0.040  0.000  0.395
atom    4   spin  2
eigenvalues:  0.9361382 0.9361382 0.9573624 0.9755640 0.9755640
 eigenvectors
 1  -0.0584650 -0.7963753  0.5045382 -0.1504676 -0.2918371
 2  -0.1504676 -0.1228030 -0.6282797  0.0584650 -0.7510828
 3   0.0000000  0.5773503  0.5773503  0.0000000 -0.5773503
 4   0.1991984  0.0984946 -0.1250988 -0.9665719 -0.0266042
 5   0.9665719 -0.0875857 -0.0415059  0.1991984 -0.1290917
 occupations
 0.975 -0.003 -0.003  0.000 -0.005
-0.003  0.944  0.007 -0.004 -0.007
-0.003  0.007  0.944  0.004 -0.007
 0.000 -0.004  0.004  0.975  0.000
-0.005 -0.007 -0.007  0.000  0.944
nsum =  12.7908277
 exit write_ns

     total cpu time spent up to now is        3.6 secs

     total energy              =    -173.03759244 Ry
     Harris-Foulkes estimate   =    -174.32586802 Ry
     estimated scf accuracy    <       2.88590383 Ry

     total magnetization       =     0.00 Bohr mag/cell
     absolute magnetization    =     6.80 Bohr mag/cell

     iteration #  2     ecut=    30.00 Ry     beta=0.30
     Davidson diagonalization with overlap
     ethr =  1.00E-02,  avg # of iterations =  2.0

     total cpu time spent up to now is        4.6 secs

     total energy              =    -172.45347306 Ry
     Harris-Foulkes estimate   =    -174.73251958 Ry
     estimated scf accuracy    <      15.72015071 Ry

     total magnetization       =     0.01 Bohr mag/cell
     absolute magnetization    =     2.76 Bohr mag/cell

     iteration #  3     ecut=    30.00 Ry     beta=0.30
     Davidson diagonalization with overlap
     ethr =  1.00E-02,  avg # of iterations =  2.0

     total cpu time spent up to now is        5.6 secs

     total energy              =    -173.89983828 Ry
     Harris-Foulkes estimate   =    -174.00605665 Ry
     estimated scf accuracy    <       0.93167614 Ry

     total magnetization       =     0.00 Bohr mag/cell
     absolute magnetization    =     5.83 Bohr mag/cell

     iteration #  4     ecut=    30.00 Ry     beta=0.30
     Davidson diagonalization with overlap
     ethr =  3.33E-03,  avg # of iterations =  1.0

     total cpu time spent up to now is        6.5 secs

     total energy              =    -173.81683919 Ry
     Harris-Foulkes estimate   =    -173.91898385 Ry
     estimated scf accuracy    <       0.46718743 Ry

     total magnetization       =     0.01 Bohr mag/cell
     absolute magnetization    =     5.65 Bohr mag/cell

     iteration #  5     ecut=    30.00 Ry     beta=0.30
     Davidson diagonalization with overlap
     ethr =  1.67E-03,  avg # of iterations =  1.2

     total cpu time spent up to now is        7.5 secs

     total energy              =    -173.91254812 Ry
     Harris-Foulkes estimate   =    -173.96767627 Ry
     estimated scf accuracy    <       2.09923882 Ry

     total magnetization       =    -0.06 Bohr mag/cell
     absolute magnetization    =     4.26 Bohr mag/cell

     iteration #  6     ecut=    30.00 Ry     beta=0.30
     Davidson diagonalization with overlap
     ethr =  1.67E-03,  avg # of iterations =  1.0

     total cpu time spent up to now is        8.4 secs

     total energy              =    -173.94401201 Ry
     Harris-Foulkes estimate   =    -173.92349509 Ry
     estimated scf accuracy    <       0.81177683 Ry

     total magnetization       =     0.00 Bohr mag/cell
     absolute magnetization    =     4.54 Bohr mag/cell

     iteration #  7     ecut=    30.00 Ry     beta=0.30
     Davidson diagonalization with overlap
     ethr =  1.67E-03,  avg # of iterations =  1.0

     total cpu time spent up to now is        9.5 secs

     total energy              =    -173.97153156 Ry
     Harris-Foulkes estimate   =    -173.94905218 Ry
     estimated scf accuracy    <       1.33361065 Ry

     total magnetization       =    -0.24 Bohr mag/cell
     absolute magnetization    =     4.36 Bohr mag/cell

     iteration #  8     ecut=    30.00 Ry     beta=0.30
     Davidson diagonalization with overlap
     ethr =  1.67E-03,  avg # of iterations =  1.0

     total cpu time spent up to now is       10.4 secs

     total energy              =    -173.90390029 Ry
     Harris-Foulkes estimate   =    -173.97685721 Ry
     estimated scf accuracy    <       1.83100906 Ry

     total magnetization       =     0.08 Bohr mag/cell
     absolute magnetization    =     4.15 Bohr mag/cell

     iteration #  9     ecut=    30.00 Ry     beta=0.30
     Davidson diagonalization with overlap
     ethr =  1.67E-03,  avg # of iterations =  1.0

     total cpu time spent up to now is       11.4 secs

     total energy              =    -173.91552846 Ry
     Harris-Foulkes estimate   =    -173.92632383 Ry
     estimated scf accuracy    <       0.31367461 Ry

     total magnetization       =     0.00 Bohr mag/cell
     absolute magnetization    =     4.44 Bohr mag/cell

     iteration # 10     ecut=    30.00 Ry     beta=0.30
     Davidson diagonalization with overlap
     ethr =  1.12E-03,  avg # of iterations =  1.0

     total cpu time spent up to now is       12.3 secs

     total energy              =    -173.92102951 Ry
     Harris-Foulkes estimate   =    -173.91843155 Ry
     estimated scf accuracy    <       0.09223970 Ry

     total magnetization       =     0.00 Bohr mag/cell
     absolute magnetization    =     4.52 Bohr mag/cell

     iteration # 11     ecut=    30.00 Ry     beta=0.30
     Davidson diagonalization with overlap
     ethr =  3.29E-04,  avg # of iterations =  1.0

     total cpu time spent up to now is       13.3 secs

     total energy              =    -173.91291626 Ry
     Harris-Foulkes estimate   =    -173.92139227 Ry
     estimated scf accuracy    <       0.14127389 Ry

     total magnetization       =     0.01 Bohr mag/cell
     absolute magnetization    =     4.45 Bohr mag/cell

     iteration # 12     ecut=    30.00 Ry     beta=0.30
     Davidson diagonalization with overlap
     ethr =  3.29E-04,  avg # of iterations =  1.0

     total cpu time spent up to now is       14.3 secs

     total energy              =    -173.91800007 Ry
     Harris-Foulkes estimate   =    -173.91800347 Ry
     estimated scf accuracy    <       0.00126365 Ry

     total magnetization       =     0.02 Bohr mag/cell
     absolute magnetization    =     4.47 Bohr mag/cell

     iteration # 13     ecut=    30.00 Ry     beta=0.30
     Davidson diagonalization with overlap
     ethr =  4.51E-06,  avg # of iterations =  2.5

     total cpu time spent up to now is       15.3 secs

     total energy              =    -173.91821736 Ry
     Harris-Foulkes estimate   =    -173.91816377 Ry
     estimated scf accuracy    <       0.00177889 Ry

     total magnetization       =     0.04 Bohr mag/cell
     absolute magnetization    =     4.47 Bohr mag/cell

     iteration # 14     ecut=    30.00 Ry     beta=0.30
     Davidson diagonalization with overlap
     ethr =  4.51E-06,  avg # of iterations =  1.0

     total cpu time spent up to now is       16.2 secs

     total energy              =    -173.91832970 Ry
     Harris-Foulkes estimate   =    -173.91827732 Ry
     estimated scf accuracy    <       0.00063136 Ry

     total magnetization       =     0.05 Bohr mag/cell
     absolute magnetization    =     4.45 Bohr mag/cell

     iteration # 15     ecut=    30.00 Ry     beta=0.30
     Davidson diagonalization with overlap
     ethr =  2.25E-06,  avg # of iterations =  1.0

     total cpu time spent up to now is       17.2 secs

     total energy              =    -173.91830667 Ry
     Harris-Foulkes estimate   =    -173.91834716 Ry
     estimated scf accuracy    <       0.00055166 Ry

     total magnetization       =     0.06 Bohr mag/cell
     absolute magnetization    =     4.44 Bohr mag/cell

     iteration # 16     ecut=    30.00 Ry     beta=0.30
     Davidson diagonalization with overlap
     ethr =  1.97E-06,  avg # of iterations =  1.1

     total cpu time spent up to now is       18.2 secs

     total energy              =    -173.91854892 Ry
     Harris-Foulkes estimate   =    -173.91845392 Ry
     estimated scf accuracy    <       0.00569807 Ry

     total magnetization       =     0.05 Bohr mag/cell
     absolute magnetization    =     4.43 Bohr mag/cell

     iteration # 17     ecut=    30.00 Ry     beta=0.30
     Davidson diagonalization with overlap
     ethr =  1.97E-06,  avg # of iterations =  1.0

     total cpu time spent up to now is       19.1 secs

     total energy              =    -173.91875316 Ry
     Harris-Foulkes estimate   =    -173.91857121 Ry
     estimated scf accuracy    <       0.00708771 Ry

     total magnetization       =     0.06 Bohr mag/cell
     absolute magnetization    =     4.42 Bohr mag/cell

     iteration # 18     ecut=    30.00 Ry     beta=0.30
     Davidson diagonalization with overlap
     ethr =  1.97E-06,  avg # of iterations =  1.0

     total cpu time spent up to now is       20.1 secs

     total energy              =    -173.91873144 Ry
     Harris-Foulkes estimate   =    -173.91883214 Ry
     estimated scf accuracy    <       0.00943685 Ry

     total magnetization       =     0.07 Bohr mag/cell
     absolute magnetization    =     4.45 Bohr mag/cell

     iteration # 19     ecut=    30.00 Ry     beta=0.30
     Davidson diagonalization with overlap
     ethr =  1.97E-06,  avg # of iterations =  1.0

     total cpu time spent up to now is       21.0 secs

     total energy              =    -173.91879863 Ry
     Harris-Foulkes estimate   =    -173.91882823 Ry
     estimated scf accuracy    <       0.00275598 Ry

     total magnetization       =     0.07 Bohr mag/cell
     absolute magnetization    =     4.43 Bohr mag/cell

     iteration # 20     ecut=    30.00 Ry     beta=0.30
     Davidson diagonalization with overlap
     ethr =  1.97E-06,  avg # of iterations =  1.1

     total cpu time spent up to now is       22.0 secs

     total energy              =    -173.91887123 Ry
     Harris-Foulkes estimate   =    -173.91888278 Ry
     estimated scf accuracy    <       0.00133917 Ry

     total magnetization       =     0.03 Bohr mag/cell
     absolute magnetization    =     4.41 Bohr mag/cell

     iteration # 21     ecut=    30.00 Ry     beta=0.30
     Davidson diagonalization with overlap
     ethr =  1.97E-06,  avg # of iterations =  1.0

     total cpu time spent up to now is       23.0 secs

     total energy              =    -173.91892870 Ry
     Harris-Foulkes estimate   =    -173.91888727 Ry
     estimated scf accuracy    <       0.00027131 Ry

     total magnetization       =     0.04 Bohr mag/cell
     absolute magnetization    =     4.39 Bohr mag/cell

     iteration # 22     ecut=    30.00 Ry     beta=0.30
     Davidson diagonalization with overlap
     ethr =  9.69E-07,  avg # of iterations =  1.1

     total cpu time spent up to now is       23.9 secs

     total energy              =    -173.91898708 Ry
     Harris-Foulkes estimate   =    -173.91900289 Ry
     estimated scf accuracy    <       0.00032822 Ry

     total magnetization       =     0.10 Bohr mag/cell
     absolute magnetization    =     4.39 Bohr mag/cell

     iteration # 23     ecut=    30.00 Ry     beta=0.30
     Davidson diagonalization with overlap
     ethr =  9.69E-07,  avg # of iterations =  1.0

     total cpu time spent up to now is       24.9 secs

     total energy              =    -173.91897026 Ry
     Harris-Foulkes estimate   =    -173.91899024 Ry
     estimated scf accuracy    <       0.00026848 Ry

     total magnetization       =     0.09 Bohr mag/cell
     absolute magnetization    =     4.38 Bohr mag/cell

     iteration # 24     ecut=    30.00 Ry     beta=0.30
     Davidson diagonalization with overlap
     ethr =  9.59E-07,  avg # of iterations =  1.0

     total cpu time spent up to now is       25.8 secs

     total energy              =    -173.91898082 Ry
     Harris-Foulkes estimate   =    -173.91897579 Ry
     estimated scf accuracy    <       0.00011317 Ry

     total magnetization       =     0.09 Bohr mag/cell
     absolute magnetization    =     4.39 Bohr mag/cell

     iteration # 25     ecut=    30.00 Ry     beta=0.30
     Davidson diagonalization with overlap
     ethr =  4.04E-07,  avg # of iterations =  1.0

     total cpu time spent up to now is       26.8 secs

     total energy              =    -173.91897330 Ry
     Harris-Foulkes estimate   =    -173.91898566 Ry
     estimated scf accuracy    <       0.00008435 Ry

     total magnetization       =     0.07 Bohr mag/cell
     absolute magnetization    =     4.38 Bohr mag/cell

     iteration # 26     ecut=    30.00 Ry     beta=0.30
     Davidson diagonalization with overlap
     ethr =  3.01E-07,  avg # of iterations =  1.0

     total cpu time spent up to now is       27.7 secs

     total energy              =    -173.91897123 Ry
     Harris-Foulkes estimate   =    -173.91898274 Ry
     estimated scf accuracy    <       0.00004608 Ry

     total magnetization       =     0.05 Bohr mag/cell
     absolute magnetization    =     4.38 Bohr mag/cell

     iteration # 27     ecut=    30.00 Ry     beta=0.30
     Davidson diagonalization with overlap
     ethr =  1.65E-07,  avg # of iterations =  1.0

     total cpu time spent up to now is       28.7 secs

     total energy              =    -173.91895418 Ry
     Harris-Foulkes estimate   =    -173.91898052 Ry
     estimated scf accuracy    <       0.00004701 Ry

     total magnetization       =     0.04 Bohr mag/cell
     absolute magnetization    =     4.37 Bohr mag/cell

     iteration # 28     ecut=    30.00 Ry     beta=0.30
     Davidson diagonalization with overlap
     ethr =  1.65E-07,  avg # of iterations =  1.1

     total cpu time spent up to now is       29.7 secs

     total energy              =    -173.91898893 Ry
     Harris-Foulkes estimate   =    -173.91899146 Ry
     estimated scf accuracy    <       0.00001687 Ry

     total magnetization       =     0.03 Bohr mag/cell
     absolute magnetization    =     4.36 Bohr mag/cell

     iteration # 29     ecut=    30.00 Ry     beta=0.30
     Davidson diagonalization with overlap
     ethr =  6.02E-08,  avg # of iterations =  1.4

     total cpu time spent up to now is       30.7 secs

     total energy              =    -173.91898816 Ry
     Harris-Foulkes estimate   =    -173.91899041 Ry
     estimated scf accuracy    <       0.00001232 Ry

     total magnetization       =     0.02 Bohr mag/cell
     absolute magnetization    =     4.37 Bohr mag/cell

     iteration # 30     ecut=    30.00 Ry     beta=0.30
     Davidson diagonalization with overlap
     ethr =  4.40E-08,  avg # of iterations =  1.0

     total cpu time spent up to now is       31.7 secs

     total energy              =    -173.91898879 Ry
     Harris-Foulkes estimate   =    -173.91898979 Ry
     estimated scf accuracy    <       0.00002685 Ry

     total magnetization       =     0.01 Bohr mag/cell
     absolute magnetization    =     4.37 Bohr mag/cell

     iteration # 31     ecut=    30.00 Ry     beta=0.30
     Davidson diagonalization with overlap
     ethr =  4.40E-08,  avg # of iterations =  1.0

     total cpu time spent up to now is       32.6 secs

     total energy              =    -173.91898935 Ry
     Harris-Foulkes estimate   =    -173.91898968 Ry
     estimated scf accuracy    <       0.00001186 Ry

     total magnetization       =     0.00 Bohr mag/cell
     absolute magnetization    =     4.37 Bohr mag/cell

     iteration # 32     ecut=    30.00 Ry     beta=0.30
     Davidson diagonalization with overlap
     ethr =  4.24E-08,  avg # of iterations =  1.0

     total cpu time spent up to now is       33.6 secs

     total energy              =    -173.91898894 Ry
     Harris-Foulkes estimate   =    -173.91898958 Ry
     estimated scf accuracy    <       0.00001122 Ry

     total magnetization       =     0.01 Bohr mag/cell
     absolute magnetization    =     4.37 Bohr mag/cell

     iteration # 33     ecut=    30.00 Ry     beta=0.30
     Davidson diagonalization with overlap
     ethr =  4.01E-08,  avg # of iterations =  1.0

     total cpu time spent up to now is       34.5 secs

     total energy              =    -173.91899174 Ry
     Harris-Foulkes estimate   =    -173.91899121 Ry
     estimated scf accuracy    <       0.00001067 Ry

     total magnetization       =     0.00 Bohr mag/cell
     absolute magnetization    =     4.37 Bohr mag/cell

     iteration # 34     ecut=    30.00 Ry     beta=0.30
     Davidson diagonalization with overlap
     ethr =  3.81E-08,  avg # of iterations =  1.0

     total cpu time spent up to now is       35.5 secs

     total energy              =    -173.91899377 Ry
     Harris-Foulkes estimate   =    -173.91899288 Ry
     estimated scf accuracy    <       0.00001883 Ry

     total magnetization       =     0.00 Bohr mag/cell
     absolute magnetization    =     4.37 Bohr mag/cell

     iteration # 35     ecut=    30.00 Ry     beta=0.30
     Davidson diagonalization with overlap
     ethr =  3.81E-08,  avg # of iterations =  1.0

     total cpu time spent up to now is       36.5 secs

     total energy              =    -173.91899240 Ry
     Harris-Foulkes estimate   =    -173.91899421 Ry
     estimated scf accuracy    <       0.00001223 Ry

     total magnetization       =     0.00 Bohr mag/cell
     absolute magnetization    =     4.37 Bohr mag/cell

     iteration # 36     ecut=    30.00 Ry     beta=0.30
     Davidson diagonalization with overlap
     ethr =  3.81E-08,  avg # of iterations =  1.0

     total cpu time spent up to now is       37.4 secs

     total energy              =    -173.91899177 Ry
     Harris-Foulkes estimate   =    -173.91899348 Ry
     estimated scf accuracy    <       0.00000918 Ry

     total magnetization       =     0.01 Bohr mag/cell
     absolute magnetization    =     4.37 Bohr mag/cell

     iteration # 37     ecut=    30.00 Ry     beta=0.30
     Davidson diagonalization with overlap
     ethr =  3.28E-08,  avg # of iterations =  1.0

     total cpu time spent up to now is       38.4 secs

     total energy              =    -173.91899209 Ry
     Harris-Foulkes estimate   =    -173.91899250 Ry
     estimated scf accuracy    <       0.00000686 Ry

     total magnetization       =     0.01 Bohr mag/cell
     absolute magnetization    =     4.37 Bohr mag/cell

     iteration # 38     ecut=    30.00 Ry     beta=0.30
     Davidson diagonalization with overlap
     ethr =  2.45E-08,  avg # of iterations =  1.0

     total cpu time spent up to now is       39.3 secs

     total energy              =    -173.91899053 Ry
     Harris-Foulkes estimate   =    -173.91899247 Ry
     estimated scf accuracy    <       0.00000719 Ry

     total magnetization       =     0.01 Bohr mag/cell
     absolute magnetization    =     4.37 Bohr mag/cell

     iteration # 39     ecut=    30.00 Ry     beta=0.30
     Davidson diagonalization with overlap
     ethr =  2.45E-08,  avg # of iterations =  1.0

     total cpu time spent up to now is       40.3 secs

     End of self-consistent calculation
 enter write_ns
U( 1) =  0.0000      U( 2) =  4.3000      U( 3) =  4.3000
alpha( 1) =  0.0000      alpha( 2) =  0.0000      alpha( 3) =  0.0000
atom    3   Tr[ns(na)]=   7.4054794
atom    3   spin  1
eigenvalues:  0.8887194 0.8887194 0.9300527 0.9742321 0.9742321
 eigenvectors
 1  -0.1881431 -0.7500791  0.1598246 -0.1674495 -0.5902544
 2   0.1674495 -0.2485088  0.7738419 -0.1881431  0.5253331
 3   0.0000000 -0.5773503 -0.5773503  0.0000000  0.5773503
 4  -0.2207850 -0.1499421  0.1968588  0.9422403  0.0469167
 5  -0.9422403  0.1407438  0.0594817 -0.2207850  0.2002256
 occupations
 0.969 -0.009 -0.009  0.000 -0.017
-0.009  0.906  0.012 -0.015 -0.012
-0.009  0.012  0.906  0.015 -0.012
 0.000 -0.015  0.015  0.969  0.000
-0.017 -0.012 -0.012  0.000  0.906
atom    3   spin  2
eigenvalues:  0.2809494 0.2809494 0.7286297 0.7286297 0.7303654
 eigenvectors
 1  -0.2779074 -0.1285257  0.1819192  0.9329004  0.0533935
 2  -0.9329004  0.1358579  0.0433775 -0.2779074  0.1792354
 3  -0.1281693 -0.7928284  0.3480902 -0.1898339 -0.4447382
 4   0.1898339 -0.0557997  0.7145094 -0.1281693  0.6587097
 5   0.0000000  0.5773503  0.5773503  0.0000000 -0.5773503
 occupations
 0.304  0.041  0.041  0.000  0.081
 0.041  0.714  0.008  0.071 -0.008
 0.041  0.008  0.714 -0.071 -0.008
 0.000  0.071 -0.071  0.304  0.000
 0.081 -0.008 -0.008  0.000  0.714
atom    4   Tr[ns(na)]=   7.4069164
atom    4   spin  1
eigenvalues:  0.2809227 0.2809227 0.7291236 0.7308730 0.7308730
 eigenvectors
 1   0.3222824  0.1210517 -0.1825227 -0.9189055 -0.0614710
 2   0.9189055 -0.1408698 -0.0343989  0.3222824 -0.1752687
 3   0.0000000 -0.5773503 -0.5773503  0.0000000  0.5773503
 4  -0.0479020 -0.7568431  0.5894146 -0.2223783 -0.1674284
 5  -0.2223783 -0.2436338 -0.5336284  0.0479020 -0.7772622
 occupations
 0.304  0.041  0.041  0.000  0.081
 0.041  0.715  0.007  0.070 -0.007
 0.041  0.007  0.715 -0.070 -0.007
 0.000  0.070 -0.070  0.304  0.000
 0.081 -0.007 -0.007  0.000  0.715
atom    4   spin  2
eigenvalues:  0.8880118 0.8880118 0.9300043 0.9740867 0.9740867
 eigenvectors
 1  -0.0302911 -0.7278183  0.6316552 -0.2472392 -0.0961631
 2   0.2472392  0.3091665  0.4757259 -0.0302911  0.7848924
 3   0.0000000 -0.5773503 -0.5773503  0.0000000  0.5773503
 4  -0.3010089 -0.1358029  0.1990143  0.9205155  0.0632114
 5   0.9205155 -0.1513960 -0.0419107  0.3010089 -0.1933068
 occupations
 0.969 -0.008 -0.008  0.000 -0.017
-0.008  0.906  0.012 -0.015 -0.012
-0.008  0.012  0.906  0.015 -0.012
 0.000 -0.015  0.015  0.969  0.000
-0.017 -0.012 -0.012  0.000  0.906
nsum =  14.8123958
 exit write_ns

 ------ SPIN UP ------------


          k = 0.0000 0.0000 0.0000 (   731 PWs)   bands (ev):

   -13.6441  -6.5264  -1.7839  -1.7839  -0.2922   3.6720   3.6720   6.5194
     7.3536   7.3536   7.6457   8.9478   9.4000   9.4000  10.8297  10.8297
    11.1748  12.1065  12.1065  17.5264

          k =-0.7500 0.2500 0.2500 (   764 PWs)   bands (ev):

   -13.2680  -6.0065  -1.3694  -0.0994   1.6854   3.6987   4.3523   4.9118
     5.3569   6.2006   6.7615   8.1544   8.4325   8.7049   9.6560   9.9326
    10.8940  11.5373  17.0438  17.3997

          k =-0.5000-0.5000 0.5000 (   780 PWs)   bands (ev):

   -13.2631  -5.9631  -1.4353  -0.0969   1.4902   4.1777   4.3484   4.7564
     5.0034   6.2575   6.7797   8.1771   8.8217   8.9784   9.3459  10.0979
    10.9554  11.6542  15.6539  16.6276

          k =-0.2500-0.2500-0.2500 (   748 PWs)   bands (ev):

   -13.6890  -6.5104  -1.7799  -1.7799   0.0756   3.6772   3.6772   5.6391
     7.0914   7.3095   7.3095   9.4194   9.4194   9.8251  10.8384  10.8384
    12.0808  12.0808  13.0993  14.1959

 ------ SPIN DOWN ----------


          k = 0.0000 0.0000 0.0000 (   731 PWs)   bands (ev):

   -13.6439  -6.5258  -1.7821  -1.7821  -0.2928   3.6792   3.6792   6.5196
     7.3573   7.3573   7.6461   8.9455   9.4009   9.4009  10.8344  10.8344
    11.1745  12.1056  12.1056  17.5268

          k =-0.7500 0.2500 0.2500 (   764 PWs)   bands (ev):

   -13.2672  -6.0059  -1.3670  -0.0984   1.6869   3.6996   4.3592   4.9185
     5.3586   6.2041   6.7623   8.1544   8.4321   8.7079   9.6593   9.9348
    10.8930  11.5366  17.0449  17.4004

          k =-0.5000-0.5000 0.5000 (   780 PWs)   bands (ev):

   -13.2624  -5.9624  -1.4328  -0.0960   1.4917   4.1796   4.3554   4.7574
     5.0097   6.2611   6.7795   8.1773   8.8223   8.9797   9.3514  10.0990
    10.9547  11.6534  15.6545  16.6282

          k =-0.2500-0.2500-0.2500 (   748 PWs)   bands (ev):

   -13.6889  -6.5097  -1.7781  -1.7781   0.0750   3.6844   3.6844   5.6392
     7.0917   7.3131   7.3131   9.4205   9.4205   9.8223  10.8430  10.8430
    12.0799  12.0799  13.0998  14.1962

     the Fermi energy is     9.4398 ev

!    total energy              =    -173.91899251 Ry
     Harris-Foulkes estimate   =    -173.91899233 Ry
     estimated scf accuracy    <       0.00000053 Ry

     The total energy is the sum of the following terms:

     one-electron contribution =     -41.23758942 Ry
     hartree contribution      =      47.34877168 Ry
     xc contribution           =     -66.06535376 Ry
     ewald contribution        =    -114.37446642 Ry
     Hubbard energy            =       0.41383789 Ry
     smearing contrib. (-TS)   =      -0.00419248 Ry

     total magnetization       =     0.01 Bohr mag/cell
     absolute magnetization    =     4.37 Bohr mag/cell

     convergence has been achieved in  39 iterations

     Forces acting on atoms (Ry/au):

     atom    1 type  1   force =     0.00005938    0.00005938    0.00005938
     atom    2 type  1   force =     0.00007868    0.00007868    0.00007868
     atom    3 type  2   force =    -0.22255559   -0.22255559   -0.22255559
     atom    4 type  3   force =     0.22241753    0.22241753    0.22241753

     Total force =     0.544979     Total SCF correction =     0.001008


     entering subroutine stress ...

          total   stress  (Ry/bohr**3)                   (kbar)     P=  360.07
   0.00244769  -0.00138988  -0.00138988        360.07   -204.46   -204.46
  -0.00138988   0.00244769  -0.00138988       -204.46    360.07   -204.46
  -0.00138988  -0.00138988   0.00244769       -204.46   -204.46    360.07


     Writing output data file pwscf.save
 
     init_run     :      2.32s CPU      2.34s WALL (       1 calls)
     electrons    :     37.04s CPU     37.78s WALL (       1 calls)
     forces       :      0.53s CPU      0.53s WALL (       1 calls)
     stress       :      2.72s CPU      2.75s WALL (       1 calls)

     Called by init_run:
     wfcinit      :      0.23s CPU      0.23s WALL (       1 calls)
     potinit      :      0.09s CPU      0.09s WALL (       1 calls)

     Called by electrons:
     c_bands      :     17.75s CPU     17.96s WALL (      39 calls)
     sum_band     :     10.66s CPU     10.84s WALL (      39 calls)
     v_of_rho     :      1.68s CPU      1.72s WALL (      40 calls)
     newd         :      5.13s CPU      5.20s WALL (      40 calls)
     mix_rho      :      0.65s CPU      0.65s WALL (      39 calls)

     Called by c_bands:
     init_us_2    :      0.54s CPU      0.56s WALL (     736 calls)
     cegterg      :     16.62s CPU     16.70s WALL (     312 calls)

     Called by *egterg:
     h_psi        :     14.06s CPU     14.12s WALL (     684 calls)
     s_psi        :      0.54s CPU      0.56s WALL (     772 calls)
     g_psi        :      0.26s CPU      0.20s WALL (     364 calls)
     cdiaghg      :      0.47s CPU      0.51s WALL (     676 calls)

     Called by h_psi:
     add_vuspsi   :      0.54s CPU      0.56s WALL (     684 calls)

     General routines
     calbec       :      1.34s CPU      1.38s WALL (    2536 calls)
     fft          :      1.47s CPU      1.46s WALL (     680 calls)
     ffts         :      0.13s CPU      0.12s WALL (     158 calls)
     fftw         :     11.84s CPU     11.67s WALL (   31804 calls)
     interpolate  :      0.62s CPU      0.66s WALL (     158 calls)
     davcio       :      0.02s CPU      0.25s WALL (    2160 calls)
 
 
     PWSCF        :    42.80s CPU        43.67s WALL

 
   This run was terminated on:  10:49:40   6Jan2012            

=------------------------------------------------------------------------------=
   JOB DONE.
=------------------------------------------------------------------------------=
