
     Program PWSCF v.4.3b       starts on 25Mar2011 at  7:45:23 

     This program is part of the open-source Quantum ESPRESSO suite
     for quantum simulation of materials; please cite
         "P. Giannozzi et al., J. Phys.:Condens. Matter 21 395502 (2009);
          URL http://www.quantum-espresso.org", 
     in publications or presentations arising from this work. More details at
     http://www.quantum-espresso.org/wiki/index.php/Citing_Quantum-ESPRESSO

     Current dimensions of program PWSCF are:
     Max number of different atomic species (ntypx) = 10
     Max number of k-points (npk) =  40000
     Max angular momentum in pseudopotentials (lmaxx) =  3
     Waiting for input...
 
   Stick Mesh
   ----------
   nst =   121,  nstw =    31, nsts =   121
               n.st   n.stw   n.sts    n.g    n.gw   n.gs
   min         121      31     121     869     113     869
   max         121      31     121     869     113     869
        121      31     121     869     113     869
 


     bravais-lattice index     =            2
     lattice parameter (a_0)   =      10.1800  a.u.
     unit-cell volume          =     263.7445 (a.u.)^3
     number of atoms/cell      =            2
     number of atomic types    =            1
     number of electrons       =         8.00
     number of Kohn-Sham states=            4
     kinetic-energy cutoff     =       8.0000  Ry
     charge density cutoff     =      32.0000  Ry
     convergence threshold     =      1.0E-08
     mixing beta               =       0.7000
     number of iterations used =            8  plain     mixing
     Exchange-correlation      =  SLA  PZ   NOGX NOGC (1100)
     EXX-fraction              =        0.00
     nstep                     =           50


     celldm(1)=  10.180000  celldm(2)=   0.000000  celldm(3)=   0.000000
     celldm(4)=   0.000000  celldm(5)=   0.000000  celldm(6)=   0.000000

     crystal axes: (cart. coord. in units of a_0)
               a(1) = (  -0.500000   0.000000   0.500000 )  
               a(2) = (   0.000000   0.500000   0.500000 )  
               a(3) = (  -0.500000   0.500000   0.000000 )  

     reciprocal axes: (cart. coord. in units 2 pi/a_0)
               b(1) = ( -1.000000 -1.000000  1.000000 )  
               b(2) = (  1.000000  1.000000  1.000000 )  
               b(3) = ( -1.000000  1.000000 -1.000000 )  


     PseudoPot. # 1 for Si read from file Si.pz-vbc.UPF
     MD5 check sum: 6dfa03ddd5817404712e03e4d12deb78
     Pseudo is Norm-conserving, Zval =  4.0
     Generated by new atomic code, or converted to UPF format
     Using radial grid of  431 points,  2 beta functions with: 
                l(1) =   0
                l(2) =   1

     atomic species   valence    mass     pseudopotential
        Si             4.00    28.08600     Si( 1.00)

     No symmetry found

   Cartesian axes

     site n.     atom                  positions (a_0 units)
         1           Si  tau(  1) = (  -0.1230000  -0.1230000  -0.1230000  )
         2           Si  tau(  2) = (   0.1230000   0.1230000   0.1230000  )

     number of k points=     1
                       cart. coord. in units 2pi/a_0
        k(    1) = (   0.0000000   0.0000000   0.0000000), wk =   2.0000000

     G cutoff =   84.0013  (    869 G-vectors)     FFT grid: ( 15, 15, 15)

     Largest allocated arrays     est. size (Mb)     dimensions
        Kohn-Sham Wavefunctions         0.01 Mb     (    113,   4)
        NL pseudopotentials             0.01 Mb     (    113,   8)
        Each V/rho on FFT grid          0.05 Mb     (   3375)
        Each G-vector array             0.01 Mb     (    869)
        G-vector shells                 0.00 Mb     (     31)
     Largest temporary arrays     est. size (Mb)     dimensions
        Auxiliary wavefunctions         0.03 Mb     (    113,  16)
        Each subspace H/S matrix        0.00 Mb     (     16,  16)
        Each <psi_i|beta_j> matrix      0.00 Mb     (      8,   4)
        Arrays for rho mixing           0.41 Mb     (   3375,   8)

     Initial potential from superposition of free atoms

     starting charge    7.99901, renormalised to    8.00000
     Starting wfc are    8 atomic wfcs

     total cpu time spent up to now is      0.04 secs

     per-process dynamical memory:     1.3 Mb

     Self-consistent Calculation

     iteration #  1     ecut=     8.00 Ry     beta=0.70
     Davidson diagonalization with overlap
     ethr =  1.00E-02,  avg # of iterations =  2.0

     total cpu time spent up to now is      0.04 secs

     total energy              =     -14.43221844 Ry
     Harris-Foulkes estimate   =     -14.55439923 Ry
     estimated scf accuracy    <       0.32475485 Ry

     iteration #  2     ecut=     8.00 Ry     beta=0.70
     Davidson diagonalization with overlap
     ethr =  4.06E-03,  avg # of iterations =  1.0

     total cpu time spent up to now is      0.04 secs

     total energy              =     -14.44690675 Ry
     Harris-Foulkes estimate   =     -14.44918383 Ry
     estimated scf accuracy    <       0.01103534 Ry

     iteration #  3     ecut=     8.00 Ry     beta=0.70
     Davidson diagonalization with overlap
     ethr =  1.38E-04,  avg # of iterations =  1.0

     total cpu time spent up to now is      0.05 secs

     total energy              =     -14.44790295 Ry
     Harris-Foulkes estimate   =     -14.44786774 Ry
     estimated scf accuracy    <       0.00018520 Ry

     iteration #  4     ecut=     8.00 Ry     beta=0.70
     Davidson diagonalization with overlap
     ethr =  2.32E-06,  avg # of iterations =  2.0

     total cpu time spent up to now is      0.05 secs

     total energy              =     -14.44793712 Ry
     Harris-Foulkes estimate   =     -14.44793646 Ry
     estimated scf accuracy    <       0.00000454 Ry

     iteration #  5     ecut=     8.00 Ry     beta=0.70
     Davidson diagonalization with overlap
     ethr =  5.68E-08,  avg # of iterations =  1.0

     total cpu time spent up to now is      0.05 secs

     total energy              =     -14.44793733 Ry
     Harris-Foulkes estimate   =     -14.44793732 Ry
     estimated scf accuracy    <       0.00000006 Ry

     iteration #  6     ecut=     8.00 Ry     beta=0.70
     Davidson diagonalization with overlap
     ethr =  7.59E-10,  avg # of iterations =  2.0

     total cpu time spent up to now is      0.05 secs

     End of self-consistent calculation

          k = 0.0000 0.0000 0.0000 (   113 PWs)   bands (ev):

    -4.7638   7.1611   7.5135   7.5135

!    total energy              =     -14.44793734 Ry
     Harris-Foulkes estimate   =     -14.44793734 Ry
     estimated scf accuracy    <          5.0E-09 Ry

     convergence has been achieved in   6 iterations

     Forces acting on atoms (Ry/au):

     atom   1 type  1   force =    -0.02329868   -0.02329868   -0.02329868
     atom   2 type  1   force =     0.02329868    0.02329868    0.02329868

     Total force =     0.057070     Total SCF correction =     0.000008

     Molecular Dynamics Calculation
     mass Si               =    28.09
     Time step             =    20.00 a.u.,  0.9676 femto-seconds

     Entering Dynamics:    iteration =     1
                           time      =   0.0010 pico-seconds


ATOMIC_POSITIONS (alat)
Si      -0.123017881  -0.123017881  -0.123017881
Si       0.123017881   0.123017881   0.123017881


     kinetic energy (Ekin) =     0.00000000 Ry
     temperature           =     0.00000000 K 
     Ekin + Etot (const)   =   -14.44793734 Ry

     Linear momentum :    0.0000000000    0.0000000000    0.0000000000

     Writing output data file pwscf.save
     NEW-OLD atomic charge density approx. for the potential

     total cpu time spent up to now is      0.08 secs

     per-process dynamical memory:     2.1 Mb

     Self-consistent Calculation

     iteration #  1     ecut=     8.00 Ry     beta=0.70
     Davidson diagonalization with overlap
     ethr =  1.00E-06,  avg # of iterations =  1.0

     Threshold (ethr) on eigenvalues was too large:
     Diagonalizing with lowered threshold

     Davidson diagonalization with overlap
     ethr =  1.42E-10,  avg # of iterations =  2.0

     total cpu time spent up to now is      0.08 secs

     End of self-consistent calculation

          k = 0.0000 0.0000 0.0000 (   113 PWs)   bands (ev):

    -4.7639   7.1630   7.5123   7.5123

!    total energy              =     -14.44796266 Ry
     Harris-Foulkes estimate   =     -14.44796266 Ry
     estimated scf accuracy    <          8.6E-09 Ry

     convergence has been achieved in   1 iterations

     Forces acting on atoms (Ry/au):

     atom   1 type  1   force =    -0.02308169   -0.02308169   -0.02308169
     atom   2 type  1   force =     0.02308169    0.02308169    0.02308169

     Total force =     0.056538     Total SCF correction =     0.000027

     Entering Dynamics:    iteration =     2
                           time      =   0.0019 pico-seconds


ATOMIC_POSITIONS (alat)
Si      -0.123071191  -0.123071191  -0.123071191
Si       0.123071191   0.123071191   0.123071191


     kinetic energy (Ekin) =     0.00002521 Ry
     temperature           =     2.65354072 K 
     Ekin + Etot (const)   =   -14.44793745 Ry

     Linear momentum :    0.0000000000    0.0000000000    0.0000000000

     Writing output data file pwscf.save
     NEW-OLD atomic charge density approx. for the potential

     total cpu time spent up to now is      0.11 secs

     per-process dynamical memory:     2.1 Mb

     Self-consistent Calculation

     iteration #  1     ecut=     8.00 Ry     beta=0.70
     Davidson diagonalization with overlap
     ethr =  1.00E-06,  avg # of iterations =  1.0

     Threshold (ethr) on eigenvalues was too large:
     Diagonalizing with lowered threshold

     Davidson diagonalization with overlap
     ethr =  1.21E-09,  avg # of iterations =  2.0

     total cpu time spent up to now is      0.11 secs

     total energy              =     -14.44803678 Ry
     Harris-Foulkes estimate   =     -14.44803677 Ry
     estimated scf accuracy    <       0.00000007 Ry

     iteration #  2     ecut=     8.00 Ry     beta=0.70
     Davidson diagonalization with overlap
     ethr =  9.14E-10,  avg # of iterations =  2.0

     total cpu time spent up to now is      0.11 secs

     End of self-consistent calculation

          k = 0.0000 0.0000 0.0000 (   113 PWs)   bands (ev):

    -4.7637   7.1694   7.5091   7.5091

!    total energy              =     -14.44803679 Ry
     Harris-Foulkes estimate   =     -14.44803679 Ry
     estimated scf accuracy    <          6.5E-09 Ry

     convergence has been achieved in   2 iterations

     Forces acting on atoms (Ry/au):

     atom   1 type  1   force =    -0.02244035   -0.02244035   -0.02244035
     atom   2 type  1   force =     0.02244035    0.02244035    0.02244035

     Total force =     0.054967     Total SCF correction =     0.000015

     Entering Dynamics:    iteration =     3
                           time      =   0.0029 pico-seconds


ATOMIC_POSITIONS (alat)
Si      -0.123158946  -0.123158946  -0.123158946
Si       0.123158946   0.123158946   0.123158946


     kinetic energy (Ekin) =     0.00009898 Ry
     temperature           =    10.41864151 K 
     Ekin + Etot (const)   =   -14.44793781 Ry

     Linear momentum :    0.0000000000    0.0000000000    0.0000000000

     Writing output data file pwscf.save
     NEW-OLD atomic charge density approx. for the potential

     total cpu time spent up to now is      0.14 secs

     per-process dynamical memory:     2.1 Mb

     Self-consistent Calculation

     iteration #  1     ecut=     8.00 Ry     beta=0.70
     Davidson diagonalization with overlap
     ethr =  1.00E-06,  avg # of iterations =  1.0

     Threshold (ethr) on eigenvalues was too large:
     Diagonalizing with lowered threshold

     Davidson diagonalization with overlap
     ethr =  3.52E-09,  avg # of iterations =  2.0

     total cpu time spent up to now is      0.14 secs

     total energy              =     -14.44815426 Ry
     Harris-Foulkes estimate   =     -14.44815426 Ry
     estimated scf accuracy    <       0.00000021 Ry

     iteration #  2     ecut=     8.00 Ry     beta=0.70
     Davidson diagonalization with overlap
     ethr =  2.65E-09,  avg # of iterations =  2.0

     total cpu time spent up to now is      0.14 secs

     total energy              =     -14.44815429 Ry
     Harris-Foulkes estimate   =     -14.44815428 Ry
     estimated scf accuracy    <       0.00000002 Ry

     iteration #  3     ecut=     8.00 Ry     beta=0.70
     Davidson diagonalization with overlap
     ethr =  2.19E-10,  avg # of iterations =  1.0

     total cpu time spent up to now is      0.14 secs

     End of self-consistent calculation

          k = 0.0000 0.0000 0.0000 (   113 PWs)   bands (ev):

    -4.7635   7.1795   7.5039   7.5039

!    total energy              =     -14.44815429 Ry
     Harris-Foulkes estimate   =     -14.44815429 Ry
     estimated scf accuracy    <          4.6E-10 Ry

     convergence has been achieved in   3 iterations

     Forces acting on atoms (Ry/au):

     atom   1 type  1   force =    -0.02139525   -0.02139525   -0.02139525
     atom   2 type  1   force =     0.02139525    0.02139525    0.02139525

     Total force =     0.052407     Total SCF correction =     0.000005

     Entering Dynamics:    iteration =     4
                           time      =   0.0039 pico-seconds


ATOMIC_POSITIONS (alat)
Si      -0.123279541  -0.123279541  -0.123279541
Si       0.123279541   0.123279541   0.123279541


     kinetic energy (Ekin) =     0.00021593 Ry
     temperature           =    22.72794715 K 
     Ekin + Etot (const)   =   -14.44793836 Ry

     Linear momentum :    0.0000000000    0.0000000000    0.0000000000

     Writing output data file pwscf.save
     NEW-OLD atomic charge density approx. for the potential

     total cpu time spent up to now is      0.17 secs

     per-process dynamical memory:     2.1 Mb

     Self-consistent Calculation

     iteration #  1     ecut=     8.00 Ry     beta=0.70
     Davidson diagonalization with overlap
     ethr =  1.00E-06,  avg # of iterations =  2.0

     Threshold (ethr) on eigenvalues was too large:
     Diagonalizing with lowered threshold

     Davidson diagonalization with overlap
     ethr =  5.75E-09,  avg # of iterations =  2.0

     total cpu time spent up to now is      0.17 secs

     total energy              =     -14.44830656 Ry
     Harris-Foulkes estimate   =     -14.44830655 Ry
     estimated scf accuracy    <       0.00000041 Ry

     iteration #  2     ecut=     8.00 Ry     beta=0.70
     Davidson diagonalization with overlap
     ethr =  5.07E-09,  avg # of iterations =  2.0

     total cpu time spent up to now is      0.17 secs

     total energy              =     -14.44830661 Ry
     Harris-Foulkes estimate   =     -14.44830659 Ry
     estimated scf accuracy    <       0.00000003 Ry

     iteration #  3     ecut=     8.00 Ry     beta=0.70
     Davidson diagonalization with overlap
     ethr =  4.23E-10,  avg # of iterations =  1.0

     total cpu time spent up to now is      0.18 secs

     End of self-consistent calculation

          k = 0.0000 0.0000 0.0000 (   113 PWs)   bands (ev):

    -4.7632   7.1936   7.4967   7.4967

!    total energy              =     -14.44830661 Ry
     Harris-Foulkes estimate   =     -14.44830661 Ry
     estimated scf accuracy    <          1.0E-09 Ry

     convergence has been achieved in   3 iterations

     Forces acting on atoms (Ry/au):

     atom   1 type  1   force =    -0.01995834   -0.01995834   -0.01995834
     atom   2 type  1   force =     0.01995834    0.01995834    0.01995834

     Total force =     0.048888     Total SCF correction =     0.000006

     Entering Dynamics:    iteration =     5
                           time      =   0.0048 pico-seconds


ATOMIC_POSITIONS (alat)
Si      -0.123430772  -0.123430772  -0.123430772
Si       0.123430772   0.123430772   0.123430772


     kinetic energy (Ekin) =     0.00036753 Ry
     temperature           =    38.68594213 K 
     Ekin + Etot (const)   =   -14.44793907 Ry

     Linear momentum :    0.0000000000    0.0000000000    0.0000000000

     Writing output data file pwscf.save
     NEW-OLD atomic charge density approx. for the potential

     total cpu time spent up to now is      0.20 secs

     per-process dynamical memory:     2.1 Mb

     Self-consistent Calculation

     iteration #  1     ecut=     8.00 Ry     beta=0.70
     Davidson diagonalization with overlap
     ethr =  1.00E-06,  avg # of iterations =  2.0

     Threshold (ethr) on eigenvalues was too large:
     Diagonalizing with lowered threshold

     Davidson diagonalization with overlap
     ethr =  9.05E-09,  avg # of iterations =  2.0

     total cpu time spent up to now is      0.20 secs

     total energy              =     -14.44848262 Ry
     Harris-Foulkes estimate   =     -14.44848260 Ry
     estimated scf accuracy    <       0.00000064 Ry

     iteration #  2     ecut=     8.00 Ry     beta=0.70
     Davidson diagonalization with overlap
     ethr =  7.98E-09,  avg # of iterations =  2.0

     total cpu time spent up to now is      0.21 secs

     total energy              =     -14.44848270 Ry
     Harris-Foulkes estimate   =     -14.44848267 Ry
     estimated scf accuracy    <       0.00000005 Ry

     iteration #  3     ecut=     8.00 Ry     beta=0.70
     Davidson diagonalization with overlap
     ethr =  6.64E-10,  avg # of iterations =  1.0

     total cpu time spent up to now is      0.21 secs

     End of self-consistent calculation

          k = 0.0000 0.0000 0.0000 (   113 PWs)   bands (ev):

    -4.7629   7.2112   7.4877   7.4877

!    total energy              =     -14.44848270 Ry
     Harris-Foulkes estimate   =     -14.44848270 Ry
     estimated scf accuracy    <          1.6E-09 Ry

     convergence has been achieved in   3 iterations

     Forces acting on atoms (Ry/au):

     atom   1 type  1   force =    -0.01816355   -0.01816355   -0.01816355
     atom   2 type  1   force =     0.01816355    0.01816355    0.01816355

     Total force =     0.044491     Total SCF correction =     0.000008

     Entering Dynamics:    iteration =     6
                           time      =   0.0058 pico-seconds


ATOMIC_POSITIONS (alat)
Si      -0.123609882  -0.123609882  -0.123609882
Si       0.123609882   0.123609882   0.123609882


     kinetic energy (Ekin) =     0.00054280 Ry
     temperature           =    57.13420999 K 
     Ekin + Etot (const)   =   -14.44793990 Ry

     Linear momentum :    0.0000000000    0.0000000000    0.0000000000

     Writing output data file pwscf.save
     NEW-OLD atomic charge density approx. for the potential

     total cpu time spent up to now is      0.23 secs

     per-process dynamical memory:     2.1 Mb

     Self-consistent Calculation

     iteration #  1     ecut=     8.00 Ry     beta=0.70
     Davidson diagonalization with overlap
     ethr =  1.00E-06,  avg # of iterations =  2.0

     Threshold (ethr) on eigenvalues was too large:
     Diagonalizing with lowered threshold

     Davidson diagonalization with overlap
     ethr =  1.27E-08,  avg # of iterations =  2.0

     total cpu time spent up to now is      0.24 secs

     total energy              =     -14.44866975 Ry
     Harris-Foulkes estimate   =     -14.44866974 Ry
     estimated scf accuracy    <       0.00000090 Ry

     iteration #  2     ecut=     8.00 Ry     beta=0.70
     Davidson diagonalization with overlap
     ethr =  1.12E-08,  avg # of iterations =  2.0

     total cpu time spent up to now is      0.24 secs

     total energy              =     -14.44866986 Ry
     Harris-Foulkes estimate   =     -14.44866983 Ry
     estimated scf accuracy    <       0.00000007 Ry

     iteration #  3     ecut=     8.00 Ry     beta=0.70
     Davidson diagonalization with overlap
     ethr =  9.29E-10,  avg # of iterations =  1.0

     total cpu time spent up to now is      0.24 secs

     End of self-consistent calculation

          k = 0.0000 0.0000 0.0000 (   113 PWs)   bands (ev):

    -4.7625   7.2321   7.4770   7.4770

!    total energy              =     -14.44866987 Ry
     Harris-Foulkes estimate   =     -14.44866987 Ry
     estimated scf accuracy    <          2.3E-09 Ry

     convergence has been achieved in   3 iterations

     Forces acting on atoms (Ry/au):

     atom   1 type  1   force =    -0.01604815   -0.01604815   -0.01604815
     atom   2 type  1   force =     0.01604815    0.01604815    0.01604815

     Total force =     0.039310     Total SCF correction =     0.000010

     Entering Dynamics:    iteration =     7
                           time      =   0.0068 pico-seconds


ATOMIC_POSITIONS (alat)
Si      -0.123813625  -0.123813625  -0.123813625
Si       0.123813625   0.123813625   0.123813625


     kinetic energy (Ekin) =     0.00072909 Ry
     temperature           =    76.74283741 K 
     Ekin + Etot (const)   =   -14.44794078 Ry

     Linear momentum :    0.0000000000    0.0000000000    0.0000000000

     Writing output data file pwscf.save
     NEW-OLD atomic charge density approx. for the potential

     total cpu time spent up to now is      0.26 secs

     per-process dynamical memory:     2.1 Mb

     Self-consistent Calculation

     iteration #  1     ecut=     8.00 Ry     beta=0.70
     Davidson diagonalization with overlap
     ethr =  1.00E-06,  avg # of iterations =  2.0

     Threshold (ethr) on eigenvalues was too large:
     Diagonalizing with lowered threshold

     Davidson diagonalization with overlap
     ethr =  1.64E-08,  avg # of iterations =  2.0

     total cpu time spent up to now is      0.27 secs

     total energy              =     -14.44885458 Ry
     Harris-Foulkes estimate   =     -14.44885456 Ry
     estimated scf accuracy    <       0.00000116 Ry

     iteration #  2     ecut=     8.00 Ry     beta=0.70
     Davidson diagonalization with overlap
     ethr =  1.45E-08,  avg # of iterations =  2.0

     total cpu time spent up to now is      0.27 secs

     total energy              =     -14.44885473 Ry
     Harris-Foulkes estimate   =     -14.44885468 Ry
     estimated scf accuracy    <       0.00000010 Ry

     iteration #  3     ecut=     8.00 Ry     beta=0.70
     Davidson diagonalization with overlap
     ethr =  1.20E-09,  avg # of iterations =  1.0

     total cpu time spent up to now is      0.27 secs

     End of self-consistent calculation

          k = 0.0000 0.0000 0.0000 (   113 PWs)   bands (ev):

    -4.7622   7.2559   7.4649   7.4649

!    total energy              =     -14.44885473 Ry
     Harris-Foulkes estimate   =     -14.44885473 Ry
     estimated scf accuracy    <          3.0E-09 Ry

     convergence has been achieved in   3 iterations

     Forces acting on atoms (Ry/au):

     atom   1 type  1   force =    -0.01365513   -0.01365513   -0.01365513
     atom   2 type  1   force =     0.01365513    0.01365513    0.01365513

     Total force =     0.033448     Total SCF correction =     0.000011

     Entering Dynamics:    iteration =     8
                           time      =   0.0077 pico-seconds


ATOMIC_POSITIONS (alat)
Si      -0.124038328  -0.124038328  -0.124038328
Si       0.124038328   0.124038328   0.124038328


     kinetic energy (Ekin) =     0.00091308 Ry
     temperature           =    96.10931965 K 
     Ekin + Etot (const)   =   -14.44794165 Ry

     Linear momentum :    0.0000000000    0.0000000000    0.0000000000

     Writing output data file pwscf.save
     NEW-OLD atomic charge density approx. for the potential

     total cpu time spent up to now is      0.30 secs

     per-process dynamical memory:     2.1 Mb

     Self-consistent Calculation

     iteration #  1     ecut=     8.00 Ry     beta=0.70
     Davidson diagonalization with overlap
     ethr =  1.00E-06,  avg # of iterations =  2.0

     Threshold (ethr) on eigenvalues was too large:
     Diagonalizing with lowered threshold

     Davidson diagonalization with overlap
     ethr =  1.82E-08,  avg # of iterations =  1.0

     total cpu time spent up to now is      0.30 secs

     total energy              =     -14.44902401 Ry
     Harris-Foulkes estimate   =     -14.44902399 Ry
     estimated scf accuracy    <       0.00000142 Ry

     iteration #  2     ecut=     8.00 Ry     beta=0.70
     Davidson diagonalization with overlap
     ethr =  1.78E-08,  avg # of iterations =  2.0

     total cpu time spent up to now is      0.30 secs

     total energy              =     -14.44902419 Ry
     Harris-Foulkes estimate   =     -14.44902414 Ry
     estimated scf accuracy    <       0.00000012 Ry

     iteration #  3     ecut=     8.00 Ry     beta=0.70
     Davidson diagonalization with overlap
     ethr =  1.46E-09,  avg # of iterations =  1.0

     total cpu time spent up to now is      0.30 secs

     End of self-consistent calculation

          k = 0.0000 0.0000 0.0000 (   113 PWs)   bands (ev):

    -4.7618   7.2821   7.4516   7.4516

!    total energy              =     -14.44902419 Ry
     Harris-Foulkes estimate   =     -14.44902419 Ry
     estimated scf accuracy    <          3.8E-09 Ry

     convergence has been achieved in   3 iterations

     Forces acting on atoms (Ry/au):

     atom   1 type  1   force =    -0.01103251   -0.01103251   -0.01103251
     atom   2 type  1   force =     0.01103251    0.01103251    0.01103251

     Total force =     0.027024     Total SCF correction =     0.000012

     Entering Dynamics:    iteration =     9
                           time      =   0.0087 pico-seconds


ATOMIC_POSITIONS (alat)
Si      -0.124279965  -0.124279965  -0.124279965
Si       0.124279965   0.124279965   0.124279965


     kinetic energy (Ekin) =     0.00108174 Ry
     temperature           =   113.86200598 K 
     Ekin + Etot (const)   =   -14.44794245 Ry

     Linear momentum :    0.0000000000    0.0000000000    0.0000000000

     Writing output data file pwscf.save
     NEW-OLD atomic charge density approx. for the potential

     total cpu time spent up to now is      0.33 secs

     per-process dynamical memory:     2.1 Mb

     Self-consistent Calculation

     iteration #  1     ecut=     8.00 Ry     beta=0.70
     Davidson diagonalization with overlap
     ethr =  1.00E-06,  avg # of iterations =  2.0

     Threshold (ethr) on eigenvalues was too large:
     Diagonalizing with lowered threshold

     Davidson diagonalization with overlap
     ethr =  2.11E-08,  avg # of iterations =  1.0

     total cpu time spent up to now is      0.33 secs

     total energy              =     -14.44916618 Ry
     Harris-Foulkes estimate   =     -14.44916617 Ry
     estimated scf accuracy    <       0.00000165 Ry

     iteration #  2     ecut=     8.00 Ry     beta=0.70
     Davidson diagonalization with overlap
     ethr =  2.06E-08,  avg # of iterations =  2.0

     total cpu time spent up to now is      0.34 secs

     total energy              =     -14.44916639 Ry
     Harris-Foulkes estimate   =     -14.44916633 Ry
     estimated scf accuracy    <       0.00000013 Ry

     iteration #  3     ecut=     8.00 Ry     beta=0.70
     Davidson diagonalization with overlap
     ethr =  1.68E-09,  avg # of iterations =  1.0

     total cpu time spent up to now is      0.34 secs

     End of self-consistent calculation

          k = 0.0000 0.0000 0.0000 (   113 PWs)   bands (ev):

    -4.7616   7.3104   7.4373   7.4373

!    total energy              =     -14.44916640 Ry
     Harris-Foulkes estimate   =     -14.44916639 Ry
     estimated scf accuracy    <          4.4E-09 Ry

     convergence has been achieved in   3 iterations

     Forces acting on atoms (Ry/au):

     atom   1 type  1   force =    -0.00823054   -0.00823054   -0.00823054
     atom   2 type  1   force =     0.00823054    0.00823054    0.00823054

     Total force =     0.020161     Total SCF correction =     0.000013

     Entering Dynamics:    iteration =    10
                           time      =   0.0097 pico-seconds


ATOMIC_POSITIONS (alat)
Si      -0.124534236  -0.124534236  -0.124534236
Si       0.124534236   0.124534236   0.124534236


     kinetic energy (Ekin) =     0.00122326 Ry
     temperature           =   128.75826757 K 
     Ekin + Etot (const)   =   -14.44794313 Ry

     Linear momentum :    0.0000000000    0.0000000000    0.0000000000

     Writing output data file pwscf.save
     NEW-OLD atomic charge density approx. for the potential

     total cpu time spent up to now is      0.36 secs

     per-process dynamical memory:     2.1 Mb

     Self-consistent Calculation

     iteration #  1     ecut=     8.00 Ry     beta=0.70
     Davidson diagonalization with overlap
     ethr =  1.00E-06,  avg # of iterations =  2.0

     Threshold (ethr) on eigenvalues was too large:
     Diagonalizing with lowered threshold

     Davidson diagonalization with overlap
     ethr =  2.34E-08,  avg # of iterations =  1.0

     total cpu time spent up to now is      0.36 secs

     total energy              =     -14.44927130 Ry
     Harris-Foulkes estimate   =     -14.44927130 Ry
     estimated scf accuracy    <       0.00000183 Ry

     iteration #  2     ecut=     8.00 Ry     beta=0.70
     Davidson diagonalization with overlap
     ethr =  2.29E-08,  avg # of iterations =  2.0

     total cpu time spent up to now is      0.37 secs

     total energy              =     -14.44927154 Ry
     Harris-Foulkes estimate   =     -14.44927147 Ry
     estimated scf accuracy    <       0.00000015 Ry

     iteration #  3     ecut=     8.00 Ry     beta=0.70
     Davidson diagonalization with overlap
     ethr =  1.85E-09,  avg # of iterations =  1.0

     total cpu time spent up to now is      0.37 secs

     End of self-consistent calculation

          k = 0.0000 0.0000 0.0000 (   113 PWs)   bands (ev):

    -4.7614   7.3402   7.4223   7.4223

!    total energy              =     -14.44927154 Ry
     Harris-Foulkes estimate   =     -14.44927154 Ry
     estimated scf accuracy    <          4.9E-09 Ry

     convergence has been achieved in   3 iterations

     Forces acting on atoms (Ry/au):

     atom   1 type  1   force =    -0.00530268   -0.00530268   -0.00530268
     atom   2 type  1   force =     0.00530268    0.00530268    0.00530268

     Total force =     0.012989     Total SCF correction =     0.000014

     Entering Dynamics:    iteration =    11
                           time      =   0.0106 pico-seconds


ATOMIC_POSITIONS (alat)
Si      -0.124796646  -0.124796646  -0.124796646
Si       0.124796646   0.124796646   0.124796646


     kinetic energy (Ekin) =     0.00132789 Ry
     temperature           =   139.77111367 K 
     Ekin + Etot (const)   =   -14.44794366 Ry

     Linear momentum :    0.0000000000    0.0000000000    0.0000000000

     Writing output data file pwscf.save
     NEW-OLD atomic charge density approx. for the potential

     total cpu time spent up to now is      0.39 secs

     per-process dynamical memory:     2.1 Mb

     Self-consistent Calculation

     iteration #  1     ecut=     8.00 Ry     beta=0.70
     Davidson diagonalization with overlap
     ethr =  1.00E-06,  avg # of iterations =  2.0

     Threshold (ethr) on eigenvalues was too large:
     Diagonalizing with lowered threshold

     Davidson diagonalization with overlap
     ethr =  2.49E-08,  avg # of iterations =  1.0

     total cpu time spent up to now is      0.40 secs

     total energy              =     -14.44933230 Ry
     Harris-Foulkes estimate   =     -14.44933230 Ry
     estimated scf accuracy    <       0.00000196 Ry

     iteration #  2     ecut=     8.00 Ry     beta=0.70
     Davidson diagonalization with overlap
     ethr =  2.44E-08,  avg # of iterations =  2.0

     total cpu time spent up to now is      0.40 secs

     total energy              =     -14.44933255 Ry
     Harris-Foulkes estimate   =     -14.44933248 Ry
     estimated scf accuracy    <       0.00000016 Ry

     iteration #  3     ecut=     8.00 Ry     beta=0.70
     Davidson diagonalization with overlap
     ethr =  1.97E-09,  avg # of iterations =  1.0

     total cpu time spent up to now is      0.40 secs

     End of self-consistent calculation

          k = 0.0000 0.0000 0.0000 (   113 PWs)   bands (ev):

    -4.7613   7.3710   7.4068   7.4068

!    total energy              =     -14.44933256 Ry
     Harris-Foulkes estimate   =     -14.44933255 Ry
     estimated scf accuracy    <          5.3E-09 Ry

     convergence has been achieved in   3 iterations

     Forces acting on atoms (Ry/au):

     atom   1 type  1   force =    -0.00230292   -0.00230292   -0.00230292
     atom   2 type  1   force =     0.00230292    0.00230292    0.00230292

     Total force =     0.005641     Total SCF correction =     0.000015

     Entering Dynamics:    iteration =    12
                           time      =   0.0116 pico-seconds


ATOMIC_POSITIONS (alat)
Si      -0.125062591  -0.125062591  -0.125062591
Si       0.125062591   0.125062591   0.125062591


     kinetic energy (Ekin) =     0.00138857 Ry
     temperature           =   146.15859677 K 
     Ekin + Etot (const)   =   -14.44794399 Ry

     Linear momentum :    0.0000000000    0.0000000000    0.0000000000

     Writing output data file pwscf.save
     NEW-OLD atomic charge density approx. for the potential

     total cpu time spent up to now is      0.43 secs

     per-process dynamical memory:     2.1 Mb

     Self-consistent Calculation

     iteration #  1     ecut=     8.00 Ry     beta=0.70
     Davidson diagonalization with overlap
     ethr =  1.00E-06,  avg # of iterations =  2.0

     Threshold (ethr) on eigenvalues was too large:
     Diagonalizing with lowered threshold

     Davidson diagonalization with overlap
     ethr =  2.56E-08,  avg # of iterations =  1.0

     total cpu time spent up to now is      0.43 secs

     total energy              =     -14.44934526 Ry
     Harris-Foulkes estimate   =     -14.44934527 Ry
     estimated scf accuracy    <       0.00000201 Ry

     iteration #  2     ecut=     8.00 Ry     beta=0.70
     Davidson diagonalization with overlap
     ethr =  2.52E-08,  avg # of iterations =  2.0

     total cpu time spent up to now is      0.43 secs

     total energy              =     -14.44934552 Ry
     Harris-Foulkes estimate   =     -14.44934544 Ry
     estimated scf accuracy    <       0.00000016 Ry

     iteration #  3     ecut=     8.00 Ry     beta=0.70
     Davidson diagonalization with overlap
     ethr =  2.01E-09,  avg # of iterations =  1.0

     total cpu time spent up to now is      0.43 secs

     End of self-consistent calculation

          k = 0.0000 0.0000 0.0000 (   113 PWs)   bands (ev):

    -4.7612   7.3911   7.3911   7.4023

!    total energy              =     -14.44934552 Ry
     Harris-Foulkes estimate   =     -14.44934552 Ry
     estimated scf accuracy    <          5.5E-09 Ry

     convergence has been achieved in   3 iterations

     Forces acting on atoms (Ry/au):

     atom   1 type  1   force =     0.00071498    0.00071498    0.00071498
     atom   2 type  1   force =    -0.00071498   -0.00071498   -0.00071498

     Total force =     0.001751     Total SCF correction =     0.000015

     Entering Dynamics:    iteration =    13
                           time      =   0.0126 pico-seconds


ATOMIC_POSITIONS (alat)
Si      -0.125327438  -0.125327438  -0.125327438
Si       0.125327438   0.125327438   0.125327438


     kinetic energy (Ekin) =     0.00140141 Ry
     temperature           =   147.51021449 K 
     Ekin + Etot (const)   =   -14.44794411 Ry

     Linear momentum :    0.0000000000    0.0000000000    0.0000000000

     Writing output data file pwscf.save
     NEW-OLD atomic charge density approx. for the potential

     total cpu time spent up to now is      0.46 secs

     per-process dynamical memory:     2.1 Mb

     Self-consistent Calculation

     iteration #  1     ecut=     8.00 Ry     beta=0.70
     Davidson diagonalization with overlap
     ethr =  1.00E-06,  avg # of iterations =  2.0

     Threshold (ethr) on eigenvalues was too large:
     Diagonalizing with lowered threshold

     Davidson diagonalization with overlap
     ethr =  2.55E-08,  avg # of iterations =  1.0

     total cpu time spent up to now is      0.46 secs

     total energy              =     -14.44930963 Ry
     Harris-Foulkes estimate   =     -14.44930964 Ry
     estimated scf accuracy    <       0.00000200 Ry

     iteration #  2     ecut=     8.00 Ry     beta=0.70
     Davidson diagonalization with overlap
     ethr =  2.50E-08,  avg # of iterations =  2.0

     total cpu time spent up to now is      0.46 secs

     total energy              =     -14.44930989 Ry
     Harris-Foulkes estimate   =     -14.44930981 Ry
     estimated scf accuracy    <       0.00000016 Ry

     iteration #  3     ecut=     8.00 Ry     beta=0.70
     Davidson diagonalization with overlap
     ethr =  1.98E-09,  avg # of iterations =  1.0

     total cpu time spent up to now is      0.47 secs

     End of self-consistent calculation

          k = 0.0000 0.0000 0.0000 (   113 PWs)   bands (ev):

    -4.7613   7.3756   7.3756   7.4335

!    total energy              =     -14.44930989 Ry
     Harris-Foulkes estimate   =     -14.44930989 Ry
     estimated scf accuracy    <          5.5E-09 Ry

     convergence has been achieved in   3 iterations

     Forces acting on atoms (Ry/au):

     atom   1 type  1   force =     0.00369847    0.00369847    0.00369847
     atom   2 type  1   force =    -0.00369847   -0.00369847   -0.00369847

     Total force =     0.009059     Total SCF correction =     0.000015

     Entering Dynamics:    iteration =    14
                           time      =   0.0135 pico-seconds


ATOMIC_POSITIONS (alat)
Si      -0.125586609  -0.125586609  -0.125586609
Si       0.125586609   0.125586609   0.125586609


     kinetic energy (Ekin) =     0.00136587 Ry
     temperature           =   143.76895084 K 
     Ekin + Etot (const)   =   -14.44794402 Ry

     Linear momentum :    0.0000000000    0.0000000000    0.0000000000

     Writing output data file pwscf.save
     NEW-OLD atomic charge density approx. for the potential

     total cpu time spent up to now is      0.49 secs

     per-process dynamical memory:     2.1 Mb

     Self-consistent Calculation

     iteration #  1     ecut=     8.00 Ry     beta=0.70
     Davidson diagonalization with overlap
     ethr =  1.00E-06,  avg # of iterations =  2.0

     Threshold (ethr) on eigenvalues was too large:
     Diagonalizing with lowered threshold

     Davidson diagonalization with overlap
     ethr =  2.44E-08,  avg # of iterations =  1.0

     total cpu time spent up to now is      0.49 secs

     total energy              =     -14.44922822 Ry
     Harris-Foulkes estimate   =     -14.44922824 Ry
     estimated scf accuracy    <       0.00000192 Ry

     iteration #  2     ecut=     8.00 Ry     beta=0.70
     Davidson diagonalization with overlap
     ethr =  2.40E-08,  avg # of iterations =  2.0

     total cpu time spent up to now is      0.50 secs

     total energy              =     -14.44922847 Ry
     Harris-Foulkes estimate   =     -14.44922839 Ry
     estimated scf accuracy    <       0.00000015 Ry

     iteration #  3     ecut=     8.00 Ry     beta=0.70
     Davidson diagonalization with overlap
     ethr =  1.89E-09,  avg # of iterations =  1.0

     total cpu time spent up to now is      0.50 secs

     End of self-consistent calculation

          k = 0.0000 0.0000 0.0000 (   113 PWs)   bands (ev):

    -4.7615   7.3604   7.3604   7.4641

!    total energy              =     -14.44922847 Ry
     Harris-Foulkes estimate   =     -14.44922847 Ry
     estimated scf accuracy    <          5.3E-09 Ry

     convergence has been achieved in   3 iterations

     Forces acting on atoms (Ry/au):

     atom   1 type  1   force =     0.00659710    0.00659710    0.00659710
     atom   2 type  1   force =    -0.00659710   -0.00659710   -0.00659710

     Total force =     0.016160     Total SCF correction =     0.000015

     Entering Dynamics:    iteration =    15
                           time      =   0.0145 pico-seconds


ATOMIC_POSITIONS (alat)
Si      -0.125835653  -0.125835653  -0.125835653
Si       0.125835653   0.125835653   0.125835653


     kinetic energy (Ekin) =     0.00128473 Ry
     temperature           =   135.22825316 K 
     Ekin + Etot (const)   =   -14.44794374 Ry

     Linear momentum :    0.0000000000    0.0000000000    0.0000000000

     Writing output data file pwscf.save
     NEW-OLD atomic charge density approx. for the potential

     total cpu time spent up to now is      0.52 secs

     per-process dynamical memory:     2.1 Mb

     Self-consistent Calculation

     iteration #  1     ecut=     8.00 Ry     beta=0.70
     Davidson diagonalization with overlap
     ethr =  1.00E-06,  avg # of iterations =  2.0

     Threshold (ethr) on eigenvalues was too large:
     Diagonalizing with lowered threshold

     Davidson diagonalization with overlap
     ethr =  2.26E-08,  avg # of iterations =  1.0

     total cpu time spent up to now is      0.53 secs

     total energy              =     -14.44910691 Ry
     Harris-Foulkes estimate   =     -14.44910694 Ry
     estimated scf accuracy    <       0.00000178 Ry

     iteration #  2     ecut=     8.00 Ry     beta=0.70
     Davidson diagonalization with overlap
     ethr =  2.22E-08,  avg # of iterations =  2.0

     total cpu time spent up to now is      0.53 secs

     total energy              =     -14.44910714 Ry
     Harris-Foulkes estimate   =     -14.44910708 Ry
     estimated scf accuracy    <       0.00000014 Ry

     iteration #  3     ecut=     8.00 Ry     beta=0.70
     Davidson diagonalization with overlap
     ethr =  1.74E-09,  avg # of iterations =  1.0

     total cpu time spent up to now is      0.53 secs

     End of self-consistent calculation

          k = 0.0000 0.0000 0.0000 (   113 PWs)   bands (ev):

    -4.7617   7.3458   7.3458   7.4936

!    total energy              =     -14.44910715 Ry
     Harris-Foulkes estimate   =     -14.44910714 Ry
     estimated scf accuracy    <          4.9E-09 Ry

     convergence has been achieved in   3 iterations

     Forces acting on atoms (Ry/au):

     atom   1 type  1   force =     0.00936326    0.00936326    0.00936326
     atom   2 type  1   force =    -0.00936326   -0.00936326   -0.00936326

     Total force =     0.022935     Total SCF correction =     0.000015

     Entering Dynamics:    iteration =    16
                           time      =   0.0155 pico-seconds


ATOMIC_POSITIONS (alat)
Si      -0.126070325  -0.126070325  -0.126070325
Si       0.126070325   0.126070325   0.126070325


     kinetic energy (Ekin) =     0.00116385 Ry
     temperature           =   122.50525957 K 
     Ekin + Etot (const)   =   -14.44794329 Ry

     Linear momentum :    0.0000000000    0.0000000000    0.0000000000

     Writing output data file pwscf.save
     NEW-OLD atomic charge density approx. for the potential

     total cpu time spent up to now is      0.55 secs

     per-process dynamical memory:     2.1 Mb

     Self-consistent Calculation

     iteration #  1     ecut=     8.00 Ry     beta=0.70
     Davidson diagonalization with overlap
     ethr =  1.00E-06,  avg # of iterations =  2.0

     Threshold (ethr) on eigenvalues was too large:
     Diagonalizing with lowered threshold

     Davidson diagonalization with overlap
     ethr =  2.01E-08,  avg # of iterations =  1.0

     total cpu time spent up to now is      0.56 secs

     total energy              =     -14.44895423 Ry
     Harris-Foulkes estimate   =     -14.44895426 Ry
     estimated scf accuracy    <       0.00000158 Ry

     iteration #  2     ecut=     8.00 Ry     beta=0.70
     Davidson diagonalization with overlap
     ethr =  1.98E-08,  avg # of iterations =  2.0

     total cpu time spent up to now is      0.56 secs

     total energy              =     -14.44895444 Ry
     Harris-Foulkes estimate   =     -14.44895438 Ry
     estimated scf accuracy    <       0.00000012 Ry

     iteration #  3     ecut=     8.00 Ry     beta=0.70
     Davidson diagonalization with overlap
     ethr =  1.54E-09,  avg # of iterations =  1.0

     total cpu time spent up to now is      0.56 secs

     End of self-consistent calculation

          k = 0.0000 0.0000 0.0000 (   113 PWs)   bands (ev):

    -4.7620   7.3321   7.3321   7.5213

!    total energy              =     -14.44895444 Ry
     Harris-Foulkes estimate   =     -14.44895444 Ry
     estimated scf accuracy    <          4.4E-09 Ry

     convergence has been achieved in   3 iterations

     Forces acting on atoms (Ry/au):

     atom   1 type  1   force =     0.01195275    0.01195275    0.01195275
     atom   2 type  1   force =    -0.01195275   -0.01195275   -0.01195275

     Total force =     0.029278     Total SCF correction =     0.000014

     Entering Dynamics:    iteration =    17
                           time      =   0.0164 pico-seconds


ATOMIC_POSITIONS (alat)
Si      -0.126286651  -0.126286651  -0.126286651
Si       0.126286651   0.126286651   0.126286651


     kinetic energy (Ekin) =     0.00101173 Ry
     temperature           =   106.49310614 K 
     Ekin + Etot (const)   =   -14.44794271 Ry

     Linear momentum :    0.0000000000    0.0000000000    0.0000000000

     Writing output data file pwscf.save
     NEW-OLD atomic charge density approx. for the potential

     total cpu time spent up to now is      0.59 secs

     per-process dynamical memory:     2.1 Mb

     Self-consistent Calculation

     iteration #  1     ecut=     8.00 Ry     beta=0.70
     Davidson diagonalization with overlap
     ethr =  1.00E-06,  avg # of iterations =  2.0

     Threshold (ethr) on eigenvalues was too large:
     Diagonalizing with lowered threshold

     Davidson diagonalization with overlap
     ethr =  1.71E-08,  avg # of iterations =  1.0

     total cpu time spent up to now is      0.59 secs

     total energy              =     -14.44878071 Ry
     Harris-Foulkes estimate   =     -14.44878074 Ry
     estimated scf accuracy    <       0.00000135 Ry

     iteration #  2     ecut=     8.00 Ry     beta=0.70
     Davidson diagonalization with overlap
     ethr =  1.68E-08,  avg # of iterations =  2.0

     total cpu time spent up to now is      0.59 secs

     total energy              =     -14.44878088 Ry
     Harris-Foulkes estimate   =     -14.44878084 Ry
     estimated scf accuracy    <       0.00000010 Ry

     iteration #  3     ecut=     8.00 Ry     beta=0.70
     Davidson diagonalization with overlap
     ethr =  1.30E-09,  avg # of iterations =  1.0

     total cpu time spent up to now is      0.59 secs

     End of self-consistent calculation

          k = 0.0000 0.0000 0.0000 (   113 PWs)   bands (ev):

    -4.7623   7.3195   7.3195   7.5470

!    total energy              =     -14.44878089 Ry
     Harris-Foulkes estimate   =     -14.44878089 Ry
     estimated scf accuracy    <          3.8E-09 Ry

     convergence has been achieved in   3 iterations

     Forces acting on atoms (Ry/au):

     atom   1 type  1   force =     0.01432532    0.01432532    0.01432532
     atom   2 type  1   force =    -0.01432532   -0.01432532   -0.01432532

     Total force =     0.035090     Total SCF correction =     0.000013

     Entering Dynamics:    iteration =    18
                           time      =   0.0174 pico-seconds


ATOMIC_POSITIONS (alat)
Si      -0.126480988  -0.126480988  -0.126480988
Si       0.126480988   0.126480988   0.126480988


     kinetic energy (Ekin) =     0.00083885 Ry
     temperature           =    88.29632657 K 
     Ekin + Etot (const)   =   -14.44794203 Ry

     Linear momentum :    0.0000000000    0.0000000000    0.0000000000

     Writing output data file pwscf.save
     NEW-OLD atomic charge density approx. for the potential

     total cpu time spent up to now is      0.62 secs

     per-process dynamical memory:     2.1 Mb

     Self-consistent Calculation

     iteration #  1     ecut=     8.00 Ry     beta=0.70
     Davidson diagonalization with overlap
     ethr =  1.00E-06,  avg # of iterations =  2.0

     Threshold (ethr) on eigenvalues was too large:
     Diagonalizing with lowered threshold

     Davidson diagonalization with overlap
     ethr =  1.52E-08,  avg # of iterations =  2.0

     total cpu time spent up to now is      0.62 secs

     total energy              =     -14.44859817 Ry
     Harris-Foulkes estimate   =     -14.44859819 Ry
     estimated scf accuracy    <       0.00000108 Ry

     iteration #  2     ecut=     8.00 Ry     beta=0.70
     Davidson diagonalization with overlap
     ethr =  1.36E-08,  avg # of iterations =  2.0

     total cpu time spent up to now is      0.63 secs

     total energy              =     -14.44859831 Ry
     Harris-Foulkes estimate   =     -14.44859827 Ry
     estimated scf accuracy    <       0.00000008 Ry

     iteration #  3     ecut=     8.00 Ry     beta=0.70
     Davidson diagonalization with overlap
     ethr =  1.04E-09,  avg # of iterations =  1.0

     total cpu time spent up to now is      0.63 secs

     End of self-consistent calculation

          k = 0.0000 0.0000 0.0000 (   113 PWs)   bands (ev):

    -4.7626   7.3082   7.3082   7.5700

!    total energy              =     -14.44859831 Ry
     Harris-Foulkes estimate   =     -14.44859831 Ry
     estimated scf accuracy    <          3.0E-09 Ry

     convergence has been achieved in   3 iterations

     Forces acting on atoms (Ry/au):

     atom   1 type  1   force =     0.01644534    0.01644534    0.01644534
     atom   2 type  1   force =    -0.01644534   -0.01644534   -0.01644534

     Total force =     0.040283     Total SCF correction =     0.000012

     Entering Dynamics:    iteration =    19
                           time      =   0.0184 pico-seconds


ATOMIC_POSITIONS (alat)
Si      -0.126650082  -0.126650082  -0.126650082
Si       0.126650082   0.126650082   0.126650082


     kinetic energy (Ekin) =     0.00065699 Ry
     temperature           =    69.15397115 K 
     Ekin + Etot (const)   =   -14.44794132 Ry

     Linear momentum :    0.0000000000    0.0000000000    0.0000000000

     Writing output data file pwscf.save
     NEW-OLD atomic charge density approx. for the potential

     total cpu time spent up to now is      0.65 secs

     per-process dynamical memory:     2.1 Mb

     Self-consistent Calculation

     iteration #  1     ecut=     8.00 Ry     beta=0.70
     Davidson diagonalization with overlap
     ethr =  1.00E-06,  avg # of iterations =  2.0

     Threshold (ethr) on eigenvalues was too large:
     Diagonalizing with lowered threshold

     Davidson diagonalization with overlap
     ethr =  1.15E-08,  avg # of iterations =  2.0

     total cpu time spent up to now is      0.65 secs

     total energy              =     -14.44841892 Ry
     Harris-Foulkes estimate   =     -14.44841894 Ry
     estimated scf accuracy    <       0.00000082 Ry

     iteration #  2     ecut=     8.00 Ry     beta=0.70
     Davidson diagonalization with overlap
     ethr =  1.03E-08,  avg # of iterations =  2.0

     total cpu time spent up to now is      0.66 secs

     total energy              =     -14.44841902 Ry
     Harris-Foulkes estimate   =     -14.44841899 Ry
     estimated scf accuracy    <       0.00000006 Ry

     iteration #  3     ecut=     8.00 Ry     beta=0.70
     Davidson diagonalization with overlap
     ethr =  7.84E-10,  avg # of iterations =  1.0

     total cpu time spent up to now is      0.66 secs

     End of self-consistent calculation

          k = 0.0000 0.0000 0.0000 (   113 PWs)   bands (ev):

    -4.7630   7.2984   7.2984   7.5901

!    total energy              =     -14.44841903 Ry
     Harris-Foulkes estimate   =     -14.44841903 Ry
     estimated scf accuracy    <          2.2E-09 Ry

     convergence has been achieved in   3 iterations

     Forces acting on atoms (Ry/au):

     atom   1 type  1   force =     0.01828065    0.01828065    0.01828065
     atom   2 type  1   force =    -0.01828065   -0.01828065   -0.01828065

     Total force =     0.044778     Total SCF correction =     0.000010

     Entering Dynamics:    iteration =    20
                           time      =   0.0194 pico-seconds


ATOMIC_POSITIONS (alat)
Si      -0.126791117  -0.126791117  -0.126791117
Si       0.126791117   0.126791117   0.126791117


     kinetic energy (Ekin) =     0.00047841 Ry
     temperature           =    50.35665189 K 
     Ekin + Etot (const)   =   -14.44794062 Ry

     Linear momentum :    0.0000000000    0.0000000000    0.0000000000

     Writing output data file pwscf.save
     NEW-OLD atomic charge density approx. for the potential

     total cpu time spent up to now is      0.68 secs

     per-process dynamical memory:     2.1 Mb

     Self-consistent Calculation

     iteration #  1     ecut=     8.00 Ry     beta=0.70
     Davidson diagonalization with overlap
     ethr =  1.00E-06,  avg # of iterations =  2.0

     Threshold (ethr) on eigenvalues was too large:
     Diagonalizing with lowered threshold

     Davidson diagonalization with overlap
     ethr =  8.00E-09,  avg # of iterations =  2.0

     total cpu time spent up to now is      0.69 secs

     total energy              =     -14.44825494 Ry
     Harris-Foulkes estimate   =     -14.44825495 Ry
     estimated scf accuracy    <       0.00000057 Ry

     iteration #  2     ecut=     8.00 Ry     beta=0.70
     Davidson diagonalization with overlap
     ethr =  7.15E-09,  avg # of iterations =  2.0

     total cpu time spent up to now is      0.69 secs

     total energy              =     -14.44825501 Ry
     Harris-Foulkes estimate   =     -14.44825499 Ry
     estimated scf accuracy    <       0.00000004 Ry

     iteration #  3     ecut=     8.00 Ry     beta=0.70
     Davidson diagonalization with overlap
     ethr =  5.44E-10,  avg # of iterations =  1.0

     total cpu time spent up to now is      0.69 secs

     End of self-consistent calculation

          k = 0.0000 0.0000 0.0000 (   113 PWs)   bands (ev):

    -4.7633   7.2902   7.2902   7.6069

!    total energy              =     -14.44825502 Ry
     Harris-Foulkes estimate   =     -14.44825501 Ry
     estimated scf accuracy    <          1.6E-09 Ry

     convergence has been achieved in   3 iterations

     Forces acting on atoms (Ry/au):

     atom   1 type  1   force =     0.01980498    0.01980498    0.01980498
     atom   2 type  1   force =    -0.01980498   -0.01980498   -0.01980498

     Total force =     0.048512     Total SCF correction =     0.000009

     Entering Dynamics:    iteration =    21
                           time      =   0.0203 pico-seconds


ATOMIC_POSITIONS (alat)
Si      -0.126901751  -0.126901751  -0.126901751
Si       0.126901751   0.126901751   0.126901751


     kinetic energy (Ekin) =     0.00031505 Ry
     temperature           =    33.16148074 K 
     Ekin + Etot (const)   =   -14.44793997 Ry

     Linear momentum :    0.0000000000    0.0000000000    0.0000000000

     Writing output data file pwscf.save
     NEW-OLD atomic charge density approx. for the potential

     total cpu time spent up to now is      0.72 secs

     per-process dynamical memory:     2.1 Mb

     Self-consistent Calculation

     iteration #  1     ecut=     8.00 Ry     beta=0.70
     Davidson diagonalization with overlap
     ethr =  1.00E-06,  avg # of iterations =  2.0

     Threshold (ethr) on eigenvalues was too large:
     Diagonalizing with lowered threshold

     Davidson diagonalization with overlap
     ethr =  4.94E-09,  avg # of iterations =  2.0

     total cpu time spent up to now is      0.72 secs

     total energy              =     -14.44811713 Ry
     Harris-Foulkes estimate   =     -14.44811714 Ry
     estimated scf accuracy    <       0.00000035 Ry

     iteration #  2     ecut=     8.00 Ry     beta=0.70
     Davidson diagonalization with overlap
     ethr =  4.43E-09,  avg # of iterations =  2.0

     total cpu time spent up to now is      0.72 secs

     total energy              =     -14.44811718 Ry
     Harris-Foulkes estimate   =     -14.44811716 Ry
     estimated scf accuracy    <       0.00000003 Ry

     iteration #  3     ecut=     8.00 Ry     beta=0.70
     Davidson diagonalization with overlap
     ethr =  3.39E-10,  avg # of iterations =  1.0

     total cpu time spent up to now is      0.72 secs

     End of self-consistent calculation

          k = 0.0000 0.0000 0.0000 (   113 PWs)   bands (ev):

    -4.7635   7.2838   7.2838   7.6200

!    total energy              =     -14.44811718 Ry
     Harris-Foulkes estimate   =     -14.44811718 Ry
     estimated scf accuracy    <          1.0E-09 Ry

     convergence has been achieved in   3 iterations

     Forces acting on atoms (Ry/au):

     atom   1 type  1   force =     0.02099666    0.02099666    0.02099666
     atom   2 type  1   force =    -0.02099666   -0.02099666   -0.02099666

     Total force =     0.051431     Total SCF correction =     0.000007

     Entering Dynamics:    iteration =    22
                           time      =   0.0213 pico-seconds


ATOMIC_POSITIONS (alat)
Si      -0.126980158  -0.126980158  -0.126980158
Si       0.126980158   0.126980158   0.126980158


     kinetic energy (Ekin) =     0.00017776 Ry
     temperature           =    18.71053488 K 
     Ekin + Etot (const)   =   -14.44793942 Ry

     Linear momentum :    0.0000000000    0.0000000000    0.0000000000

     Writing output data file pwscf.save
     NEW-OLD atomic charge density approx. for the potential

     total cpu time spent up to now is      0.75 secs

     per-process dynamical memory:     2.1 Mb

     Self-consistent Calculation

     iteration #  1     ecut=     8.00 Ry     beta=0.70
     Davidson diagonalization with overlap
     ethr =  1.00E-06,  avg # of iterations =  1.0

     Threshold (ethr) on eigenvalues was too large:
     Diagonalizing with lowered threshold

     Davidson diagonalization with overlap
     ethr =  2.82E-09,  avg # of iterations =  2.0

     total cpu time spent up to now is      0.75 secs

     total energy              =     -14.44801460 Ry
     Harris-Foulkes estimate   =     -14.44801460 Ry
     estimated scf accuracy    <       0.00000018 Ry

     iteration #  2     ecut=     8.00 Ry     beta=0.70
     Davidson diagonalization with overlap
     ethr =  2.19E-09,  avg # of iterations =  2.0

     total cpu time spent up to now is      0.75 secs

     total energy              =     -14.44801462 Ry
     Harris-Foulkes estimate   =     -14.44801461 Ry
     estimated scf accuracy    <       0.00000001 Ry

     iteration #  3     ecut=     8.00 Ry     beta=0.70
     Davidson diagonalization with overlap
     ethr =  1.66E-10,  avg # of iterations =  1.0

     total cpu time spent up to now is      0.76 secs

     End of self-consistent calculation

          k = 0.0000 0.0000 0.0000 (   113 PWs)   bands (ev):

    -4.7637   7.2793   7.2793   7.6293

!    total energy              =     -14.44801462 Ry
     Harris-Foulkes estimate   =     -14.44801462 Ry
     estimated scf accuracy    <          4.4E-10 Ry

     convergence has been achieved in   3 iterations

     Forces acting on atoms (Ry/au):

     atom   1 type  1   force =     0.02183874    0.02183874    0.02183874
     atom   2 type  1   force =    -0.02183874   -0.02183874   -0.02183874

     Total force =     0.053494     Total SCF correction =     0.000005

     Entering Dynamics:    iteration =    23
                           time      =   0.0223 pico-seconds


ATOMIC_POSITIONS (alat)
Si      -0.127025043  -0.127025043  -0.127025043
Si       0.127025043   0.127025043   0.127025043


     kinetic energy (Ekin) =     0.00007561 Ry
     temperature           =     7.95863270 K 
     Ekin + Etot (const)   =   -14.44793901 Ry

     Linear momentum :    0.0000000000    0.0000000000    0.0000000000

     Writing output data file pwscf.save
     NEW-OLD atomic charge density approx. for the potential

     total cpu time spent up to now is      0.78 secs

     per-process dynamical memory:     2.1 Mb

     Self-consistent Calculation

     iteration #  1     ecut=     8.00 Ry     beta=0.70
     Davidson diagonalization with overlap
     ethr =  1.00E-06,  avg # of iterations =  1.0

     Threshold (ethr) on eigenvalues was too large:
     Diagonalizing with lowered threshold

     Davidson diagonalization with overlap
     ethr =  9.23E-10,  avg # of iterations =  2.0

     total cpu time spent up to now is      0.78 secs

     total energy              =     -14.44795408 Ry
     Harris-Foulkes estimate   =     -14.44795408 Ry
     estimated scf accuracy    <       0.00000006 Ry

     iteration #  2     ecut=     8.00 Ry     beta=0.70
     Davidson diagonalization with overlap
     ethr =  7.18E-10,  avg # of iterations =  2.0

     total cpu time spent up to now is      0.79 secs

     End of self-consistent calculation

          k = 0.0000 0.0000 0.0000 (   113 PWs)   bands (ev):

    -4.7638   7.2767   7.2767   7.6347

!    total energy              =     -14.44795409 Ry
     Harris-Foulkes estimate   =     -14.44795409 Ry
     estimated scf accuracy    <          4.3E-09 Ry

     convergence has been achieved in   2 iterations

     Forces acting on atoms (Ry/au):

     atom   1 type  1   force =     0.02232274    0.02232274    0.02232274
     atom   2 type  1   force =    -0.02232274   -0.02232274   -0.02232274

     Total force =     0.054679     Total SCF correction =     0.000011

     Entering Dynamics:    iteration =    24
                           time      =   0.0232 pico-seconds


ATOMIC_POSITIONS (alat)
Si      -0.127035664  -0.127035664  -0.127035664
Si       0.127035664   0.127035664   0.127035664


     kinetic energy (Ekin) =     0.00001532 Ry
     temperature           =     1.61307130 K 
     Ekin + Etot (const)   =   -14.44793877 Ry

     Linear momentum :    0.0000000000    0.0000000000    0.0000000000

     Writing output data file pwscf.save
     NEW-OLD atomic charge density approx. for the potential

     total cpu time spent up to now is      0.81 secs

     per-process dynamical memory:     2.1 Mb

     Self-consistent Calculation

     iteration #  1     ecut=     8.00 Ry     beta=0.70
     Davidson diagonalization with overlap
     ethr =  1.00E-06,  avg # of iterations =  1.0

     Threshold (ethr) on eigenvalues was too large:
     Diagonalizing with lowered threshold

     Davidson diagonalization with overlap
     ethr =  5.03E-11,  avg # of iterations =  2.0

     total cpu time spent up to now is      0.81 secs

     End of self-consistent calculation

          k = 0.0000 0.0000 0.0000 (   113 PWs)   bands (ev):

    -4.7638   7.2761   7.2761   7.6358

!    total energy              =     -14.44793957 Ry
     Harris-Foulkes estimate   =     -14.44793957 Ry
     estimated scf accuracy    <          3.1E-09 Ry

     convergence has been achieved in   1 iterations

     Forces acting on atoms (Ry/au):

     atom   1 type  1   force =     0.02243312    0.02243312    0.02243312
     atom   2 type  1   force =    -0.02243312   -0.02243312   -0.02243312

     Total force =     0.054950     Total SCF correction =     0.000017

     Entering Dynamics:    iteration =    25
                           time      =   0.0242 pico-seconds


ATOMIC_POSITIONS (alat)
Si      -0.127011851  -0.127011851  -0.127011851
Si       0.127011851   0.127011851   0.127011851


     kinetic energy (Ekin) =     0.00000087 Ry
     temperature           =     0.09111081 K 
     Ekin + Etot (const)   =   -14.44793871 Ry

     Linear momentum :    0.0000000000    0.0000000000    0.0000000000

     Writing output data file pwscf.save
     NEW-OLD atomic charge density approx. for the potential

     total cpu time spent up to now is      0.84 secs

     per-process dynamical memory:     2.1 Mb

     Self-consistent Calculation

     iteration #  1     ecut=     8.00 Ry     beta=0.70
     Davidson diagonalization with overlap
     ethr =  1.00E-06,  avg # of iterations =  1.0

     Threshold (ethr) on eigenvalues was too large:
     Diagonalizing with lowered threshold

     Davidson diagonalization with overlap
     ethr =  2.90E-10,  avg # of iterations =  2.0

     total cpu time spent up to now is      0.84 secs

     total energy              =     -14.44797201 Ry
     Harris-Foulkes estimate   =     -14.44797202 Ry
     estimated scf accuracy    <       0.00000002 Ry

     iteration #  2     ecut=     8.00 Ry     beta=0.70
     Davidson diagonalization with overlap
     ethr =  2.33E-10,  avg # of iterations =  2.0

     total cpu time spent up to now is      0.84 secs

     End of self-consistent calculation

          k = 0.0000 0.0000 0.0000 (   113 PWs)   bands (ev):

    -4.7638   7.2775   7.2775   7.6331

!    total energy              =     -14.44797202 Ry
     Harris-Foulkes estimate   =     -14.44797202 Ry
     estimated scf accuracy    <          1.2E-09 Ry

     convergence has been achieved in   2 iterations

     Forces acting on atoms (Ry/au):

     atom   1 type  1   force =     0.02217461    0.02217461    0.02217461
     atom   2 type  1   force =    -0.02217461   -0.02217461   -0.02217461

     Total force =     0.054316     Total SCF correction =     0.000005

     Entering Dynamics:    iteration =    26
                           time      =   0.0252 pico-seconds


ATOMIC_POSITIONS (alat)
Si      -0.126954002  -0.126954002  -0.126954002
Si       0.126954002   0.126954002   0.126954002


     kinetic energy (Ekin) =     0.00003317 Ry
     temperature           =     3.49150118 K 
     Ekin + Etot (const)   =   -14.44793885 Ry

     Linear momentum :    0.0000000000    0.0000000000    0.0000000000

     Writing output data file pwscf.save
     NEW-OLD atomic charge density approx. for the potential

     total cpu time spent up to now is      0.86 secs

     per-process dynamical memory:     2.1 Mb

     Self-consistent Calculation

     iteration #  1     ecut=     8.00 Ry     beta=0.70
     Davidson diagonalization with overlap
     ethr =  1.00E-06,  avg # of iterations =  1.0

     Threshold (ethr) on eigenvalues was too large:
     Diagonalizing with lowered threshold

     Davidson diagonalization with overlap
     ethr =  1.53E-09,  avg # of iterations =  2.0

     total cpu time spent up to now is      0.87 secs

     total energy              =     -14.44804927 Ry
     Harris-Foulkes estimate   =     -14.44804927 Ry
     estimated scf accuracy    <       0.00000010 Ry

     iteration #  2     ecut=     8.00 Ry     beta=0.70
     Davidson diagonalization with overlap
     ethr =  1.19E-09,  avg # of iterations =  2.0

     total cpu time spent up to now is      0.87 secs

     End of self-consistent calculation

          k = 0.0000 0.0000 0.0000 (   113 PWs)   bands (ev):

    -4.7636   7.2808   7.2808   7.6261

!    total energy              =     -14.44804928 Ry
     Harris-Foulkes estimate   =     -14.44804928 Ry
     estimated scf accuracy    <          7.2E-09 Ry

     convergence has been achieved in   2 iterations

     Forces acting on atoms (Ry/au):

     atom   1 type  1   force =     0.02154994    0.02154994    0.02154994
     atom   2 type  1   force =    -0.02154994   -0.02154994   -0.02154994

     Total force =     0.052786     Total SCF correction =     0.000014

     Entering Dynamics:    iteration =    27
                           time      =   0.0261 pico-seconds


ATOMIC_POSITIONS (alat)
Si      -0.126863075  -0.126863075  -0.126863075
Si       0.126863075   0.126863075   0.126863075


     kinetic energy (Ekin) =     0.00011010 Ry
     temperature           =    11.58889912 K 
     Ekin + Etot (const)   =   -14.44793918 Ry

     Linear momentum :    0.0000000000    0.0000000000    0.0000000000

     Writing output data file pwscf.save
     NEW-OLD atomic charge density approx. for the potential

     total cpu time spent up to now is      0.89 secs

     per-process dynamical memory:     2.1 Mb

     Self-consistent Calculation

     iteration #  1     ecut=     8.00 Ry     beta=0.70
     Davidson diagonalization with overlap
     ethr =  1.00E-06,  avg # of iterations =  1.0

     Threshold (ethr) on eigenvalues was too large:
     Diagonalizing with lowered threshold

     Davidson diagonalization with overlap
     ethr =  3.78E-09,  avg # of iterations =  2.0

     total cpu time spent up to now is      0.90 secs

     total energy              =     -14.44816625 Ry
     Harris-Foulkes estimate   =     -14.44816625 Ry
     estimated scf accuracy    <       0.00000024 Ry

     iteration #  2     ecut=     8.00 Ry     beta=0.70
     Davidson diagonalization with overlap
     ethr =  2.95E-09,  avg # of iterations =  2.0

     total cpu time spent up to now is      0.90 secs

     total energy              =     -14.44816628 Ry
     Harris-Foulkes estimate   =     -14.44816627 Ry
     estimated scf accuracy    <       0.00000002 Ry

     iteration #  3     ecut=     8.00 Ry     beta=0.70
     Davidson diagonalization with overlap
     ethr =  2.23E-10,  avg # of iterations =  1.0

     total cpu time spent up to now is      0.90 secs

     End of self-consistent calculation

          k = 0.0000 0.0000 0.0000 (   113 PWs)   bands (ev):

    -4.7634   7.2861   7.2861   7.6153

!    total energy              =     -14.44816628 Ry
     Harris-Foulkes estimate   =     -14.44816628 Ry
     estimated scf accuracy    <          5.9E-10 Ry

     convergence has been achieved in   3 iterations

     Forces acting on atoms (Ry/au):

     atom   1 type  1   force =     0.02057468    0.02057468    0.02057468
     atom   2 type  1   force =    -0.02057468   -0.02057468   -0.02057468

     Total force =     0.050397     Total SCF correction =     0.000006

     Entering Dynamics:    iteration =    28
                           time      =   0.0271 pico-seconds


ATOMIC_POSITIONS (alat)
Si      -0.126740566  -0.126740566  -0.126740566
Si       0.126740566   0.126740566   0.126740566


     kinetic energy (Ekin) =     0.00022659 Ry
     temperature           =    23.85097581 K 
     Ekin + Etot (const)   =   -14.44793968 Ry

     Linear momentum :    0.0000000000    0.0000000000    0.0000000000

     Writing output data file pwscf.save
     NEW-OLD atomic charge density approx. for the potential

     total cpu time spent up to now is      0.93 secs

     per-process dynamical memory:     2.1 Mb

     Self-consistent Calculation

     iteration #  1     ecut=     8.00 Ry     beta=0.70
     Davidson diagonalization with overlap
     ethr =  1.00E-06,  avg # of iterations =  2.0

     Threshold (ethr) on eigenvalues was too large:
     Diagonalizing with lowered threshold

     Davidson diagonalization with overlap
     ethr =  6.06E-09,  avg # of iterations =  2.0

     total cpu time spent up to now is      0.93 secs

     total energy              =     -14.44831525 Ry
     Harris-Foulkes estimate   =     -14.44831527 Ry
     estimated scf accuracy    <       0.00000044 Ry

     iteration #  2     ecut=     8.00 Ry     beta=0.70
     Davidson diagonalization with overlap
     ethr =  5.44E-09,  avg # of iterations =  2.0

     total cpu time spent up to now is      0.93 secs

     total energy              =     -14.44831531 Ry
     Harris-Foulkes estimate   =     -14.44831529 Ry
     estimated scf accuracy    <       0.00000003 Ry

     iteration #  3     ecut=     8.00 Ry     beta=0.70
     Davidson diagonalization with overlap
     ethr =  4.16E-10,  avg # of iterations =  1.0

     total cpu time spent up to now is      0.94 secs

     End of self-consistent calculation

          k = 0.0000 0.0000 0.0000 (   113 PWs)   bands (ev):

    -4.7631   7.2932   7.2932   7.6008

!    total energy              =     -14.44831531 Ry
     Harris-Foulkes estimate   =     -14.44831531 Ry
     estimated scf accuracy    <          1.3E-09 Ry

     convergence has been achieved in   3 iterations

     Forces acting on atoms (Ry/au):

     atom   1 type  1   force =     0.01925193    0.01925193    0.01925193
     atom   2 type  1   force =    -0.01925193   -0.01925193   -0.01925193

     Total force =     0.047157     Total SCF correction =     0.000008

     Entering Dynamics:    iteration =    29
                           time      =   0.0281 pico-seconds


ATOMIC_POSITIONS (alat)
Si      -0.126588508  -0.126588508  -0.126588508
Si       0.126588508   0.126588508   0.126588508


     kinetic energy (Ekin) =     0.00037498 Ry
     temperature           =    39.47023760 K 
     Ekin + Etot (const)   =   -14.44794033 Ry

     Linear momentum :    0.0000000000    0.0000000000    0.0000000000

     Writing output data file pwscf.save
     NEW-OLD atomic charge density approx. for the potential

     total cpu time spent up to now is      0.96 secs

     per-process dynamical memory:     2.1 Mb

     Self-consistent Calculation

     iteration #  1     ecut=     8.00 Ry     beta=0.70
     Davidson diagonalization with overlap
     ethr =  1.00E-06,  avg # of iterations =  2.0

     Threshold (ethr) on eigenvalues was too large:
     Diagonalizing with lowered threshold

     Davidson diagonalization with overlap
     ethr =  9.32E-09,  avg # of iterations =  2.0

     total cpu time spent up to now is      0.96 secs

     total energy              =     -14.44848642 Ry
     Harris-Foulkes estimate   =     -14.44848644 Ry
     estimated scf accuracy    <       0.00000067 Ry

     iteration #  2     ecut=     8.00 Ry     beta=0.70
     Davidson diagonalization with overlap
     ethr =  8.33E-09,  avg # of iterations =  2.0

     total cpu time spent up to now is      0.97 secs

     total energy              =     -14.44848651 Ry
     Harris-Foulkes estimate   =     -14.44848648 Ry
     estimated scf accuracy    <       0.00000005 Ry

     iteration #  3     ecut=     8.00 Ry     beta=0.70
     Davidson diagonalization with overlap
     ethr =  6.32E-10,  avg # of iterations =  1.0

     total cpu time spent up to now is      0.97 secs

     End of self-consistent calculation

          k = 0.0000 0.0000 0.0000 (   113 PWs)   bands (ev):

    -4.7628   7.3020   7.3020   7.5827

!    total energy              =     -14.44848651 Ry
     Harris-Foulkes estimate   =     -14.44848651 Ry
     estimated scf accuracy    <          1.8E-09 Ry

     convergence has been achieved in   3 iterations

     Forces acting on atoms (Ry/au):

     atom   1 type  1   force =     0.01760457    0.01760457    0.01760457
     atom   2 type  1   force =    -0.01760457   -0.01760457   -0.01760457

     Total force =     0.043122     Total SCF correction =     0.000009

     Entering Dynamics:    iteration =    30
                           time      =   0.0290 pico-seconds


ATOMIC_POSITIONS (alat)
Si      -0.126409427  -0.126409427  -0.126409427
Si       0.126409427   0.126409427   0.126409427


     kinetic energy (Ekin) =     0.00054543 Ry
     temperature           =    57.41102934 K 
     Ekin + Etot (const)   =   -14.44794108 Ry

     Linear momentum :    0.0000000000    0.0000000000    0.0000000000

     Writing output data file pwscf.save
     NEW-OLD atomic charge density approx. for the potential

     total cpu time spent up to now is      0.99 secs

     per-process dynamical memory:     2.1 Mb

     Self-consistent Calculation

     iteration #  1     ecut=     8.00 Ry     beta=0.70
     Davidson diagonalization with overlap
     ethr =  1.00E-06,  avg # of iterations =  2.0

     Threshold (ethr) on eigenvalues was too large:
     Diagonalizing with lowered threshold

     Davidson diagonalization with overlap
     ethr =  1.29E-08,  avg # of iterations =  2.0

     total cpu time spent up to now is      1.00 secs

     total energy              =     -14.44866835 Ry
     Harris-Foulkes estimate   =     -14.44866837 Ry
     estimated scf accuracy    <       0.00000092 Ry

     iteration #  2     ecut=     8.00 Ry     beta=0.70
     Davidson diagonalization with overlap
     ethr =  1.15E-08,  avg # of iterations =  2.0

     total cpu time spent up to now is      1.00 secs

     total energy              =     -14.44866847 Ry
     Harris-Foulkes estimate   =     -14.44866843 Ry
     estimated scf accuracy    <       0.00000007 Ry

     iteration #  3     ecut=     8.00 Ry     beta=0.70
     Davidson diagonalization with overlap
     ethr =  8.80E-10,  avg # of iterations =  1.0

     total cpu time spent up to now is      1.00 secs

     End of self-consistent calculation

          k = 0.0000 0.0000 0.0000 (   113 PWs)   bands (ev):

    -4.7625   7.3124   7.3124   7.5614

!    total energy              =     -14.44866847 Ry
     Harris-Foulkes estimate   =     -14.44866847 Ry
     estimated scf accuracy    <          2.5E-09 Ry

     convergence has been achieved in   3 iterations

     Forces acting on atoms (Ry/au):

     atom   1 type  1   force =     0.01565612    0.01565612    0.01565612
     atom   2 type  1   force =    -0.01565612   -0.01565612   -0.01565612

     Total force =     0.038350     Total SCF correction =     0.000011

     Entering Dynamics:    iteration =    31
                           time      =   0.0300 pico-seconds


ATOMIC_POSITIONS (alat)
Si      -0.126206315  -0.126206315  -0.126206315
Si       0.126206315   0.126206315   0.126206315


     kinetic energy (Ekin) =     0.00072658 Ry
     temperature           =    76.47829665 K 
     Ekin + Etot (const)   =   -14.44794189 Ry

     Linear momentum :    0.0000000000    0.0000000000    0.0000000000

     Writing output data file pwscf.save
     NEW-OLD atomic charge density approx. for the potential

     total cpu time spent up to now is      1.02 secs

     per-process dynamical memory:     2.1 Mb

     Self-consistent Calculation

     iteration #  1     ecut=     8.00 Ry     beta=0.70
     Davidson diagonalization with overlap
     ethr =  1.00E-06,  avg # of iterations =  2.0

     Threshold (ethr) on eigenvalues was too large:
     Diagonalizing with lowered threshold

     Davidson diagonalization with overlap
     ethr =  1.66E-08,  avg # of iterations =  2.0

     total cpu time spent up to now is      1.03 secs

     total energy              =     -14.44884885 Ry
     Harris-Foulkes estimate   =     -14.44884887 Ry
     estimated scf accuracy    <       0.00000118 Ry

     iteration #  2     ecut=     8.00 Ry     beta=0.70
     Davidson diagonalization with overlap
     ethr =  1.48E-08,  avg # of iterations =  2.0

     total cpu time spent up to now is      1.03 secs

     total energy              =     -14.44884900 Ry
     Harris-Foulkes estimate   =     -14.44884895 Ry
     estimated scf accuracy    <       0.00000009 Ry

     iteration #  3     ecut=     8.00 Ry     beta=0.70
     Davidson diagonalization with overlap
     ethr =  1.14E-09,  avg # of iterations =  1.0

     total cpu time spent up to now is      1.03 secs

     End of self-consistent calculation

          k = 0.0000 0.0000 0.0000 (   113 PWs)   bands (ev):

    -4.7622   7.3243   7.3243   7.5373

!    total energy              =     -14.44884900 Ry
     Harris-Foulkes estimate   =     -14.44884900 Ry
     estimated scf accuracy    <          3.2E-09 Ry

     convergence has been achieved in   3 iterations

     Forces acting on atoms (Ry/au):

     atom   1 type  1   force =     0.01343517    0.01343517    0.01343517
     atom   2 type  1   force =    -0.01343517   -0.01343517   -0.01343517

     Total force =     0.032909     Total SCF correction =     0.000012

     Entering Dynamics:    iteration =    32
                           time      =   0.0310 pico-seconds


ATOMIC_POSITIONS (alat)
Si      -0.125982580  -0.125982580  -0.125982580
Si       0.125982580   0.125982580   0.125982580


     kinetic energy (Ekin) =     0.00090628 Ry
     temperature           =    95.39292221 K 
     Ekin + Etot (const)   =   -14.44794272 Ry

[...]

     total cpu time spent up to now is      1.41 secs

     per-process dynamical memory:     2.1 Mb

     Self-consistent Calculation

     iteration #  1     ecut=     8.00 Ry     beta=0.70
     Davidson diagonalization with overlap
     ethr =  1.00E-06,  avg # of iterations =  2.0

     Threshold (ethr) on eigenvalues was too large:
     Diagonalizing with lowered threshold

     Davidson diagonalization with overlap
     ethr =  1.13E-08,  avg # of iterations =  2.0

     total cpu time spent up to now is      1.41 secs

     total energy              =     -14.44841482 Ry
     Harris-Foulkes estimate   =     -14.44841480 Ry
     estimated scf accuracy    <       0.00000079 Ry

     iteration #  2     ecut=     8.00 Ry     beta=0.70
     Davidson diagonalization with overlap
     ethr =  9.93E-09,  avg # of iterations =  2.0

     total cpu time spent up to now is      1.42 secs

     total energy              =     -14.44841492 Ry
     Harris-Foulkes estimate   =     -14.44841489 Ry
     estimated scf accuracy    <       0.00000007 Ry

     iteration #  3     ecut=     8.00 Ry     beta=0.70
     Davidson diagonalization with overlap
     ethr =  8.25E-10,  avg # of iterations =  1.0

     total cpu time spent up to now is      1.42 secs

     End of self-consistent calculation

          k = 0.0000 0.0000 0.0000 (   113 PWs)   bands (ev):

    -4.7630   7.2041   7.4913   7.4913

!    total energy              =     -14.44841492 Ry
     Harris-Foulkes estimate   =     -14.44841492 Ry
     estimated scf accuracy    <          2.0E-09 Ry

     convergence has been achieved in   3 iterations

     Forces acting on atoms (Ry/au):

     atom   1 type  1   force =    -0.01888050   -0.01888050   -0.01888050
     atom   2 type  1   force =     0.01888050    0.01888050    0.01888050

     Total force =     0.046248     Total SCF correction =     0.000009

     Entering Dynamics:    iteration =    44
                           time      =   0.0426 pico-seconds


ATOMIC_POSITIONS (alat)
Si      -0.123231157  -0.123231157  -0.123231157
Si       0.123231157   0.123231157   0.123231157


     kinetic energy (Ekin) =     0.00047304 Ry
     temperature           =    49.79152617 K 
     Ekin + Etot (const)   =   -14.44794188 Ry

     Linear momentum :    0.0000000000    0.0000000000    0.0000000000

     Writing output data file pwscf.save
     NEW-OLD atomic charge density approx. for the potential

     total cpu time spent up to now is      1.44 secs

     per-process dynamical memory:     2.1 Mb

     Self-consistent Calculation

     iteration #  1     ecut=     8.00 Ry     beta=0.70
     Davidson diagonalization with overlap
     ethr =  1.00E-06,  avg # of iterations =  2.0

     Threshold (ethr) on eigenvalues was too large:
     Diagonalizing with lowered threshold

     Davidson diagonalization with overlap
     ethr =  7.71E-09,  avg # of iterations =  2.0

     total cpu time spent up to now is      1.45 secs

     total energy              =     -14.44824670 Ry
     Harris-Foulkes estimate   =     -14.44824669 Ry
     estimated scf accuracy    <       0.00000054 Ry

     iteration #  2     ecut=     8.00 Ry     beta=0.70
     Davidson diagonalization with overlap
     ethr =  6.80E-09,  avg # of iterations =  2.0

     total cpu time spent up to now is      1.45 secs

     total energy              =     -14.44824676 Ry
     Harris-Foulkes estimate   =     -14.44824674 Ry
     estimated scf accuracy    <       0.00000005 Ry

     iteration #  3     ecut=     8.00 Ry     beta=0.70
     Davidson diagonalization with overlap
     ethr =  5.68E-10,  avg # of iterations =  1.0

     total cpu time spent up to now is      1.45 secs

     End of self-consistent calculation

          k = 0.0000 0.0000 0.0000 (   113 PWs)   bands (ev):

    -4.7633   7.1879   7.4996   7.4996

!    total energy              =     -14.44824677 Ry
     Harris-Foulkes estimate   =     -14.44824676 Ry
     estimated scf accuracy    <          1.4E-09 Ry

     convergence has been achieved in   3 iterations

     Forces acting on atoms (Ry/au):

     atom   1 type  1   force =    -0.02053974   -0.02053974   -0.02053974
     atom   2 type  1   force =     0.02053974    0.02053974    0.02053974

     Total force =     0.050312     Total SCF correction =     0.000008

     Entering Dynamics:    iteration =    45
                           time      =   0.0435 pico-seconds


ATOMIC_POSITIONS (alat)
Si      -0.123122982  -0.123122982  -0.123122982
Si       0.123122982   0.123122982   0.123122982


     kinetic energy (Ekin) =     0.00030562 Ry
     temperature           =    32.16926405 K 
     Ekin + Etot (const)   =   -14.44794114 Ry

     Linear momentum :    0.0000000000    0.0000000000    0.0000000000

     Writing output data file pwscf.save
     NEW-OLD atomic charge density approx. for the potential

     total cpu time spent up to now is      1.47 secs

     per-process dynamical memory:     2.1 Mb

     Self-consistent Calculation

     iteration #  1     ecut=     8.00 Ry     beta=0.70
     Davidson diagonalization with overlap
     ethr =  1.00E-06,  avg # of iterations =  2.0

     Threshold (ethr) on eigenvalues was too large:
     Diagonalizing with lowered threshold

     Davidson diagonalization with overlap
     ethr =  4.62E-09,  avg # of iterations =  2.0

     total cpu time spent up to now is      1.48 secs

     total energy              =     -14.44810677 Ry
     Harris-Foulkes estimate   =     -14.44810677 Ry
     estimated scf accuracy    <       0.00000033 Ry

     iteration #  2     ecut=     8.00 Ry     beta=0.70
     Davidson diagonalization with overlap
     ethr =  4.09E-09,  avg # of iterations =  2.0

     total cpu time spent up to now is      1.48 secs

     total energy              =     -14.44810681 Ry
     Harris-Foulkes estimate   =     -14.44810680 Ry
     estimated scf accuracy    <       0.00000003 Ry

     iteration #  3     ecut=     8.00 Ry     beta=0.70
     Davidson diagonalization with overlap
     ethr =  3.46E-10,  avg # of iterations =  1.0

     total cpu time spent up to now is      1.48 secs

     End of self-consistent calculation

          k = 0.0000 0.0000 0.0000 (   113 PWs)   bands (ev):

    -4.7636   7.1753   7.5061   7.5061

!    total energy              =     -14.44810682 Ry
     Harris-Foulkes estimate   =     -14.44810681 Ry
     estimated scf accuracy    <          8.8E-10 Ry

     convergence has been achieved in   3 iterations

     Forces acting on atoms (Ry/au):

     atom   1 type  1   force =    -0.02182905   -0.02182905   -0.02182905
     atom   2 type  1   force =     0.02182905    0.02182905    0.02182905

     Total force =     0.053470     Total SCF correction =     0.000006

     Entering Dynamics:    iteration =    46
                           time      =   0.0445 pico-seconds


ATOMIC_POSITIONS (alat)
Si      -0.123048314  -0.123048314  -0.123048314
Si       0.123048314   0.123048314   0.123048314


     kinetic energy (Ekin) =     0.00016629 Ry
     temperature           =    17.50352200 K 
     Ekin + Etot (const)   =   -14.44794052 Ry

     Linear momentum :    0.0000000000    0.0000000000    0.0000000000

     Writing output data file pwscf.save
     NEW-OLD atomic charge density approx. for the potential

     total cpu time spent up to now is      1.51 secs

     per-process dynamical memory:     2.1 Mb

     Self-consistent Calculation

     iteration #  1     ecut=     8.00 Ry     beta=0.70
     Davidson diagonalization with overlap
     ethr =  1.00E-06,  avg # of iterations =  1.0

     Threshold (ethr) on eigenvalues was too large:
     Diagonalizing with lowered threshold

     Davidson diagonalization with overlap
     ethr =  2.55E-09,  avg # of iterations =  2.0

     total cpu time spent up to now is      1.51 secs

     total energy              =     -14.44800522 Ry
     Harris-Foulkes estimate   =     -14.44800521 Ry
     estimated scf accuracy    <       0.00000015 Ry

     iteration #  2     ecut=     8.00 Ry     beta=0.70
     Davidson diagonalization with overlap
     ethr =  1.92E-09,  avg # of iterations =  2.0

     total cpu time spent up to now is      1.51 secs

     total energy              =     -14.44800523 Ry
     Harris-Foulkes estimate   =     -14.44800523 Ry
     estimated scf accuracy    <       0.00000001 Ry

     iteration #  3     ecut=     8.00 Ry     beta=0.70
     Davidson diagonalization with overlap
     ethr =  1.59E-10,  avg # of iterations =  1.0

     total cpu time spent up to now is      1.52 secs

     End of self-consistent calculation

          k = 0.0000 0.0000 0.0000 (   113 PWs)   bands (ev):

    -4.7638   7.1666   7.5105   7.5105

!    total energy              =     -14.44800524 Ry
     Harris-Foulkes estimate   =     -14.44800524 Ry
     estimated scf accuracy    <          3.3E-10 Ry

     convergence has been achieved in   3 iterations

     Forces acting on atoms (Ry/au):

     atom   1 type  1   force =    -0.02272110   -0.02272110   -0.02272110
     atom   2 type  1   force =     0.02272110    0.02272110    0.02272110

     Total force =     0.055655     Total SCF correction =     0.000004

     Entering Dynamics:    iteration =    47
                           time      =   0.0455 pico-seconds


ATOMIC_POSITIONS (alat)
Si      -0.123008522  -0.123008522  -0.123008522
Si       0.123008522   0.123008522   0.123008522


     kinetic energy (Ekin) =     0.00006517 Ry
     temperature           =     6.85933362 K 
     Ekin + Etot (const)   =   -14.44794007 Ry

     Linear momentum :    0.0000000000    0.0000000000    0.0000000000

     Writing output data file pwscf.save
     NEW-OLD atomic charge density approx. for the potential

     total cpu time spent up to now is      1.54 secs

     per-process dynamical memory:     2.1 Mb

     Self-consistent Calculation

     iteration #  1     ecut=     8.00 Ry     beta=0.70
     Davidson diagonalization with overlap
     ethr =  1.00E-06,  avg # of iterations =  1.0

     Threshold (ethr) on eigenvalues was too large:
     Diagonalizing with lowered threshold

     Davidson diagonalization with overlap
     ethr =  7.25E-10,  avg # of iterations =  2.0

     total cpu time spent up to now is      1.54 secs

     total energy              =     -14.44794943 Ry
     Harris-Foulkes estimate   =     -14.44794943 Ry
     estimated scf accuracy    <       0.00000004 Ry

     iteration #  2     ecut=     8.00 Ry     beta=0.70
     Davidson diagonalization with overlap
     ethr =  5.45E-10,  avg # of iterations =  2.0

     total cpu time spent up to now is      1.54 secs

     End of self-consistent calculation

          k = 0.0000 0.0000 0.0000 (   113 PWs)   bands (ev):

    -4.7639   7.1620   7.5129   7.5129

!    total energy              =     -14.44794944 Ry
     Harris-Foulkes estimate   =     -14.44794943 Ry
     estimated scf accuracy    <          3.6E-09 Ry

     convergence has been achieved in   2 iterations

     Forces acting on atoms (Ry/au):

     atom   1 type  1   force =    -0.02319982   -0.02319982   -0.02319982
     atom   2 type  1   force =     0.02319982    0.02319982    0.02319982

     Total force =     0.056828     Total SCF correction =     0.000011

     Entering Dynamics:    iteration =    48
                           time      =   0.0464 pico-seconds


ATOMIC_POSITIONS (alat)
Si      -0.123004340  -0.123004340  -0.123004340
Si       0.123004340   0.123004340   0.123004340


     kinetic energy (Ekin) =     0.00000962 Ry
     temperature           =     1.01243990 K 
     Ekin + Etot (const)   =   -14.44793982 Ry

     Linear momentum :    0.0000000000    0.0000000000    0.0000000000

     Writing output data file pwscf.save
     NEW-OLD atomic charge density approx. for the potential

     total cpu time spent up to now is      1.57 secs

     per-process dynamical memory:     2.1 Mb

     Self-consistent Calculation

     iteration #  1     ecut=     8.00 Ry     beta=0.70
     Davidson diagonalization with overlap
     ethr =  1.00E-06,  avg # of iterations =  1.0

     Threshold (ethr) on eigenvalues was too large:
     Diagonalizing with lowered threshold

     Davidson diagonalization with overlap
     ethr =  7.66E-12,  avg # of iterations =  2.0

     total cpu time spent up to now is      1.57 secs

     End of self-consistent calculation

          k = 0.0000 0.0000 0.0000 (   113 PWs)   bands (ev):

    -4.7639   7.1616   7.5131   7.5131

!    total energy              =     -14.44794351 Ry
     Harris-Foulkes estimate   =     -14.44794351 Ry
     estimated scf accuracy    <          4.6E-10 Ry

     convergence has been achieved in   1 iterations

     Forces acting on atoms (Ry/au):

     atom   1 type  1   force =    -0.02324659   -0.02324659   -0.02324659
     atom   2 type  1   force =     0.02324659    0.02324659    0.02324659

     Total force =     0.056942     Total SCF correction =     0.000006

     Entering Dynamics:    iteration =    49
                           time      =   0.0474 pico-seconds


ATOMIC_POSITIONS (alat)
Si      -0.123035840  -0.123035840  -0.123035840
Si       0.123035840   0.123035840   0.123035840


     kinetic energy (Ekin) =     0.00000371 Ry
     temperature           =     0.39073472 K 
     Ekin + Etot (const)   =   -14.44793979 Ry

     Linear momentum :    0.0000000000    0.0000000000    0.0000000000

     Writing output data file pwscf.save
     NEW-OLD atomic charge density approx. for the potential

     total cpu time spent up to now is      1.60 secs

     per-process dynamical memory:     2.1 Mb

     Self-consistent Calculation

     iteration #  1     ecut=     8.00 Ry     beta=0.70
     Davidson diagonalization with overlap
     ethr =  1.00E-06,  avg # of iterations =  1.0

     Threshold (ethr) on eigenvalues was too large:
     Diagonalizing with lowered threshold

     Davidson diagonalization with overlap
     ethr =  4.68E-10,  avg # of iterations =  2.0

     total cpu time spent up to now is      1.60 secs

     total energy              =     -14.44798786 Ry
     Harris-Foulkes estimate   =     -14.44798787 Ry
     estimated scf accuracy    <       0.00000003 Ry

     iteration #  2     ecut=     8.00 Ry     beta=0.70
     Davidson diagonalization with overlap
     ethr =  3.54E-10,  avg # of iterations =  2.0

     total cpu time spent up to now is      1.60 secs

     End of self-consistent calculation

          k = 0.0000 0.0000 0.0000 (   113 PWs)   bands (ev):

    -4.7638   7.1652   7.5112   7.5112

!    total energy              =     -14.44798787 Ry
     Harris-Foulkes estimate   =     -14.44798787 Ry
     estimated scf accuracy    <          2.3E-09 Ry

     convergence has been achieved in   2 iterations

     Forces acting on atoms (Ry/au):

     atom   1 type  1   force =    -0.02286566   -0.02286566   -0.02286566
     atom   2 type  1   force =     0.02286566    0.02286566    0.02286566

     Total force =     0.056009     Total SCF correction =     0.000008

     Entering Dynamics:    iteration =    50
                           time      =   0.0484 pico-seconds


ATOMIC_POSITIONS (alat)
Si      -0.123102438  -0.123102438  -0.123102438
Si       0.123102438   0.123102438   0.123102438


     kinetic energy (Ekin) =     0.00004787 Ry
     temperature           =     5.03840900 K 
     Ekin + Etot (const)   =   -14.44794000 Ry

     Linear momentum :    0.0000000000    0.0000000000    0.0000000000
     NEW-OLD atomic charge density approx. for the potential

     total cpu time spent up to now is      1.60 secs

     per-process dynamical memory:     2.1 Mb

     Self-consistent Calculation

     iteration #  1     ecut=     8.00 Ry     beta=0.70
     Davidson diagonalization with overlap
     ethr =  1.00E-06,  avg # of iterations =  1.0

     Threshold (ethr) on eigenvalues was too large:
     Diagonalizing with lowered threshold

     Davidson diagonalization with overlap
     ethr =  2.03E-09,  avg # of iterations =  2.0

     total cpu time spent up to now is      1.61 secs

     total energy              =     -14.44807926 Ry
     Harris-Foulkes estimate   =     -14.44807925 Ry
     estimated scf accuracy    <       0.00000012 Ry

     iteration #  2     ecut=     8.00 Ry     beta=0.70
     Davidson diagonalization with overlap
     ethr =  1.53E-09,  avg # of iterations =  2.0

     total cpu time spent up to now is      1.61 secs

     total energy              =     -14.44807927 Ry
     Harris-Foulkes estimate   =     -14.44807927 Ry
     estimated scf accuracy    <       0.00000001 Ry

     iteration #  3     ecut=     8.00 Ry     beta=0.70
     Davidson diagonalization with overlap
     ethr =  1.26E-10,  avg # of iterations =  1.0

     total cpu time spent up to now is      1.61 secs

     End of self-consistent calculation

          k = 0.0000 0.0000 0.0000 (   113 PWs)   bands (ev):

    -4.7637   7.1730   7.5073   7.5073

!    total energy              =     -14.44807927 Ry
     Harris-Foulkes estimate   =     -14.44807927 Ry
     estimated scf accuracy    <          2.6E-10 Ry

     convergence has been achieved in   3 iterations

     Forces acting on atoms (Ry/au):

     atom   1 type  1   force =    -0.02207050   -0.02207050   -0.02207050
     atom   2 type  1   force =     0.02207050    0.02207050    0.02207050

     Total force =     0.054061     Total SCF correction =     0.000004

     The maximum number of steps has been reached.

     End of molecular dynamics calculation

     diffusion coefficients :
     atom     1   D =       0.00000000 cm^2/s
     atom     2   D =       0.00000000 cm^2/s

     < D > =       0.00000000 cm^2/s

     Entering Dynamics:    iteration =    51
                           time      =   0.0493 pico-seconds


ATOMIC_POSITIONS (alat)
Si      -0.123202913  -0.123202913  -0.123202913
Si       0.123202913   0.123202913   0.123202913


     kinetic energy (Ekin) =     0.00013884 Ry
     temperature           =    14.61445369 K 
     Ekin + Etot (const)   =   -14.44794043 Ry

     Linear momentum :    0.0000000000    0.0000000000    0.0000000000

     Writing output data file pwscf.save
 
     init_run     :      0.02s CPU      0.02s WALL (       1 calls)
     electrons    :      0.39s CPU      0.42s WALL (      51 calls)
     update_pot   :      0.09s CPU      0.10s WALL (      50 calls)
     forces       :      0.03s CPU      0.03s WALL (      51 calls)

     Called by init_run:
     wfcinit      :      0.00s CPU      0.00s WALL (       1 calls)
     potinit      :      0.00s CPU      0.00s WALL (       1 calls)

     Called by electrons:
     c_bands      :      0.19s CPU      0.19s WALL (     194 calls)
     sum_band     :      0.05s CPU      0.06s WALL (     194 calls)
     v_of_rho     :      0.08s CPU      0.08s WALL (     195 calls)
     mix_rho      :      0.01s CPU      0.01s WALL (     194 calls)

     Called by c_bands:
     init_us_2    :      0.00s CPU      0.01s WALL (     389 calls)
     cegterg      :      0.18s CPU      0.18s WALL (     194 calls)

     Called by *egterg:
     h_psi        :      0.13s CPU      0.13s WALL (     505 calls)
     g_psi        :      0.00s CPU      0.00s WALL (     310 calls)
     cdiaghg      :      0.02s CPU      0.02s WALL (     404 calls)

     Called by h_psi:
     add_vuspsi   :      0.01s CPU      0.00s WALL (     505 calls)

     General routines
     calbec       :      0.01s CPU      0.01s WALL (     556 calls)
     fft          :      0.03s CPU      0.05s WALL (     981 calls)
     fftw         :      0.11s CPU      0.12s WALL (    4376 calls)
     davcio       :      0.00s CPU      0.00s WALL (     144 calls)
 
 
     PWSCF        :     1.47s CPU         1.64s WALL

 
   This run was terminated on:   7:45:25  25Mar2011            

=------------------------------------------------------------------------------=
   JOB DONE.
=------------------------------------------------------------------------------=
