
     Program PWSCF v.4.3b       starts on 25Mar2011 at  7:47:15 

     This program is part of the open-source Quantum ESPRESSO suite
     for quantum simulation of materials; please cite
         "P. Giannozzi et al., J. Phys.:Condens. Matter 21 395502 (2009);
          URL http://www.quantum-espresso.org", 
     in publications or presentations arising from this work. More details at
     http://www.quantum-espresso.org/wiki/index.php/Citing_Quantum-ESPRESSO

     Current dimensions of program PWSCF are:
     Max number of different atomic species (ntypx) = 10
     Max number of k-points (npk) =  40000
     Max angular momentum in pseudopotentials (lmaxx) =  3
     Waiting for input...

     gamma-point specific algorithms are used
 
   Stick Mesh
   ----------
   nst =  1081,  nstw =   274, nsts =  1081
               n.st   n.stw   n.sts    n.g    n.gw   n.gs
   min        2161     547    2161   65955    8291   65955
   max        2161     547    2161   65955    8291   65955
       2161     547    2161   65955    8291   65955
 


     bravais-lattice index     =            2
     lattice parameter (a_0)   =      25.0000  a.u.
     unit-cell volume          =    3906.2500 (a.u.)^3
     number of atoms/cell      =            3
     number of atomic types    =            2
     number of electrons       =         8.00
     number of Kohn-Sham states=            8
     kinetic-energy cutoff     =      25.0000  Ry
     charge density cutoff     =     100.0000  Ry
     convergence threshold     =      1.0E-06
     mixing beta               =       0.7000
     number of iterations used =            8  plain     mixing
     Exchange-correlation      =  SLA  PW   PBX  PBC (1434)
     EXX-fraction              =        0.00
     nstep                     =           50


     celldm(1)=  25.000000  celldm(2)=   0.000000  celldm(3)=   0.000000
     celldm(4)=   0.000000  celldm(5)=   0.000000  celldm(6)=   0.000000

     crystal axes: (cart. coord. in units of a_0)
               a(1) = (  -0.500000   0.000000   0.500000 )  
               a(2) = (   0.000000   0.500000   0.500000 )  
               a(3) = (  -0.500000   0.500000   0.000000 )  

     reciprocal axes: (cart. coord. in units 2 pi/a_0)
               b(1) = ( -1.000000 -1.000000  1.000000 )  
               b(2) = (  1.000000  1.000000  1.000000 )  
               b(3) = ( -1.000000  1.000000 -1.000000 )  


     PseudoPot. # 1 for  O read from file O.pbe-paw_kj.UPF
     MD5 check sum: 90f4868982d1b5f8aada8373f3a0510a
     Pseudo is Projector augmented-wave + core cor, Zval =  6.0
     Generated using "atomic" code by A. Dal Corso (espresso distribution)
     Shape of augmentation charge: BESSEL
     Using radial grid of 1095 points,  4 beta functions with: 
                l(1) =   0
                l(2) =   0
                l(3) =   1
                l(4) =   1
     Q(r) pseudized with 0 coefficients 


     PseudoPot. # 2 for  H read from file H.pbe-paw_kj.UPF
     MD5 check sum: b6732a8c2b51919c45a22ac3ed50cb01
     Pseudo is Projector augmented-wave, Zval =  1.0
     Generated using "atomic" code by A. Dal Corso (espresso distribution)
     Shape of augmentation charge: PSQ
     Using radial grid of  929 points,  2 beta functions with: 
                l(1) =   0
                l(2) =   0
     Q(r) pseudized with 0 coefficients 


     atomic species   valence    mass     pseudopotential
        O              6.00    16.00000      O( 1.00)
        H              1.00     1.00000      H( 1.00)

     Starting magnetic structure 
     atomic species   magnetization
        O            0.100
        H           -0.100

      4 Sym.Ops. (no inversion)


   Cartesian axes

     site n.     atom                  positions (a_0 units)
         1           H   tau(  1) = (   0.0446536  -0.0583088   0.0000000  )
         2           H   tau(  2) = (   0.0446536   0.0583088   0.0000000  )
         3           O   tau(  3) = (  -0.0005072   0.0000000   0.0000000  )

     number of k points=     2  gaussian smearing, width (Ry)=  0.0050
                       cart. coord. in units 2pi/a_0
        k(    1) = (   0.0000000   0.0000000   0.0000000), wk =   1.0000000
        k(    2) = (   0.0000000   0.0000000   0.0000000), wk =   1.0000000

     G cutoff = 1583.1435  (  32978 G-vectors)     FFT grid: ( 60, 60, 60)

     Largest allocated arrays     est. size (Mb)     dimensions
        Kohn-Sham Wavefunctions         0.51 Mb     (   4146,   8)
        NL pseudopotentials             0.76 Mb     (   4146,  12)
        Each V/rho on FFT grid          6.59 Mb     ( 216000,   2)
        Each G-vector array             0.25 Mb     (  32978)
        G-vector shells                 0.00 Mb     (    530)
     Largest temporary arrays     est. size (Mb)     dimensions
        Auxiliary wavefunctions         1.01 Mb     (   4146,  32)
        Each subspace H/S matrix        0.01 Mb     (     32,  32)
        Each <psi_i|beta_j> matrix      0.00 Mb     (     12,   8)
        Arrays for rho mixing          26.37 Mb     ( 216000,   8)

     Initial potential from superposition of free atoms
     Check: negative starting charge=(component1):   -0.007358
     Check: negative starting charge=(component2):   -0.006806

     starting charge    7.99999, renormalised to    8.00000

     negative rho (up, down):  0.736E-02 0.681E-02
     Starting wfc are    6 atomic +    2 random wfc

     total cpu time spent up to now is      1.91 secs

     per-process dynamical memory:    47.0 Mb

     Self-consistent Calculation

     iteration #  1     ecut=    25.00 Ry     beta=0.70
     Davidson diagonalization with overlap
     ethr =  1.00E-02,  avg # of iterations =  5.0

     negative rho (up, down):  0.120E-01 0.116E-01

     total cpu time spent up to now is      3.20 secs

     total energy              =     -43.79504584 Ry
     Harris-Foulkes estimate   =     -44.11285405 Ry
     estimated scf accuracy    <       0.44844063 Ry

     total magnetization       =     0.00 Bohr mag/cell
     absolute magnetization    =     0.12 Bohr mag/cell

     iteration #  2     ecut=    25.00 Ry     beta=0.70
     Davidson diagonalization with overlap
     ethr =  5.61E-03,  avg # of iterations =  2.0

     negative rho (up, down):  0.114E-01 0.112E-01

     total cpu time spent up to now is      4.34 secs

     total energy              =     -43.87261575 Ry
     Harris-Foulkes estimate   =     -44.10466917 Ry
     estimated scf accuracy    <       0.48828674 Ry

     total magnetization       =     0.00 Bohr mag/cell
     absolute magnetization    =     0.08 Bohr mag/cell

     iteration #  3     ecut=    25.00 Ry     beta=0.70
     Davidson diagonalization with overlap
     ethr =  5.61E-03,  avg # of iterations =  2.0

     negative rho (up, down):  0.135E-01 0.134E-01

     total cpu time spent up to now is      5.46 secs

     total energy              =     -43.97643727 Ry
     Harris-Foulkes estimate   =     -43.97935003 Ry
     estimated scf accuracy    <       0.00742767 Ry

     total magnetization       =     0.00 Bohr mag/cell
     absolute magnetization    =     0.06 Bohr mag/cell

     iteration #  4     ecut=    25.00 Ry     beta=0.70
     Davidson diagonalization with overlap
     ethr =  9.28E-05,  avg # of iterations =  7.5

     negative rho (up, down):  0.131E-01 0.131E-01

     total cpu time spent up to now is      6.81 secs

     total energy              =     -43.97825693 Ry
     Harris-Foulkes estimate   =     -43.97850592 Ry
     estimated scf accuracy    <       0.00067675 Ry

     total magnetization       =     0.00 Bohr mag/cell
     absolute magnetization    =     0.01 Bohr mag/cell

     iteration #  5     ecut=    25.00 Ry     beta=0.70
     Davidson diagonalization with overlap
     ethr =  8.46E-06,  avg # of iterations =  6.5

     negative rho (up, down):  0.130E-01 0.130E-01

     total cpu time spent up to now is      8.07 secs

     total energy              =     -43.97828044 Ry
     Harris-Foulkes estimate   =     -43.97829715 Ry
     estimated scf accuracy    <       0.00007974 Ry

     total magnetization       =     0.00 Bohr mag/cell
     absolute magnetization    =     0.01 Bohr mag/cell

     iteration #  6     ecut=    25.00 Ry     beta=0.70
     Davidson diagonalization with overlap
     ethr =  9.97E-07,  avg # of iterations =  6.0

     negative rho (up, down):  0.130E-01 0.130E-01

     total cpu time spent up to now is      9.34 secs

     total energy              =     -43.97829534 Ry
     Harris-Foulkes estimate   =     -43.97829292 Ry
     estimated scf accuracy    <       0.00000164 Ry

     total magnetization       =     0.00 Bohr mag/cell
     absolute magnetization    =     0.00 Bohr mag/cell

     iteration #  7     ecut=    25.00 Ry     beta=0.70
     Davidson diagonalization with overlap
     ethr =  2.05E-08,  avg # of iterations =  2.0

     negative rho (up, down):  0.130E-01 0.130E-01

     total cpu time spent up to now is     10.37 secs

     End of self-consistent calculation

 ------ SPIN UP ------------


          k = 0.0000 0.0000 0.0000 (  4146 PWs)   bands (ev):

   -25.0563 -12.8493  -9.0709  -7.0271  -1.3048   0.6345   0.9065   1.4938

 ------ SPIN DOWN ----------


          k = 0.0000 0.0000 0.0000 (  4146 PWs)   bands (ev):

   -25.0555 -12.8493  -9.0706  -7.0270  -1.3048   0.6343   0.9064   1.4945

     the Fermi energy is    -5.0752 ev

!    total energy              =     -43.97829666 Ry
     Harris-Foulkes estimate   =     -43.97829707 Ry
     estimated scf accuracy    <       0.00000087 Ry

     total all-electron energy =      -152.739043 Ry

     The total energy is the sum of the following terms:

     one-electron contribution =     -58.59528526 Ry
     hartree contribution      =      30.92277231 Ry
     xc contribution           =      -8.39922884 Ry
     ewald contribution        =       2.01807976 Ry
     one-center paw contrib.   =      -9.92463462 Ry
     smearing contrib. (-TS)   =       0.00000000 Ry

     total magnetization       =     0.00 Bohr mag/cell
     absolute magnetization    =     0.00 Bohr mag/cell

     convergence has been achieved in   7 iterations

     Forces acting on atoms (Ry/au):


     negative rho (up, down):  0.130E-01 0.130E-01
     atom   1 type  2   force =     0.00003759    0.00016087    0.00000000
     atom   2 type  2   force =     0.00003759   -0.00016087    0.00000000
     atom   3 type  1   force =    -0.00007518    0.00000000    0.00000000

     Total force =     0.000245     Total SCF correction =     0.001193
     SCF correction compared to forces is too large, reduce conv_thr

     BFGS Geometry Optimization

     bfgs converged in   1 scf cycles and   0 bfgs steps
     (criteria: energy < 0.10E-03, force < 0.10E-02)

     End of BFGS Geometry Optimization

     Final energy   =     -43.9782966594 Ry
Begin final coordinates

ATOMIC_POSITIONS (bohr)
H        1.116339788  -1.457719099   0.000000000
H        1.116339788   1.457719099   0.000000000
O       -0.012679577   0.000000000   0.000000000
End final coordinates



     Writing output data file pwscf.save
 
     init_run     :      1.58s CPU      1.62s WALL (       1 calls)
     electrons    :      8.29s CPU      8.46s WALL (       1 calls)
     forces       :      0.56s CPU      0.57s WALL (       1 calls)

     Called by init_run:
     wfcinit      :      0.10s CPU      0.10s WALL (       1 calls)
     potinit      :      0.61s CPU      0.64s WALL (       1 calls)

     Called by electrons:
     c_bands      :      2.45s CPU      2.47s WALL (       7 calls)
     sum_band     :      1.08s CPU      1.08s WALL (       7 calls)
     v_of_rho     :      3.27s CPU      3.37s WALL (       8 calls)
     newd         :      0.39s CPU      0.39s WALL (       8 calls)
     mix_rho      :      0.31s CPU      0.32s WALL (       7 calls)

     Called by c_bands:
     init_us_2    :      0.06s CPU      0.06s WALL (      32 calls)
     regterg      :      2.40s CPU      2.41s WALL (      14 calls)

     Called by *egterg:
     h_psi        :      2.23s CPU      2.24s WALL (      78 calls)
     s_psi        :      0.02s CPU      0.01s WALL (      78 calls)
     g_psi        :      0.04s CPU      0.04s WALL (      62 calls)
     rdiaghg      :      0.02s CPU      0.02s WALL (      76 calls)

     Called by h_psi:
     add_vuspsi   :      0.01s CPU      0.01s WALL (      78 calls)

     General routines
     calbec       :      0.05s CPU      0.05s WALL (     100 calls)
     fft          :      1.67s CPU      1.68s WALL (     215 calls)
     fftw         :      2.07s CPU      2.07s WALL (     452 calls)
     davcio       :      0.00s CPU      0.01s WALL (      46 calls)
 
 
     PAW routines
     PAW_pot      :      1.09s CPU      1.10s WALL (       8 calls)
     PAW_ddot     :      0.08s CPU      0.08s WALL (      57 calls)
     PAW_symme    :      0.00s CPU      0.00s WALL (      15 calls)
 
     PWSCF        :    10.79s CPU        11.06s WALL

 
   This run was terminated on:   7:47:26  25Mar2011            

=------------------------------------------------------------------------------=
   JOB DONE.
=------------------------------------------------------------------------------=
