
     Program PWSCF v.4.2        starts on 30Aug2010 at  7:45:45 

     This program is part of the open-source Quantum ESPRESSO suite
     for quantum simulation of materials; please cite
         "P. Giannozzi et al., J. Phys.:Condens. Matter 21 395502 (2009);
          URL http://www.quantum-espresso.org", 
     in publications or presentations arising from this work. More details at
     http://www.quantum-espresso.org/wiki/index.php/Citing_Quantum-ESPRESSO

     Current dimensions of program PWSCF are:
     Max number of different atomic species (ntypx) = 10
     Max number of k-points (npk) =  40000
     Max angular momentum in pseudopotentials (lmaxx) =  3
     Waiting for input...


     bravais-lattice index     =            2
     lattice parameter (a_0)   =      10.2000  a.u.
     unit-cell volume          =     265.3020 (a.u.)^3
     number of atoms/cell      =            2
     number of atomic types    =            1
     number of electrons       =         8.00
     number of Kohn-Sham states=            4
     kinetic-energy cutoff     =      12.0000  Ry
     charge density cutoff     =      48.0000  Ry
     convergence threshold     =      1.0E-06
     mixing beta               =       0.7000
     number of iterations used =            8  local-TF  mixing
     Exchange-correlation      =  SLA  PZ   NOGX NOGC (1100)
     EXX-fraction              =        0.00

     celldm(1)=  10.200000  celldm(2)=   0.000000  celldm(3)=   0.000000
     celldm(4)=   0.000000  celldm(5)=   0.000000  celldm(6)=   0.000000

     crystal axes: (cart. coord. in units of a_0)
               a(1) = (  -0.500000   0.000000   0.500000 )  
               a(2) = (   0.000000   0.500000   0.500000 )  
               a(3) = (  -0.500000   0.500000   0.000000 )  

     reciprocal axes: (cart. coord. in units 2 pi/a_0)
               b(1) = ( -1.000000 -1.000000  1.000000 )  
               b(2) = (  1.000000  1.000000  1.000000 )  
               b(3) = ( -1.000000  1.000000 -1.000000 )  


     PseudoPot. # 1 for Si read from file Si.pz-vbc.UPF
     MD5 check sum: bcd8ae23180a2f07cc8655fe7dcd9644
     Pseudo is Norm-conserving, Zval =  4.0
     Generated by new atomic code, or converted to UPF format
     Using radial grid of  431 points,  2 beta functions with: 
                l(1) =   0
                l(2) =   1

     atomic species   valence    mass     pseudopotential
        Si             4.00    28.08600     Si( 1.00)

     48 Sym.Ops. (with inversion)


   Cartesian axes

     site n.     atom                  positions (a_0 units)
         1           Si  tau(  1) = (   0.0000000   0.0000000   0.0000000  )
         2           Si  tau(  2) = (   0.2500000   0.2500000   0.2500000  )

     number of k points=     2
                       cart. coord. in units 2pi/a_0
        k(    1) = (   0.2500000   0.2500000   0.2500000), wk =   0.5000000
        k(    2) = (   0.2500000   0.2500000   0.7500000), wk =   1.5000000

     G cutoff =  126.4975  (   1459 G-vectors)     FFT grid: ( 16, 16, 16)

     Largest allocated arrays     est. size (Mb)     dimensions
        Kohn-Sham Wavefunctions         0.01 Mb     (    186,   4)
        NL pseudopotentials             0.02 Mb     (    186,   8)
        Each V/rho on FFT grid          0.06 Mb     (   4096)
        Each G-vector array             0.01 Mb     (   1459)
        G-vector shells                 0.00 Mb     (     43)
     Largest temporary arrays     est. size (Mb)     dimensions
        Auxiliary wavefunctions         0.05 Mb     (    186,  16)
        Each subspace H/S matrix        0.00 Mb     (     16,  16)
        Each <psi_i|beta_j> matrix      0.00 Mb     (      8,   4)
        Arrays for rho mixing           0.50 Mb     (   4096,   8)

     Initial potential from superposition of free atoms

     starting charge    7.99901, renormalised to    8.00000
     Starting wfc are    8 atomic wfcs

     total cpu time spent up to now is      0.06 secs

     per-process dynamical memory:     2.6 Mb

     Self-consistent Calculation

     iteration #  1     ecut=    12.00 Ry     beta=0.70
     Davidson diagonalization with overlap
     ethr =  1.00E-02,  avg # of iterations =  2.0

     Threshold (ethr) on eigenvalues was too large:
     Diagonalizing with lowered threshold

     Davidson diagonalization with overlap
     ethr =  7.93E-04,  avg # of iterations =  1.0

     total cpu time spent up to now is      0.07 secs

     total energy              =     -15.79817978 Ry
     Harris-Foulkes estimate   =     -15.81239602 Ry
     estimated scf accuracy    <       0.06375741 Ry

     iteration #  2     ecut=    12.00 Ry     beta=0.70
     Davidson diagonalization with overlap
     ethr =  7.97E-04,  avg # of iterations =  1.0

     total cpu time spent up to now is      0.08 secs

     total energy              =     -15.79291034 Ry
     Harris-Foulkes estimate   =     -15.79905526 Ry
     estimated scf accuracy    <       0.01603587 Ry

     iteration #  3     ecut=    12.00 Ry     beta=0.70
     Davidson diagonalization with overlap
     ethr =  2.00E-04,  avg # of iterations =  2.0

     total cpu time spent up to now is      0.09 secs

     total energy              =     -15.79439619 Ry
     Harris-Foulkes estimate   =     -15.79436236 Ry
     estimated scf accuracy    <       0.00016490 Ry

     iteration #  4     ecut=    12.00 Ry     beta=0.70
     Davidson diagonalization with overlap
     ethr =  2.06E-06,  avg # of iterations =  3.0

     total cpu time spent up to now is      0.09 secs

     total energy              =     -15.79449368 Ry
     Harris-Foulkes estimate   =     -15.79449900 Ry
     estimated scf accuracy    <       0.00002124 Ry

     iteration #  5     ecut=    12.00 Ry     beta=0.70
     Davidson diagonalization with overlap
     ethr =  2.65E-07,  avg # of iterations =  1.5

     total cpu time spent up to now is      0.10 secs

     End of self-consistent calculation

          k = 0.2500 0.2500 0.2500 (   180 PWs)   bands (ev):

    -4.8713   2.3779   5.5356   5.5356

          k = 0.2500 0.2500 0.7500 (   186 PWs)   bands (ev):

    -2.9178  -0.0666   2.6785   4.0342

!    total energy              =     -15.79449529 Ry
     Harris-Foulkes estimate   =     -15.79449536 Ry
     estimated scf accuracy    <       0.00000040 Ry

     The total energy is the sum of the following terms:

     one-electron contribution =       4.83344341 Ry
     hartree contribution      =       1.08484354 Ry
     xc contribution           =      -4.81302367 Ry
     ewald contribution        =     -16.89975858 Ry

     convergence has been achieved in   5 iterations

     Writing output data file pwscf.save
 
     init_run     :      0.02s CPU      0.03s WALL (       1 calls)
     electrons    :      0.04s CPU      0.04s WALL (       1 calls)

     Called by init_run:
     wfcinit      :      0.00s CPU      0.00s WALL (       1 calls)
     potinit      :      0.00s CPU      0.00s WALL (       1 calls)

     Called by electrons:
     c_bands      :      0.02s CPU      0.02s WALL (       6 calls)
     sum_band     :      0.01s CPU      0.01s WALL (       6 calls)
     v_of_rho     :      0.00s CPU      0.00s WALL (       6 calls)
     mix_rho      :      0.01s CPU      0.01s WALL (       6 calls)

     Called by c_bands:
     init_us_2    :      0.00s CPU      0.00s WALL (      26 calls)
     cegterg      :      0.02s CPU      0.02s WALL (      12 calls)

     Called by *egterg:
     h_psi        :      0.01s CPU      0.01s WALL (      35 calls)
     g_psi        :      0.00s CPU      0.00s WALL (      21 calls)
     cdiaghg      :      0.00s CPU      0.00s WALL (      31 calls)

     Called by h_psi:
     add_vuspsi   :      0.00s CPU      0.00s WALL (      35 calls)

     General routines
     calbec       :      0.00s CPU      0.00s WALL (      35 calls)
     fft          :      0.00s CPU      0.00s WALL (      25 calls)
     ffts         :      0.00s CPU      0.00s WALL (      66 calls)
     fftw         :      0.01s CPU      0.01s WALL (     314 calls)
     davcio       :      0.00s CPU      0.00s WALL (      38 calls)
 
 
     PWSCF        :     0.15s CPU         0.16s WALL

 
   This run was terminated on:   7:45:45  30Aug2010            

=------------------------------------------------------------------------------=
   JOB DONE.
=------------------------------------------------------------------------------=
