
     Program PWSCF v.4.2        starts on 30Aug2010 at  7:48: 4 

     This program is part of the open-source Quantum ESPRESSO suite
     for quantum simulation of materials; please cite
         "P. Giannozzi et al., J. Phys.:Condens. Matter 21 395502 (2009);
          URL http://www.quantum-espresso.org", 
     in publications or presentations arising from this work. More details at
     http://www.quantum-espresso.org/wiki/index.php/Citing_Quantum-ESPRESSO

     Current dimensions of program PWSCF are:
     Max number of different atomic species (ntypx) = 10
     Max number of k-points (npk) =  40000
     Max angular momentum in pseudopotentials (lmaxx) =  3
     Waiting for input...


     bravais-lattice index     =           14
     lattice parameter (a_0)   =       7.0103  a.u.
     unit-cell volume          =     245.3705 (a.u.)^3
     number of atoms/cell      =            2
     number of atomic types    =            1
     number of electrons       =        10.00
     number of Kohn-Sham states=            9
     kinetic-energy cutoff     =      25.0000  Ry
     charge density cutoff     =     100.0000  Ry
     convergence threshold     =      1.0E-07
     mixing beta               =       0.7000
     number of iterations used =            8  plain     mixing
     Exchange-correlation      =  SLA  PZ   NOGX NOGC (1100)
     EXX-fraction              =        0.00
     nstep                     =           50


     celldm(1)=   7.010336  celldm(2)=   1.000000  celldm(3)=   1.000000
     celldm(4)=   0.495175  celldm(5)=   0.495175  celldm(6)=   0.495175

     crystal axes: (cart. coord. in units of a_0)
               a(1) = (   1.000000   0.000000   0.000000 )  
               a(2) = (   0.495175   0.868793   0.000000 )  
               a(3) = (   0.495175   0.287729   0.819765 )  

     reciprocal axes: (cart. coord. in units 2 pi/a_0)
               b(1) = (  1.000000 -0.569957 -0.403996 )  
               b(2) = (  0.000000  1.151022 -0.403996 )  
               b(3) = (  0.000000  0.000000  1.219862 )  


     PseudoPot. # 1 for As read from file As.pz-bhs.UPF
     MD5 check sum: f6d0d30e80b183e1454fdc31c0f181b8
     Pseudo is Norm-conserving, Zval =  5.0
     Generated by new atomic code, or converted to UPF format
     Using radial grid of  525 points,  2 beta functions with: 
                l(1) =   0
                l(2) =   1

     atomic species   valence    mass     pseudopotential
        As             5.00    74.90000     As( 1.00)

      2 Sym.Ops. (with inversion)


   Cartesian axes

     site n.     atom                  positions (a_0 units)
         1           As  tau(  1) = (   0.5772212   0.3354030   0.2377400  )
         2           As  tau(  2) = (  -0.5772212  -0.3354030  -0.2377400  )

     number of k points=    32  Methfessel-Paxton smearing, width (Ry)=  0.0050
                       cart. coord. in units 2pi/a_0
        k(    1) = (   0.1250000   0.0726331   0.0514837), wk =   0.0625000
        k(    2) = (   0.1250000   0.0726331   0.3564493), wk =   0.0625000
        k(    3) = (   0.1250000   0.0726331  -0.5584473), wk =   0.0625000
        k(    4) = (   0.1250000   0.0726331  -0.2534818), wk =   0.0625000
        k(    5) = (   0.1250000   0.3603885  -0.0495153), wk =   0.0625000
        k(    6) = (   0.1250000   0.3603885   0.2554502), wk =   0.0625000
        k(    7) = (   0.1250000   0.3603885  -0.6594464), wk =   0.0625000
        k(    8) = (   0.1250000   0.3603885  -0.3544809), wk =   0.0625000
        k(    9) = (   0.1250000  -0.5028777   0.2534818), wk =   0.0625000
        k(   10) = (   0.1250000  -0.5028777   0.5584473), wk =   0.0625000
        k(   11) = (   0.1250000  -0.5028777  -0.3564493), wk =   0.0625000
        k(   12) = (   0.1250000  -0.5028777  -0.0514837), wk =   0.0625000
        k(   13) = (   0.1250000  -0.2151223   0.1524828), wk =   0.0625000
        k(   14) = (   0.1250000  -0.2151223   0.4574483), wk =   0.0625000
        k(   15) = (   0.1250000  -0.2151223  -0.4574483), wk =   0.0625000
        k(   16) = (   0.1250000  -0.2151223  -0.1524828), wk =   0.0625000
        k(   17) = (   0.3750000  -0.0698561  -0.0495153), wk =   0.0625000
        k(   18) = (   0.3750000  -0.0698561   0.2554502), wk =   0.0625000
        k(   19) = (   0.3750000  -0.0698561  -0.6594464), wk =   0.0625000
        k(   20) = (   0.3750000  -0.0698561  -0.3544809), wk =   0.0625000
        k(   21) = (   0.3750000   0.2178993  -0.1505144), wk =   0.0625000
        k(   22) = (   0.3750000   0.2178993   0.1544512), wk =   0.0625000
        k(   23) = (   0.3750000   0.2178993  -0.7604454), wk =   0.0625000
        k(   24) = (   0.3750000   0.2178993  -0.4554799), wk =   0.0625000
        k(   25) = (   0.3750000  -0.6453669   0.1524828), wk =   0.0625000
        k(   26) = (   0.3750000  -0.6453669   0.4574483), wk =   0.0625000
        k(   27) = (   0.3750000  -0.6453669  -0.4574483), wk =   0.0625000
        k(   28) = (   0.3750000  -0.6453669  -0.1524828), wk =   0.0625000
        k(   29) = (   0.3750000  -0.3576115   0.0514837), wk =   0.0625000
        k(   30) = (   0.3750000  -0.3576115   0.3564493), wk =   0.0625000
        k(   31) = (   0.3750000  -0.3576115  -0.5584473), wk =   0.0625000
        k(   32) = (   0.3750000  -0.3576115  -0.2534818), wk =   0.0625000

     G cutoff =  124.4853  (   4159 G-vectors)     FFT grid: ( 24, 24, 24)

     Largest allocated arrays     est. size (Mb)     dimensions
        Kohn-Sham Wavefunctions         0.07 Mb     (    531,   9)
        NL pseudopotentials             0.06 Mb     (    531,   8)
        Each V/rho on FFT grid          0.21 Mb     (  13824)
        Each G-vector array             0.03 Mb     (   4159)
        G-vector shells                 0.03 Mb     (   4159)
     Largest temporary arrays     est. size (Mb)     dimensions
        Auxiliary wavefunctions         0.29 Mb     (    531,  36)
        Each subspace H/S matrix        0.02 Mb     (     36,  36)
        Each <psi_i|beta_j> matrix      0.00 Mb     (      8,   9)
        Arrays for rho mixing           1.69 Mb     (  13824,   8)

     Initial potential from superposition of free atoms

     starting charge    9.99960, renormalised to   10.00000
     Starting wfc are    8 atomic +    1 random wfc

     total cpu time spent up to now is      0.32 secs

     per-process dynamical memory:     5.2 Mb

     Self-consistent Calculation

     iteration #  1     ecut=    25.00 Ry     beta=0.70
     Davidson diagonalization with overlap
     ethr =  1.00E-02,  avg # of iterations =  4.2

     Threshold (ethr) on eigenvalues was too large:
     Diagonalizing with lowered threshold

     Davidson diagonalization with overlap
     ethr =  1.54E-04,  avg # of iterations =  1.5

     total cpu time spent up to now is      1.57 secs

     total energy              =     -25.43995377 Ry
     Harris-Foulkes estimate   =     -25.44370976 Ry
     estimated scf accuracy    <       0.01555766 Ry

     iteration #  2     ecut=    25.00 Ry     beta=0.70
     Davidson diagonalization with overlap
     ethr =  1.56E-04,  avg # of iterations =  1.0

     total cpu time spent up to now is      2.04 secs

     total energy              =     -25.44008188 Ry
     Harris-Foulkes estimate   =     -25.44026393 Ry
     estimated scf accuracy    <       0.00088611 Ry

     iteration #  3     ecut=    25.00 Ry     beta=0.70
     Davidson diagonalization with overlap
     ethr =  8.86E-06,  avg # of iterations =  1.8

     total cpu time spent up to now is      2.53 secs

     total energy              =     -25.44011454 Ry
     Harris-Foulkes estimate   =     -25.44011592 Ry
     estimated scf accuracy    <       0.00000522 Ry

     iteration #  4     ecut=    25.00 Ry     beta=0.70
     Davidson diagonalization with overlap
     ethr =  5.22E-08,  avg # of iterations =  3.1

     total cpu time spent up to now is      3.20 secs

     total energy              =     -25.44012210 Ry
     Harris-Foulkes estimate   =     -25.44012241 Ry
     estimated scf accuracy    <       0.00000067 Ry

     iteration #  5     ecut=    25.00 Ry     beta=0.70
     Davidson diagonalization with overlap
     ethr =  6.69E-09,  avg # of iterations =  1.4

     total cpu time spent up to now is      3.67 secs

     End of self-consistent calculation

          k = 0.1250 0.0726 0.0515 (   531 PWs)   bands (ev):

    -6.9960   4.5196   5.9667   5.9667   8.4360  11.0403  11.7601  11.7602
    16.5645

          k = 0.1250 0.0726 0.3564 (   522 PWs)   bands (ev):

    -5.9250   0.3917   5.3512   5.6501   9.2996  10.5303  11.7005  13.5632
    15.7170

          k = 0.1250 0.0726-0.5584 (   520 PWs)   bands (ev):

    -4.3490  -2.4704   4.7883   6.1554   7.8796  10.8149  12.5849  13.8261
    17.7263

          k = 0.1250 0.0726-0.2535 (   525 PWs)   bands (ev):

    -6.3695   1.3043   4.9860   7.1720   8.5435  10.8049  12.4702  13.9612
    15.3511

          k = 0.1250 0.3604-0.0495 (   522 PWs)   bands (ev):

    -5.9250   0.3917   5.3512   5.6501   9.2996  10.5303  11.7005  13.5632
    15.7167

          k = 0.1250 0.3604 0.2555 (   519 PWs)   bands (ev):

    -5.5427   1.1265   3.5658   4.2978   7.5159  10.4217  13.7076  13.7746
    16.9045

          k = 0.1250 0.3604-0.6594 (   510 PWs)   bands (ev):

    -3.8393  -1.8099   2.3270   4.2466   8.0539  11.6204  13.3234  15.7202
    17.3489

          k = 0.1250 0.3604-0.3545 (   521 PWs)   bands (ev):

    -4.7124  -1.4722   3.0016   6.6926   7.7777  12.3034  13.0675  13.4304
    16.0962

          k = 0.1250-0.5029 0.2535 (   520 PWs)   bands (ev):

    -4.3490  -2.4704   4.7883   6.1554   7.8796  10.8149  12.5849  13.8261
    17.7263

          k = 0.1250-0.5029 0.5584 (   510 PWs)   bands (ev):

    -3.8393  -1.8099   2.3271   4.2466   8.0539  11.6204  13.3234  15.7202
    17.3489

          k = 0.1250-0.5029-0.3564 (   510 PWs)   bands (ev):

    -4.0542  -1.5061   3.7084   3.7296   6.0243  10.0593  15.9112  17.7151
    18.4776

          k = 0.1250-0.5029-0.0515 (   521 PWs)   bands (ev):

    -4.7124  -1.4722   3.0016   6.6926   7.7777  12.3034  13.0675  13.4304
    16.0962

          k = 0.1250-0.2151 0.1525 (   525 PWs)   bands (ev):

    -6.3695   1.3043   4.9860   7.1720   8.5435  10.8049  12.4702  13.9612
    15.3511

          k = 0.1250-0.2151 0.4574 (   521 PWs)   bands (ev):

    -4.7124  -1.4722   3.0016   6.6926   7.7777  12.3034  13.0675  13.4304
    16.0962

          k = 0.1250-0.2151-0.4574 (   521 PWs)   bands (ev):

    -4.7124  -1.4722   3.0016   6.6926   7.7777  12.3034  13.0675  13.4304
    16.0962

          k = 0.1250-0.2151-0.1525 (   525 PWs)   bands (ev):

    -6.3695   1.3043   4.9860   7.1720   8.5435  10.8049  12.4702  13.9612
    15.3511

          k = 0.3750-0.0699-0.0495 (   522 PWs)   bands (ev):

    -5.9250   0.3917   5.3512   5.6501   9.2996  10.5303  11.7005  13.5632
    15.7167

          k = 0.3750-0.0699 0.2555 (   519 PWs)   bands (ev):

    -5.5427   1.1264   3.5658   4.2978   7.5159  10.4217  13.7076  13.7746
    16.9045

          k = 0.3750-0.0699-0.6594 (   510 PWs)   bands (ev):

    -3.8393  -1.8099   2.3271   4.2466   8.0539  11.6204  13.3234  15.7202
    17.3489

          k = 0.3750-0.0699-0.3545 (   521 PWs)   bands (ev):

    -4.7124  -1.4722   3.0016   6.6926   7.7777  12.3034  13.0675  13.4304
    16.0962

          k = 0.3750 0.2179-0.1505 (   519 PWs)   bands (ev):

    -5.5427   1.1265   3.5658   4.2978   7.5159  10.4217  13.7076  13.7746
    16.9045

          k = 0.3750 0.2179 0.1545 (   522 PWs)   bands (ev):

    -5.8586   0.8361   5.8840   5.8840   7.4114  10.0627  10.0627  12.1191
    17.3944

          k = 0.3750 0.2179-0.7604 (   520 PWs)   bands (ev):

    -4.8492  -0.0498   2.4338   4.7831   7.5088  11.6828  12.0642  14.4760
    17.7700

          k = 0.3750 0.2179-0.4555 (   510 PWs)   bands (ev):

    -4.0542  -1.5061   3.7084   3.7296   6.0243  10.0593  15.9112  17.7151
    18.4776

          k = 0.3750-0.6454 0.1525 (   510 PWs)   bands (ev):

    -3.8393  -1.8099   2.3271   4.2466   8.0539  11.6204  13.3234  15.7202
    17.3489

          k = 0.3750-0.6454 0.4574 (   520 PWs)   bands (ev):

    -4.8492  -0.0498   2.4338   4.7831   7.5088  11.6828  12.0642  14.4760
    17.7701

          k = 0.3750-0.6454-0.4574 (   520 PWs)   bands (ev):

    -4.8492  -0.0498   2.4338   4.7831   7.5088  11.6828  12.0642  14.4760
    17.7700

          k = 0.3750-0.6454-0.1525 (   510 PWs)   bands (ev):

    -3.8393  -1.8099   2.3270   4.2466   8.0539  11.6204  13.3234  15.7202
    17.3489

          k = 0.3750-0.3576 0.0515 (   521 PWs)   bands (ev):

    -4.7124  -1.4722   3.0016   6.6926   7.7777  12.3034  13.0675  13.4304
    16.0962

          k = 0.3750-0.3576 0.3564 (   510 PWs)   bands (ev):

    -4.0542  -1.5061   3.7084   3.7296   6.0243  10.0593  15.9112  17.7151
    18.4776

          k = 0.3750-0.3576-0.5584 (   510 PWs)   bands (ev):

    -3.8393  -1.8099   2.3271   4.2466   8.0539  11.6204  13.3234  15.7202
    17.3489

          k = 0.3750-0.3576-0.2535 (   520 PWs)   bands (ev):

    -4.3490  -2.4704   4.7883   6.1554   7.8796  10.8149  12.5849  13.8261
    17.7262

     the Fermi energy is    10.0033 ev

!    total energy              =     -25.44012218 Ry
     Harris-Foulkes estimate   =     -25.44012218 Ry
     estimated scf accuracy    <       0.00000001 Ry

     The total energy is the sum of the following terms:

     one-electron contribution =       7.72810281 Ry
     hartree contribution      =       1.22165926 Ry
     xc contribution           =      -6.50440081 Ry
     ewald contribution        =     -27.88552884 Ry
     smearing contrib. (-TS)   =       0.00004540 Ry

     convergence has been achieved in   5 iterations

     Forces acting on atoms (Ry/au):

     atom   1 type  1   force =    -0.10311786   -0.05991789   -0.04247081
     atom   2 type  1   force =     0.10311786    0.05991789    0.04247081

     Total force =     0.179038     Total SCF correction =     0.000023


     entering subroutine stress ...

          total   stress  (Ry/bohr**3)                   (kbar)     P=  217.52
   0.00123597  -0.00028343  -0.00020091        181.82    -41.69    -29.55
  -0.00028343   0.00155904  -0.00011672        -41.69    229.34    -17.17
  -0.00020091  -0.00011672   0.00164099        -29.55    -17.17    241.40


     BFGS Geometry Optimization

     number of scf cycles    =   1
     number of bfgs steps    =   0

     enthalpy new            =     -25.4401221801 Ry

     new trust radius        =       0.5000000000 bohr
     new conv_thr            =       0.0000001000 Ry

     new unit-cell volume =    297.81728 a.u.^3 (    44.13197 Ang^3 )

CELL_PARAMETERS (alat=  7.01033623)
   1.055849661  -0.012807228  -0.009078305
   0.511703204   0.923656500  -0.009077542
   0.511702959   0.297333125   0.874538378

ATOMIC_POSITIONS (crystal)
As       0.276400001   0.276400124   0.276400178
As      -0.276400001  -0.276400124  -0.276400178



     Writing output data file pwscf.save
     NEW-OLD atomic charge density approx. for the potential
     NEW k-points:
        k(    1) = (   0.1196552   0.0695274   0.0492823), wk =   0.0625000
        k(    2) = (   0.1221138   0.0709558   0.3332232), wk =   0.0625000
        k(    3) = (   0.1147378   0.0666706  -0.5185994), wk =   0.0625000
        k(    4) = (   0.1171965   0.0680990  -0.2346585), wk =   0.0625000
        k(    5) = (   0.1221137   0.3379178  -0.0434059), wk =   0.0625000
        k(    6) = (   0.1245724   0.3393462   0.2405350), wk =   0.0625000
        k(    7) = (   0.1171964   0.3350610  -0.6112876), wk =   0.0625000
        k(    8) = (   0.1196550   0.3364894  -0.3273467), wk =   0.0625000
        k(    9) = (   0.1147380  -0.4672534   0.2346588), wk =   0.0625000
        k(   10) = (   0.1171967  -0.4658250   0.5185997), wk =   0.0625000
        k(   11) = (   0.1098206  -0.4701103  -0.3332229), wk =   0.0625000
        k(   12) = (   0.1122793  -0.4686819  -0.0492820), wk =   0.0625000
        k(   13) = (   0.1171966  -0.1988630   0.1419706), wk =   0.0625000
        k(   14) = (   0.1196553  -0.1974346   0.4259114), wk =   0.0625000
        k(   15) = (   0.1122792  -0.2017199  -0.4259111), wk =   0.0625000
        k(   16) = (   0.1147379  -0.2002914  -0.1419703), wk =   0.0625000
        k(   17) = (   0.3540482  -0.0612366  -0.0434056), wk =   0.0625000
        k(   18) = (   0.3565069  -0.0598082   0.2405353), wk =   0.0625000
        k(   19) = (   0.3491308  -0.0640935  -0.6112873), wk =   0.0625000
        k(   20) = (   0.3515895  -0.0626651  -0.3273464), wk =   0.0625000
        k(   21) = (   0.3565068   0.2071538  -0.1360938), wk =   0.0625000
        k(   22) = (   0.3589655   0.2085822   0.1478470), wk =   0.0625000
        k(   23) = (   0.3515894   0.2042969  -0.7039755), wk =   0.0625000
        k(   24) = (   0.3540481   0.2057254  -0.4200347), wk =   0.0625000
        k(   25) = (   0.3491311  -0.5980175   0.1419709), wk =   0.0625000
        k(   26) = (   0.3515897  -0.5965891   0.4259118), wk =   0.0625000
        k(   27) = (   0.3442137  -0.6008743  -0.4259108), wk =   0.0625000
        k(   28) = (   0.3466724  -0.5994459  -0.1419699), wk =   0.0625000
        k(   29) = (   0.3515896  -0.3296271   0.0492827), wk =   0.0625000
        k(   30) = (   0.3540483  -0.3281986   0.3332235), wk =   0.0625000
        k(   31) = (   0.3466723  -0.3324839  -0.5185990), wk =   0.0625000
        k(   32) = (   0.3491310  -0.3310555  -0.2346582), wk =   0.0625000
     extrapolated charge   11.76097, renormalised to   10.00000

     total cpu time spent up to now is      4.02 secs

     per-process dynamical memory:     5.7 Mb

     Self-consistent Calculation

     iteration #  1     ecut=    25.00 Ry     beta=0.70
     Davidson diagonalization with overlap
     ethr =  1.00E-06,  avg # of iterations =  7.1

     total cpu time spent up to now is      5.30 secs

     total energy              =     -25.46196528 Ry
     Harris-Foulkes estimate   =     -26.46822435 Ry
     estimated scf accuracy    <       0.01522466 Ry

     iteration #  2     ecut=    25.00 Ry     beta=0.70
     Davidson diagonalization with overlap
     ethr =  1.52E-04,  avg # of iterations =  3.1

     total cpu time spent up to now is      6.09 secs

     total energy              =     -25.49056459 Ry
     Harris-Foulkes estimate   =     -25.49591684 Ry
     estimated scf accuracy    <       0.01382414 Ry

     iteration #  3     ecut=    25.00 Ry     beta=0.70
     Davidson diagonalization with overlap
     ethr =  1.38E-04,  avg # of iterations =  1.0

     total cpu time spent up to now is      6.55 secs

     total energy              =     -25.48980863 Ry
     Harris-Foulkes estimate   =     -25.49113702 Ry
     estimated scf accuracy    <       0.00318763 Ry

     iteration #  4     ecut=    25.00 Ry     beta=0.70
     Davidson diagonalization with overlap
     ethr =  3.19E-05,  avg # of iterations =  1.0

     total cpu time spent up to now is      7.02 secs

     total energy              =     -25.48972143 Ry
     Harris-Foulkes estimate   =     -25.49000354 Ry
     estimated scf accuracy    <       0.00052285 Ry

     iteration #  5     ecut=    25.00 Ry     beta=0.70
     Davidson diagonalization with overlap
     ethr =  5.23E-06,  avg # of iterations =  3.1

     total cpu time spent up to now is      7.65 secs

     total energy              =     -25.48986215 Ry
     Harris-Foulkes estimate   =     -25.48986185 Ry
     estimated scf accuracy    <       0.00000334 Ry

     iteration #  6     ecut=    25.00 Ry     beta=0.70
     Davidson diagonalization with overlap
     ethr =  3.34E-08,  avg # of iterations =  1.7

     total cpu time spent up to now is      8.15 secs

     total energy              =     -25.48986156 Ry
     Harris-Foulkes estimate   =     -25.48986252 Ry
     estimated scf accuracy    <       0.00000299 Ry

     iteration #  7     ecut=    25.00 Ry     beta=0.70
     Davidson diagonalization with overlap
     ethr =  2.99E-08,  avg # of iterations =  1.0

     total cpu time spent up to now is      8.61 secs

     End of self-consistent calculation

          k = 0.1197 0.0695 0.0493 (   531 PWs)   bands (ev):

    -7.4955   0.6240   4.3725   4.3725   5.8116   8.5688   9.3233   9.3233
    13.3295

          k = 0.1221 0.0710 0.3332 (   522 PWs)   bands (ev):

    -6.5664  -1.8567   3.6162   4.5287   6.5671   7.1564   8.0760  10.6597
    12.7807

          k = 0.1147 0.0667-0.5186 (   520 PWs)   bands (ev):

    -5.2806  -3.9253   3.7341   4.1891   5.1988   8.0649   8.8216   9.9623
    15.0332

          k = 0.1172 0.0681-0.2347 (   525 PWs)   bands (ev):

    -7.0004  -1.0345   3.6445   4.6921   6.0084   8.4050   9.0252  10.4519
    12.6752

          k = 0.1221 0.3379-0.0434 (   522 PWs)   bands (ev):

    -6.5664  -1.8567   3.6162   4.5287   6.5671   7.1564   8.0759  10.6597
    12.7807

          k = 0.1246 0.3393 0.2405 (   519 PWs)   bands (ev):

    -6.2079  -1.5318   2.3114   2.9561   4.6886   8.6414  10.2324  10.5853
    12.5739

          k = 0.1172 0.3351-0.6113 (   510 PWs)   bands (ev):

    -4.8405  -3.4559   1.2770   2.4551   5.3994   8.4367  11.0606  12.2350
    13.0275

          k = 0.1197 0.3365-0.3273 (   521 PWs)   bands (ev):

    -5.6321  -3.1343   2.1204   4.1729   5.5126   8.6892   9.6872  10.8490
    12.7112

          k = 0.1147-0.4673 0.2347 (   520 PWs)   bands (ev):

    -5.2806  -3.9253   3.7341   4.1891   5.1987   8.0649   8.8216   9.9623
    15.0332

          k = 0.1172-0.4658 0.5186 (   510 PWs)   bands (ev):

    -4.8405  -3.4559   1.2770   2.4551   5.3994   8.4367  11.0606  12.2350
    13.0275

          k = 0.1098-0.4701-0.3332 (   510 PWs)   bands (ev):

    -5.1555  -2.8292   1.4597   2.5062   3.6710   8.7421  11.7708  13.1685
    13.4192

          k = 0.1123-0.4687-0.0493 (   521 PWs)   bands (ev):

    -5.6321  -3.1343   2.1204   4.1729   5.5126   8.6892   9.6872  10.8490
    12.7112

          k = 0.1172-0.1989 0.1420 (   525 PWs)   bands (ev):

    -7.0003  -1.0345   3.6445   4.6921   6.0084   8.4050   9.0252  10.4519
    12.6752

          k = 0.1197-0.1974 0.4259 (   521 PWs)   bands (ev):

    -5.6321  -3.1343   2.1204   4.1729   5.5126   8.6892   9.6872  10.8490
    12.7112

          k = 0.1123-0.2017-0.4259 (   521 PWs)   bands (ev):

    -5.6321  -3.1343   2.1204   4.1729   5.5126   8.6892   9.6872  10.8490
    12.7112

          k = 0.1147-0.2003-0.1420 (   525 PWs)   bands (ev):

    -7.0004  -1.0345   3.6445   4.6921   6.0084   8.4050   9.0252  10.4519
    12.6752

          k = 0.3540-0.0612-0.0434 (   522 PWs)   bands (ev):

    -6.5664  -1.8567   3.6162   4.5287   6.5671   7.1564   8.0760  10.6597
    12.7807

          k = 0.3565-0.0598 0.2405 (   519 PWs)   bands (ev):

    -6.2079  -1.5318   2.3114   2.9561   4.6886   8.6414  10.2325  10.5853
    12.5739

          k = 0.3491-0.0641-0.6113 (   510 PWs)   bands (ev):

    -4.8405  -3.4559   1.2770   2.4551   5.3994   8.4367  11.0606  12.2350
    13.0275

          k = 0.3516-0.0627-0.3273 (   521 PWs)   bands (ev):

    -5.6321  -3.1343   2.1204   4.1729   5.5126   8.6892   9.6872  10.8490
    12.7112

          k = 0.3565 0.2072-0.1361 (   519 PWs)   bands (ev):

    -6.2079  -1.5318   2.3114   2.9561   4.6886   8.6414  10.2325  10.5853
    12.5739

          k = 0.3590 0.2086 0.1478 (   522 PWs)   bands (ev):

    -6.3297  -1.9333   4.4766   4.4766   5.0696   7.2953   7.2953   8.1468
    14.5534

          k = 0.3516 0.2043-0.7040 (   520 PWs)   bands (ev):

    -5.4499  -2.6738   1.4537   3.5278   4.8205   8.5296   8.7392  11.4164
    14.3377

          k = 0.3540 0.2057-0.4200 (   510 PWs)   bands (ev):

    -5.1554  -2.8292   1.4597   2.5062   3.6710   8.7421  11.7708  13.1685
    13.4192

          k = 0.3491-0.5980 0.1420 (   510 PWs)   bands (ev):

    -4.8405  -3.4559   1.2770   2.4551   5.3994   8.4367  11.0606  12.2350
    13.0275

          k = 0.3516-0.5966 0.4259 (   520 PWs)   bands (ev):

    -5.4499  -2.6738   1.4537   3.5278   4.8205   8.5296   8.7392  11.4164
    14.3377

          k = 0.3442-0.6009-0.4259 (   520 PWs)   bands (ev):

    -5.4499  -2.6738   1.4537   3.5278   4.8205   8.5296   8.7392  11.4164
    14.3377

          k = 0.3467-0.5994-0.1420 (   510 PWs)   bands (ev):

    -4.8405  -3.4559   1.2770   2.4551   5.3994   8.4367  11.0606  12.2350
    13.0275

          k = 0.3516-0.3296 0.0493 (   521 PWs)   bands (ev):

    -5.6321  -3.1343   2.1204   4.1729   5.5126   8.6892   9.6872  10.8490
    12.7112

          k = 0.3540-0.3282 0.3332 (   510 PWs)   bands (ev):

    -5.1554  -2.8292   1.4597   2.5062   3.6710   8.7421  11.7708  13.1685
    13.4192

          k = 0.3467-0.3325-0.5186 (   510 PWs)   bands (ev):

    -4.8405  -3.4559   1.2770   2.4551   5.3994   8.4367  11.0606  12.2350
    13.0275

          k = 0.3491-0.3311-0.2347 (   520 PWs)   bands (ev):

    -5.2806  -3.9253   3.7341   4.1891   5.1988   8.0649   8.8216   9.9623
    15.0332

     the Fermi energy is     7.0992 ev

!    total energy              =     -25.48986162 Ry
     Harris-Foulkes estimate   =     -25.48986167 Ry
     estimated scf accuracy    <       0.00000009 Ry

     The total energy is the sum of the following terms:

     one-electron contribution =       5.91101925 Ry
     hartree contribution      =       1.32277342 Ry
     xc contribution           =      -6.21965441 Ry
     ewald contribution        =     -26.50402731 Ry
     smearing contrib. (-TS)   =       0.00002742 Ry

     convergence has been achieved in   7 iterations

     Forces acting on atoms (Ry/au):

     atom   1 type  1   force =    -0.00644256   -0.00374366   -0.00265366
     atom   2 type  1   force =     0.00644256    0.00374366    0.00265366

     Total force =     0.011186     Total SCF correction =     0.000180


     entering subroutine stress ...

          total   stress  (Ry/bohr**3)                   (kbar)     P=  -56.78
  -0.00019614   0.00022167   0.00015713        -28.85     32.61     23.11
   0.00022167  -0.00044883   0.00009130         32.61    -66.03     13.43
   0.00015713   0.00009130  -0.00051292         23.11     13.43    -75.45


     number of scf cycles    =   2
     number of bfgs steps    =   1

     enthalpy old            =     -25.4401221801 Ry
     enthalpy new            =     -25.4898616172 Ry

     CASE: enthalpy_new < enthalpy_old

     new trust radius        =       0.0713324757 bohr
     new conv_thr            =       0.0000000644 Ry

     new unit-cell volume =    287.90046 a.u.^3 (    42.66245 Ang^3 )

CELL_PARAMETERS (alat=  7.01033623)
   1.048797971  -0.006964418  -0.004936734
   0.513287580   0.914636886  -0.004936057
   0.513287397   0.298253724   0.864656220

ATOMIC_POSITIONS (crystal)
As       0.276557090   0.276557181   0.276557216
As      -0.276557090  -0.276557181  -0.276557216



     Writing output data file pwscf.save
     NEW-OLD atomic charge density approx. for the potential
     NEW k-points:
        k(    1) = (   0.1198790   0.0696575   0.0493745), wk =   0.0625000
        k(    2) = (   0.1212401   0.0704482   0.3374261), wk =   0.0625000
        k(    3) = (   0.1171568   0.0680761  -0.5267285), wk =   0.0625000
        k(    4) = (   0.1185179   0.0688668  -0.2386770), wk =   0.0625000
        k(    5) = (   0.1212401   0.3417154  -0.0452768), wk =   0.0625000
        k(    6) = (   0.1226012   0.3425061   0.2427747), wk =   0.0625000
        k(    7) = (   0.1185178   0.3401340  -0.6213798), wk =   0.0625000
        k(    8) = (   0.1198789   0.3409247  -0.3333283), wk =   0.0625000
        k(    9) = (   0.1171569  -0.4744583   0.2386773), wk =   0.0625000
        k(   10) = (   0.1185181  -0.4736676   0.5267288), wk =   0.0625000
        k(   11) = (   0.1144347  -0.4760397  -0.3374258), wk =   0.0625000
        k(   12) = (   0.1157958  -0.4752490  -0.0493742), wk =   0.0625000
        k(   13) = (   0.1185180  -0.2024004   0.1440259), wk =   0.0625000
        k(   14) = (   0.1198791  -0.2016097   0.4320774), wk =   0.0625000
        k(   15) = (   0.1157957  -0.2039818  -0.4320771), wk =   0.0625000
        k(   16) = (   0.1171569  -0.2031911  -0.1440256), wk =   0.0625000
        k(   17) = (   0.3569149  -0.0638761  -0.0452765), wk =   0.0625000
        k(   18) = (   0.3582760  -0.0630855   0.2427750), wk =   0.0625000
        k(   19) = (   0.3541927  -0.0654575  -0.6213795), wk =   0.0625000
        k(   20) = (   0.3555538  -0.0646668  -0.3333280), wk =   0.0625000
        k(   21) = (   0.3582759   0.2081818  -0.1399279), wk =   0.0625000
        k(   22) = (   0.3596371   0.2089724   0.1481236), wk =   0.0625000
        k(   23) = (   0.3555537   0.2066004  -0.7160309), wk =   0.0625000
        k(   24) = (   0.3569148   0.2073911  -0.4279794), wk =   0.0625000
        k(   25) = (   0.3541928  -0.6079919   0.1440262), wk =   0.0625000
        k(   26) = (   0.3555539  -0.6072012   0.4320777), wk =   0.0625000
        k(   27) = (   0.3514706  -0.6095733  -0.4320768), wk =   0.0625000
        k(   28) = (   0.3528317  -0.6087826  -0.1440253), wk =   0.0625000
        k(   29) = (   0.3555539  -0.3359340   0.0493748), wk =   0.0625000
        k(   30) = (   0.3569150  -0.3351433   0.3374263), wk =   0.0625000
        k(   31) = (   0.3528316  -0.3375154  -0.5267282), wk =   0.0625000
        k(   32) = (   0.3541927  -0.3367247  -0.2386767), wk =   0.0625000
     extrapolated charge    9.65556, renormalised to   10.00000

     total cpu time spent up to now is      8.96 secs

     per-process dynamical memory:     5.7 Mb

     Self-consistent Calculation

     iteration #  1     ecut=    25.00 Ry     beta=0.70
     Davidson diagonalization with overlap
     ethr =  1.00E-06,  avg # of iterations =  4.1

     total cpu time spent up to now is      9.94 secs

     total energy              =     -25.49315745 Ry
     Harris-Foulkes estimate   =     -25.30169147 Ry
     estimated scf accuracy    <       0.00073268 Ry

     iteration #  2     ecut=    25.00 Ry     beta=0.70
     Davidson diagonalization with overlap
     ethr =  7.33E-06,  avg # of iterations =  3.1

     total cpu time spent up to now is     10.69 secs

     total energy              =     -25.49420849 Ry
     Harris-Foulkes estimate   =     -25.49438640 Ry
     estimated scf accuracy    <       0.00042306 Ry

     iteration #  3     ecut=    25.00 Ry     beta=0.70
     Davidson diagonalization with overlap
     ethr =  4.23E-06,  avg # of iterations =  1.0

     total cpu time spent up to now is     11.16 secs

     total energy              =     -25.49420153 Ry
     Harris-Foulkes estimate   =     -25.49423100 Ry
     estimated scf accuracy    <       0.00007489 Ry

     iteration #  4     ecut=    25.00 Ry     beta=0.70
     Davidson diagonalization with overlap
     ethr =  7.49E-07,  avg # of iterations =  1.0

     total cpu time spent up to now is     11.62 secs

     total energy              =     -25.49419748 Ry
     Harris-Foulkes estimate   =     -25.49420598 Ry
     estimated scf accuracy    <       0.00001501 Ry

     iteration #  5     ecut=    25.00 Ry     beta=0.70
     Davidson diagonalization with overlap
     ethr =  1.50E-07,  avg # of iterations =  3.0

     total cpu time spent up to now is     12.27 secs

     total energy              =     -25.49420214 Ry
     Harris-Foulkes estimate   =     -25.49420218 Ry
     estimated scf accuracy    <       0.00000029 Ry

     iteration #  6     ecut=    25.00 Ry     beta=0.70
     Davidson diagonalization with overlap
     ethr =  2.92E-09,  avg # of iterations =  1.1

     total cpu time spent up to now is     12.74 secs

     total energy              =     -25.49420205 Ry
     Harris-Foulkes estimate   =     -25.49420215 Ry
     estimated scf accuracy    <       0.00000019 Ry

     iteration #  7     ecut=    25.00 Ry     beta=0.70
     Davidson diagonalization with overlap
     ethr =  1.89E-09,  avg # of iterations =  1.3

     total cpu time spent up to now is     13.21 secs

     End of self-consistent calculation

          k = 0.1199 0.0697 0.0494 (   531 PWs)   bands (ev):

    -7.3635   1.2015   4.7472   4.7472   6.1794   9.0451   9.7877   9.7877
    13.8015

          k = 0.1212 0.0704 0.3374 (   522 PWs)   bands (ev):

    -6.4023  -1.4523   3.8535   4.8563   7.0830   7.6497   8.5526  11.2013
    13.1925

          k = 0.1172 0.0681-0.5267 (   520 PWs)   bands (ev):

    -5.0485  -3.6423   4.0323   4.4478   5.6217   8.5565   9.2849  10.4138
    15.4932

          k = 0.1185 0.0689-0.2387 (   525 PWs)   bands (ev):

    -6.8430  -0.5752   3.9729   5.0347   6.3599   8.9536   9.4340  10.9578
    13.0763

          k = 0.1212 0.3417-0.0453 (   522 PWs)   bands (ev):

    -6.4023  -1.4523   3.8535   4.8563   7.0830   7.6497   8.5526  11.2013
    13.1925

          k = 0.1226 0.3425 0.2428 (   519 PWs)   bands (ev):

    -6.0351  -1.0991   2.5374   3.2775   5.0375   9.1167  10.8445  11.1453
    13.1335

          k = 0.1185 0.3401-0.6214 (   510 PWs)   bands (ev):

    -4.5971  -3.1246   1.4882   2.6845   5.7729   8.9988  11.5440  12.8511
    13.5753

          k = 0.1199 0.3409-0.3333 (   521 PWs)   bands (ev):

    -5.4159  -2.7937   2.3454   4.5001   5.8371   9.1627  10.2878  11.3424
    13.1458

          k = 0.1172-0.4745 0.2387 (   520 PWs)   bands (ev):

    -5.0485  -3.6423   4.0323   4.4478   5.6217   8.5565   9.2849  10.4138
    15.4932

          k = 0.1185-0.4737 0.5267 (   510 PWs)   bands (ev):

    -4.5971  -3.1246   1.4882   2.6845   5.7729   8.9987  11.5440  12.8511
    13.5753

          k = 0.1144-0.4760-0.3374 (   510 PWs)   bands (ev):

    -4.9110  -2.4972   1.7066   2.8023   3.9554   9.0851  12.3600  13.7886
    14.1365

          k = 0.1158-0.4752-0.0494 (   521 PWs)   bands (ev):

    -5.4159  -2.7937   2.3454   4.5001   5.8371   9.1627  10.2878  11.3424
    13.1458

          k = 0.1185-0.2024 0.1440 (   525 PWs)   bands (ev):

    -6.8430  -0.5752   3.9729   5.0347   6.3599   8.9536   9.4340  10.9578
    13.0763

          k = 0.1199-0.2016 0.4321 (   521 PWs)   bands (ev):

    -5.4159  -2.7937   2.3454   4.5001   5.8371   9.1627  10.2878  11.3424
    13.1458

          k = 0.1158-0.2040-0.4321 (   521 PWs)   bands (ev):

    -5.4159  -2.7937   2.3454   4.5001   5.8371   9.1627  10.2878  11.3424
    13.1458

          k = 0.1172-0.2032-0.1440 (   525 PWs)   bands (ev):

    -6.8430  -0.5752   3.9729   5.0347   6.3599   8.9536   9.4341  10.9578
    13.0763

          k = 0.3569-0.0639-0.0453 (   522 PWs)   bands (ev):

    -6.4023  -1.4523   3.8535   4.8563   7.0830   7.6497   8.5526  11.2013
    13.1925

          k = 0.3583-0.0631 0.2428 (   519 PWs)   bands (ev):

    -6.0351  -1.0991   2.5374   3.2774   5.0375   9.1167  10.8445  11.1453
    13.1335

          k = 0.3542-0.0655-0.6214 (   510 PWs)   bands (ev):

    -4.5971  -3.1246   1.4882   2.6845   5.7729   8.9987  11.5440  12.8511
    13.5753

          k = 0.3556-0.0647-0.3333 (   521 PWs)   bands (ev):

    -5.4159  -2.7937   2.3454   4.5001   5.8371   9.1627  10.2878  11.3424
    13.1458

          k = 0.3583 0.2082-0.1399 (   519 PWs)   bands (ev):

    -6.0351  -1.0991   2.5374   3.2774   5.0375   9.1167  10.8445  11.1453
    13.1335

          k = 0.3596 0.2090 0.1481 (   522 PWs)   bands (ev):

    -6.1822  -1.6030   4.8484   4.8484   5.6096   7.7505   7.7505   8.7338
    15.0379

          k = 0.3556 0.2066-0.7160 (   520 PWs)   bands (ev):

    -5.2637  -2.3185   1.6629   3.8500   5.2486   9.1449   9.2620  12.0386
    14.7866

          k = 0.3569 0.2074-0.4280 (   510 PWs)   bands (ev):

    -4.9110  -2.4972   1.7066   2.8023   3.9554   9.0851  12.3600  13.7886
    14.1365

          k = 0.3542-0.6080 0.1440 (   510 PWs)   bands (ev):

    -4.5971  -3.1246   1.4882   2.6845   5.7729   8.9987  11.5440  12.8511
    13.5753

          k = 0.3556-0.6072 0.4321 (   520 PWs)   bands (ev):

    -5.2637  -2.3185   1.6629   3.8500   5.2486   9.1449   9.2620  12.0386
    14.7866

          k = 0.3515-0.6096-0.4321 (   520 PWs)   bands (ev):

    -5.2637  -2.3185   1.6629   3.8500   5.2486   9.1449   9.2620  12.0386
    14.7866

          k = 0.3528-0.6088-0.1440 (   510 PWs)   bands (ev):

    -4.5971  -3.1246   1.4882   2.6845   5.7729   8.9988  11.5440  12.8511
    13.5753

          k = 0.3556-0.3359 0.0494 (   521 PWs)   bands (ev):

    -5.4159  -2.7937   2.3454   4.5001   5.8371   9.1627  10.2878  11.3424
    13.1458

          k = 0.3569-0.3351 0.3374 (   510 PWs)   bands (ev):

    -4.9110  -2.4972   1.7066   2.8023   3.9554   9.0851  12.3600  13.7886
    14.1365

          k = 0.3528-0.3375-0.5267 (   510 PWs)   bands (ev):

    -4.5971  -3.1246   1.4882   2.6845   5.7729   8.9988  11.5440  12.8511
    13.5753

          k = 0.3542-0.3367-0.2387 (   520 PWs)   bands (ev):

    -5.0485  -3.6423   4.0323   4.4478   5.6217   8.5565   9.2849  10.4138
    15.4932

     the Fermi energy is     7.1403 ev

!    total energy              =     -25.49420207 Ry
     Harris-Foulkes estimate   =     -25.49420207 Ry
     estimated scf accuracy    <          1.2E-09 Ry

     The total energy is the sum of the following terms:

     one-electron contribution =       6.27098004 Ry
     hartree contribution      =       1.28115787 Ry
     xc contribution           =      -6.26181746 Ry
     ewald contribution        =     -26.78454970 Ry
     smearing contrib. (-TS)   =       0.00002718 Ry

     convergence has been achieved in   7 iterations

     Forces acting on atoms (Ry/au):

     atom   1 type  1   force =    -0.01177678   -0.00684280   -0.00485049
     atom   2 type  1   force =     0.01177678    0.00684280    0.00485049

     Total force =     0.020447     Total SCF correction =     0.000018


     entering subroutine stress ...

          total   stress  (Ry/bohr**3)                   (kbar)     P=  -30.64
  -0.00005583   0.00017800   0.00012617         -8.21     26.18     18.56
   0.00017800  -0.00025874   0.00007331         26.18    -38.06     10.78
   0.00012617   0.00007331  -0.00031020         18.56     10.78    -45.63


     number of scf cycles    =   3
     number of bfgs steps    =   2

     enthalpy old            =     -25.4898616172 Ry
     enthalpy new            =     -25.4942020719 Ry

     CASE: enthalpy_new < enthalpy_old

     new trust radius        =       0.2174158954 bohr
     new conv_thr            =       0.0000001000 Ry

     new unit-cell volume =    264.53261 a.u.^3 (    39.19969 Ang^3 )

CELL_PARAMETERS (alat=  7.01033623)
   1.038221954   0.014808725   0.010496664
   0.526966971   0.894666688   0.010497203
   0.526966933   0.306202186   0.840701917

ATOMIC_POSITIONS (crystal)
As       0.273598725   0.273599066   0.273598918
As      -0.273598725  -0.273599066  -0.273598918



     Writing output data file pwscf.save
     NEW-OLD atomic charge density approx. for the potential
     NEW k-points:
        k(    1) = (   0.1189174   0.0690987   0.0489785), wk =   0.0625000
        k(    2) = (   0.1159103   0.0673513   0.3488704), wk =   0.0625000
        k(    3) = (   0.1249315   0.0725937  -0.5508053), wk =   0.0625000
        k(    4) = (   0.1219244   0.0708462  -0.2509134), wk =   0.0625000
        k(    5) = (   0.1159103   0.3514883  -0.0519891), wk =   0.0625000
        k(    6) = (   0.1129033   0.3497408   0.2479028), wk =   0.0625000
        k(    7) = (   0.1219244   0.3549832  -0.6517729), wk =   0.0625000
        k(    8) = (   0.1189174   0.3532357  -0.3518810), wk =   0.0625000
        k(    9) = (   0.1249315  -0.4956803   0.2509137), wk =   0.0625000
        k(   10) = (   0.1219245  -0.4974278   0.5508056), wk =   0.0625000
        k(   11) = (   0.1309456  -0.4921854  -0.3488701), wk =   0.0625000
        k(   12) = (   0.1279386  -0.4939328  -0.0489782), wk =   0.0625000
        k(   13) = (   0.1219244  -0.2132908   0.1499461), wk =   0.0625000
        k(   14) = (   0.1189174  -0.2150383   0.4498380), wk =   0.0625000
        k(   15) = (   0.1279385  -0.2097958  -0.4498377), wk =   0.0625000
        k(   16) = (   0.1249315  -0.2115433  -0.1499458), wk =   0.0625000
        k(   17) = (   0.3627662  -0.0733458  -0.0519889), wk =   0.0625000
        k(   18) = (   0.3597592  -0.0750933   0.2479030), wk =   0.0625000
        k(   19) = (   0.3687803  -0.0698509  -0.6517727), wk =   0.0625000
        k(   20) = (   0.3657733  -0.0715984  -0.3518808), wk =   0.0625000
        k(   21) = (   0.3597592   0.2090437  -0.1529565), wk =   0.0625000
        k(   22) = (   0.3567521   0.2072962   0.1469354), wk =   0.0625000
        k(   23) = (   0.3657733   0.2125386  -0.7527403), wk =   0.0625000
        k(   24) = (   0.3627662   0.2107912  -0.4528484), wk =   0.0625000
        k(   25) = (   0.3687804  -0.6381249   0.1499463), wk =   0.0625000
        k(   26) = (   0.3657733  -0.6398724   0.4498382), wk =   0.0625000
        k(   27) = (   0.3747945  -0.6346299  -0.4498375), wk =   0.0625000
        k(   28) = (   0.3717874  -0.6363774  -0.1499456), wk =   0.0625000
        k(   29) = (   0.3657733  -0.3557354   0.0489787), wk =   0.0625000
        k(   30) = (   0.3627663  -0.3574829   0.3488706), wk =   0.0625000
        k(   31) = (   0.3717874  -0.3522404  -0.5508051), wk =   0.0625000
        k(   32) = (   0.3687804  -0.3539879  -0.2509132), wk =   0.0625000
     extrapolated charge    9.11667, renormalised to   10.00000

     total cpu time spent up to now is     13.56 secs

     per-process dynamical memory:     5.7 Mb

     Self-consistent Calculation

     iteration #  1     ecut=    25.00 Ry     beta=0.70
     Davidson diagonalization with overlap
     ethr =  1.00E-06,  avg # of iterations =  5.1

     total cpu time spent up to now is     14.68 secs

     total energy              =     -25.49086377 Ry
     Harris-Foulkes estimate   =     -24.97250827 Ry
     estimated scf accuracy    <       0.00603275 Ry

     iteration #  2     ecut=    25.00 Ry     beta=0.70
     Davidson diagonalization with overlap
     ethr =  6.03E-05,  avg # of iterations =  3.0

     total cpu time spent up to now is     15.40 secs

     total energy              =     -25.49760909 Ry
     Harris-Foulkes estimate   =     -25.49910388 Ry
     estimated scf accuracy    <       0.00330006 Ry

     iteration #  3     ecut=    25.00 Ry     beta=0.70
     Davidson diagonalization with overlap
     ethr =  3.30E-05,  avg # of iterations =  1.0

     total cpu time spent up to now is     15.86 secs

     total energy              =     -25.49775803 Ry
     Harris-Foulkes estimate   =     -25.49788834 Ry
     estimated scf accuracy    <       0.00038959 Ry

     iteration #  4     ecut=    25.00 Ry     beta=0.70
     Davidson diagonalization with overlap
     ethr =  3.90E-06,  avg # of iterations =  1.0

     total cpu time spent up to now is     16.33 secs

     total energy              =     -25.49771483 Ry
     Harris-Foulkes estimate   =     -25.49777859 Ry
     estimated scf accuracy    <       0.00011398 Ry

     iteration #  5     ecut=    25.00 Ry     beta=0.70
     Davidson diagonalization with overlap
     ethr =  1.14E-06,  avg # of iterations =  2.5

     total cpu time spent up to now is     16.91 secs

     total energy              =     -25.49774590 Ry
     Harris-Foulkes estimate   =     -25.49774621 Ry
     estimated scf accuracy    <       0.00000201 Ry

     iteration #  6     ecut=    25.00 Ry     beta=0.70
     Davidson diagonalization with overlap
     ethr =  2.01E-08,  avg # of iterations =  1.8

     total cpu time spent up to now is     17.42 secs

     total energy              =     -25.49774543 Ry
     Harris-Foulkes estimate   =     -25.49774605 Ry
     estimated scf accuracy    <       0.00000112 Ry

     iteration #  7     ecut=    25.00 Ry     beta=0.70
     Davidson diagonalization with overlap
     ethr =  1.12E-08,  avg # of iterations =  2.0

     total cpu time spent up to now is     17.95 secs

     End of self-consistent calculation

          k = 0.1189 0.0691 0.0490 (   531 PWs)   bands (ev):

    -6.9642   2.4694   5.9706   5.9706   7.1315  10.4647  11.0882  11.0882
    15.0382

          k = 0.1159 0.0674 0.3489 (   522 PWs)   bands (ev):

    -5.9094  -0.3952   4.3636   5.9948   8.5643   8.9403   9.6449  12.5860
    14.3889

          k = 0.1249 0.0726-0.5508 (   520 PWs)   bands (ev):

    -4.3318  -2.8809   5.0076   5.0505   6.7405   9.8924  10.2775  11.1502
    16.3035

          k = 0.1219 0.0708-0.2509 (   525 PWs)   bands (ev):

    -6.3675   0.6840   5.0521   5.8080   7.2037  10.1327  10.6882  12.1426
    14.0599

          k = 0.1159 0.3515-0.0520 (   522 PWs)   bands (ev):

    -5.9094  -0.3952   4.3636   5.9948   8.5643   8.9403   9.6449  12.5860
    14.3889

          k = 0.1129 0.3497 0.2479 (   519 PWs)   bands (ev):

    -5.5200  -0.0821   3.2326   4.3359   5.8300  10.5713  12.6627  12.6815
    14.4769

          k = 0.1219 0.3550-0.6518 (   510 PWs)   bands (ev):

    -3.8703  -2.2001   2.1080   3.1973   6.6947  10.5327  12.9708  14.4313
    14.7765

          k = 0.1189 0.3532-0.3519 (   521 PWs)   bands (ev):

    -4.7694  -1.8243   3.0643   5.2373   6.5979  10.0805  11.8713  12.7618
    14.2757

          k = 0.1249-0.4957 0.2509 (   520 PWs)   bands (ev):

    -4.3318  -2.8809   5.0076   5.0505   6.7405   9.8924  10.2775  11.1502
    16.3035

          k = 0.1219-0.4974 0.5508 (   510 PWs)   bands (ev):

    -3.8703  -2.2001   2.1080   3.1973   6.6947  10.5327  12.9708  14.4313
    14.7765

          k = 0.1309-0.4922-0.3489 (   510 PWs)   bands (ev):

    -4.1918  -1.5489   2.2314   3.7832   4.5770  10.1377  13.7301  15.1296
    15.8375

          k = 0.1279-0.4939-0.0490 (   521 PWs)   bands (ev):

    -4.7694  -1.8243   3.0643   5.2373   6.5979  10.0805  11.8713  12.7618
    14.2757

          k = 0.1219-0.2133 0.1499 (   525 PWs)   bands (ev):

    -6.3675   0.6840   5.0521   5.8080   7.2037  10.1327  10.6882  12.1426
    14.0599

          k = 0.1189-0.2150 0.4498 (   521 PWs)   bands (ev):

    -4.7694  -1.8243   3.0643   5.2373   6.5979  10.0805  11.8713  12.7618
    14.2757

          k = 0.1279-0.2098-0.4498 (   521 PWs)   bands (ev):

    -4.7694  -1.8243   3.0643   5.2373   6.5979  10.0806  11.8714  12.7618
    14.2757

          k = 0.1249-0.2115-0.1499 (   525 PWs)   bands (ev):

    -6.3675   0.6840   5.0521   5.8080   7.2037  10.1327  10.6882  12.1426
    14.0599

          k = 0.3628-0.0733-0.0520 (   522 PWs)   bands (ev):

    -5.9094  -0.3953   4.3636   5.9948   8.5643   8.9403   9.6449  12.5860
    14.3889

          k = 0.3598-0.0751 0.2479 (   519 PWs)   bands (ev):

    -5.5200  -0.0821   3.2326   4.3359   5.8301  10.5713  12.6627  12.6815
    14.4769

          k = 0.3688-0.0699-0.6518 (   510 PWs)   bands (ev):

    -3.8703  -2.2001   2.1080   3.1974   6.6947  10.5327  12.9708  14.4313
    14.7765

          k = 0.3658-0.0716-0.3519 (   521 PWs)   bands (ev):

    -4.7694  -1.8243   3.0643   5.2373   6.5979  10.0805  11.8714  12.7618
    14.2758

          k = 0.3598 0.2090-0.1530 (   519 PWs)   bands (ev):

    -5.5200  -0.0821   3.2326   4.3359   5.8301  10.5713  12.6627  12.6815
    14.4769

          k = 0.3568 0.2073 0.1469 (   522 PWs)   bands (ev):

    -5.7294  -1.0712   6.1173   6.1173   7.4942   8.9840   8.9840  10.2768
    16.3147

          k = 0.3658 0.2125-0.7527 (   520 PWs)   bands (ev):

    -4.6810  -1.6005   2.3472   4.9279   6.4194  10.6431  10.9982  13.8386
    15.8567

          k = 0.3628 0.2108-0.4528 (   510 PWs)   bands (ev):

    -4.1918  -1.5489   2.2314   3.7832   4.5770  10.1377  13.7301  15.1296
    15.8375

          k = 0.3688-0.6381 0.1499 (   510 PWs)   bands (ev):

    -3.8703  -2.2001   2.1080   3.1973   6.6947  10.5327  12.9708  14.4313
    14.7765

          k = 0.3658-0.6399 0.4498 (   520 PWs)   bands (ev):

    -4.6810  -1.6005   2.3472   4.9279   6.4194  10.6431  10.9982  13.8386
    15.8567

          k = 0.3748-0.6346-0.4498 (   520 PWs)   bands (ev):

    -4.6810  -1.6005   2.3472   4.9279   6.4194  10.6431  10.9982  13.8386
    15.8567

          k = 0.3718-0.6364-0.1499 (   510 PWs)   bands (ev):

    -3.8703  -2.2001   2.1080   3.1974   6.6947  10.5327  12.9708  14.4313
    14.7765

          k = 0.3658-0.3557 0.0490 (   521 PWs)   bands (ev):

    -4.7694  -1.8243   3.0643   5.2373   6.5979  10.0805  11.8714  12.7618
    14.2757

          k = 0.3628-0.3575 0.3489 (   510 PWs)   bands (ev):

    -4.1918  -1.5489   2.2314   3.7832   4.5770  10.1377  13.7301  15.1296
    15.8375

          k = 0.3718-0.3522-0.5508 (   510 PWs)   bands (ev):

    -3.8703  -2.2001   2.1080   3.1974   6.6947  10.5327  12.9708  14.4313
    14.7765

          k = 0.3688-0.3540-0.2509 (   520 PWs)   bands (ev):

    -4.3318  -2.8809   5.0076   5.0505   6.7405   9.8924  10.2775  11.1502
    16.3035

     the Fermi energy is     8.6216 ev

!    total energy              =     -25.49774560 Ry
     Harris-Foulkes estimate   =     -25.49774566 Ry
     estimated scf accuracy    <       0.00000010 Ry

     The total energy is the sum of the following terms:

     one-electron contribution =       7.26878710 Ry
     hartree contribution      =       1.15256775 Ry
     xc contribution           =      -6.36496329 Ry
     ewald contribution        =     -27.55416433 Ry
     smearing contrib. (-TS)   =       0.00002718 Ry

     convergence has been achieved in   7 iterations

     Forces acting on atoms (Ry/au):

     atom   1 type  1   force =    -0.01361954   -0.00791385   -0.00560946
     atom   2 type  1   force =     0.01361954    0.00791385    0.00560946

     Total force =     0.023647     Total SCF correction =     0.000264


     entering subroutine stress ...

          total   stress  (Ry/bohr**3)                   (kbar)     P=   40.68
   0.00027059  -0.00000692  -0.00000491         39.80     -1.02     -0.72
  -0.00000692   0.00027847  -0.00000285         -1.02     40.96     -0.42
  -0.00000491  -0.00000285   0.00028047         -0.72     -0.42     41.26


     number of scf cycles    =   4
     number of bfgs steps    =   3

     enthalpy old            =     -25.4942020719 Ry
     enthalpy new            =     -25.4977455952 Ry

     CASE: enthalpy_new < enthalpy_old

     new trust radius        =       0.0621050537 bohr
     new conv_thr            =       0.0000001000 Ry

     new unit-cell volume =    272.55531 a.u.^3 (    40.38853 Ang^3 )

CELL_PARAMETERS (alat=  7.01033623)
   1.045519808   0.011422230   0.008096182
   0.527638519   0.902684020   0.008096826
   0.527638424   0.306592497   0.849061750

ATOMIC_POSITIONS (crystal)
As       0.272888940   0.272889216   0.272889108
As      -0.272888940  -0.272889216  -0.272889108



     Writing output data file pwscf.save
     NEW-OLD atomic charge density approx. for the potential
     NEW k-points:
        k(    1) = (   0.1184282   0.0688145   0.0487770), wk =   0.0625000
        k(    2) = (   0.1161480   0.0674893   0.3451152), wk =   0.0625000
        k(    3) = (   0.1229888   0.0714649  -0.5438995), wk =   0.0625000
        k(    4) = (   0.1207085   0.0701397  -0.2475612), wk =   0.0625000
        k(    5) = (   0.1161479   0.3479908  -0.0506152), wk =   0.0625000
        k(    6) = (   0.1138677   0.3466656   0.2457230), wk =   0.0625000
        k(    7) = (   0.1207085   0.3506412  -0.6432917), wk =   0.0625000
        k(    8) = (   0.1184282   0.3493160  -0.3469535), wk =   0.0625000
        k(    9) = (   0.1229889  -0.4895380   0.2475615), wk =   0.0625000
        k(   10) = (   0.1207086  -0.4908632   0.5438998), wk =   0.0625000
        k(   11) = (   0.1275494  -0.4868876  -0.3451149), wk =   0.0625000
        k(   12) = (   0.1252692  -0.4882128  -0.0487767), wk =   0.0625000
        k(   13) = (   0.1207086  -0.2103617   0.1481693), wk =   0.0625000
        k(   14) = (   0.1184283  -0.2116870   0.4445075), wk =   0.0625000
        k(   15) = (   0.1252691  -0.2077113  -0.4445072), wk =   0.0625000
        k(   16) = (   0.1229888  -0.2090365  -0.1481690), wk =   0.0625000
        k(   17) = (   0.3598453  -0.0714075  -0.0506149), wk =   0.0625000
        k(   18) = (   0.3575651  -0.0727327   0.2457233), wk =   0.0625000
        k(   19) = (   0.3644059  -0.0687571  -0.6432914), wk =   0.0625000
        k(   20) = (   0.3621256  -0.0700823  -0.3469532), wk =   0.0625000
        k(   21) = (   0.3575650   0.2077687  -0.1500072), wk =   0.0625000
        k(   22) = (   0.3552847   0.2064435   0.1463310), wk =   0.0625000
        k(   23) = (   0.3621256   0.2104191  -0.7426837), wk =   0.0625000
        k(   24) = (   0.3598453   0.2090939  -0.4463454), wk =   0.0625000
        k(   25) = (   0.3644060  -0.6297600   0.1481696), wk =   0.0625000
        k(   26) = (   0.3621257  -0.6310852   0.4445078), wk =   0.0625000
        k(   27) = (   0.3689665  -0.6271096  -0.4445069), wk =   0.0625000
        k(   28) = (   0.3666862  -0.6284348  -0.1481687), wk =   0.0625000
        k(   29) = (   0.3621256  -0.3505838   0.0487773), wk =   0.0625000
        k(   30) = (   0.3598454  -0.3519090   0.3451155), wk =   0.0625000
        k(   31) = (   0.3666862  -0.3479334  -0.5438991), wk =   0.0625000
        k(   32) = (   0.3644059  -0.3492586  -0.2475609), wk =   0.0625000
     extrapolated charge   10.29434, renormalised to   10.00000

     total cpu time spent up to now is     18.30 secs

     per-process dynamical memory:     5.7 Mb

     Self-consistent Calculation

     iteration #  1     ecut=    25.00 Ry     beta=0.70
     Davidson diagonalization with overlap
     ethr =  1.00E-06,  avg # of iterations =  4.0

     total cpu time spent up to now is     19.26 secs

     total energy              =     -25.49860680 Ry
     Harris-Foulkes estimate   =     -25.67291126 Ry
     estimated scf accuracy    <       0.00037357 Ry

     iteration #  2     ecut=    25.00 Ry     beta=0.70
     Davidson diagonalization with overlap
     ethr =  3.74E-06,  avg # of iterations =  3.0

     total cpu time spent up to now is     20.04 secs

     total energy              =     -25.49926223 Ry
     Harris-Foulkes estimate   =     -25.49939096 Ry
     estimated scf accuracy    <       0.00031738 Ry

     iteration #  3     ecut=    25.00 Ry     beta=0.70
     Davidson diagonalization with overlap
     ethr =  3.17E-06,  avg # of iterations =  1.0

     total cpu time spent up to now is     20.50 secs

     total energy              =     -25.49925822 Ry
     Harris-Foulkes estimate   =     -25.49927996 Ry
     estimated scf accuracy    <       0.00006027 Ry

     iteration #  4     ecut=    25.00 Ry     beta=0.70
     Davidson diagonalization with overlap
     ethr =  6.03E-07,  avg # of iterations =  1.0

     total cpu time spent up to now is     20.97 secs

     total energy              =     -25.49925373 Ry
     Harris-Foulkes estimate   =     -25.49926102 Ry
     estimated scf accuracy    <       0.00001532 Ry

     iteration #  5     ecut=    25.00 Ry     beta=0.70
     Davidson diagonalization with overlap
     ethr =  1.53E-07,  avg # of iterations =  2.3

     total cpu time spent up to now is     21.50 secs

     total energy              =     -25.49925601 Ry
     Harris-Foulkes estimate   =     -25.49925629 Ry
     estimated scf accuracy    <       0.00000062 Ry

     iteration #  6     ecut=    25.00 Ry     beta=0.70
     Davidson diagonalization with overlap
     ethr =  6.17E-09,  avg # of iterations =  2.4

     total cpu time spent up to now is     22.06 secs

     End of self-consistent calculation

          k = 0.1184 0.0688 0.0488 (   531 PWs)   bands (ev):

    -7.0800   1.9608   5.6241   5.6241   6.7008  10.0624  10.6487  10.6487
    14.5804

          k = 0.1161 0.0675 0.3451 (   522 PWs)   bands (ev):

    -6.0528  -0.7722   4.1345   5.7091   8.1011   8.4363   9.1543  12.0674
    13.9787

          k = 0.1230 0.0715-0.5439 (   520 PWs)   bands (ev):

    -4.5357  -3.1397   4.7437   4.7854   6.3292   9.4363   9.8008  10.7088
    15.9217

          k = 0.1207 0.0701-0.2476 (   525 PWs)   bands (ev):

    -6.5065   0.2635   4.7516   5.4765   6.8589   9.6203  10.3188  11.6422
    13.6140

          k = 0.1161 0.3480-0.0506 (   522 PWs)   bands (ev):

    -6.0528  -0.7722   4.1345   5.7090   8.1010   8.4363   9.1543  12.0674
    13.9787

          k = 0.1139 0.3467 0.2457 (   519 PWs)   bands (ev):

    -5.6697  -0.4852   3.0233   4.0420   5.4460  10.2181  12.0459  12.1482
    13.8865

          k = 0.1207 0.3506-0.6433 (   510 PWs)   bands (ev):

    -4.0834  -2.5085   1.9050   2.9671   6.3238  10.0018  12.5503  13.8879
    14.2305

          k = 0.1184 0.3493-0.3470 (   521 PWs)   bands (ev):

    -4.9618  -2.1358   2.8628   4.8997   6.2859   9.6194  11.3172  12.2904
    13.8293

          k = 0.1230-0.4895 0.2476 (   520 PWs)   bands (ev):

    -4.5357  -3.1397   4.7437   4.7854   6.3292   9.4363   9.8008  10.7088
    15.9217

          k = 0.1207-0.4909 0.5439 (   510 PWs)   bands (ev):

    -4.0834  -2.5085   1.9050   2.9671   6.3238  10.0018  12.5503  13.8879
    14.2305

          k = 0.1275-0.4869-0.3451 (   510 PWs)   bands (ev):

    -4.4139  -1.8310   1.9616   3.5133   4.2718   9.8639  13.1648  14.5054
    15.1736

          k = 0.1253-0.4882-0.0488 (   521 PWs)   bands (ev):

    -4.9618  -2.1358   2.8628   4.8997   6.2859   9.6194  11.3172  12.2904
    13.8293

          k = 0.1207-0.2104 0.1482 (   525 PWs)   bands (ev):

    -6.5065   0.2635   4.7516   5.4765   6.8589   9.6203  10.3188  11.6422
    13.6140

          k = 0.1184-0.2117 0.4445 (   521 PWs)   bands (ev):

    -4.9618  -2.1358   2.8628   4.8997   6.2859   9.6194  11.3172  12.2904
    13.8293

          k = 0.1253-0.2077-0.4445 (   521 PWs)   bands (ev):

    -4.9618  -2.1358   2.8628   4.8997   6.2859   9.6194  11.3172  12.2904
    13.8293

          k = 0.1230-0.2090-0.1482 (   525 PWs)   bands (ev):

    -6.5065   0.2635   4.7516   5.4765   6.8589   9.6203  10.3188  11.6422
    13.6140

          k = 0.3598-0.0714-0.0506 (   522 PWs)   bands (ev):

    -6.0528  -0.7722   4.1345   5.7091   8.1011   8.4363   9.1543  12.0674
    13.9787

          k = 0.3576-0.0727 0.2457 (   519 PWs)   bands (ev):

    -5.6697  -0.4852   3.0233   4.0420   5.4460  10.2181  12.0459  12.1482
    13.8865

          k = 0.3644-0.0688-0.6433 (   510 PWs)   bands (ev):

    -4.0834  -2.5085   1.9050   2.9671   6.3238  10.0018  12.5503  13.8879
    14.2305

          k = 0.3621-0.0701-0.3470 (   521 PWs)   bands (ev):

    -4.9618  -2.1358   2.8628   4.8997   6.2859   9.6194  11.3172  12.2904
    13.8293

          k = 0.3576 0.2078-0.1500 (   519 PWs)   bands (ev):

    -5.6697  -0.4852   3.0233   4.0420   5.4460  10.2181  12.0459  12.1482
    13.8865

          k = 0.3553 0.2064 0.1463 (   522 PWs)   bands (ev):

    -5.8507  -1.3896   5.7845   5.7845   6.9824   8.5411   8.5411   9.6922
    15.8639

          k = 0.3621 0.2104-0.7427 (   520 PWs)   bands (ev):

    -4.8308  -1.9495   2.1473   4.6371   5.9957  10.1345  10.4358  13.2714
    15.3981

          k = 0.3598 0.2091-0.4463 (   510 PWs)   bands (ev):

    -4.4139  -1.8310   1.9616   3.5133   4.2718   9.8639  13.1648  14.5054
    15.1736

          k = 0.3644-0.6298 0.1482 (   510 PWs)   bands (ev):

    -4.0834  -2.5085   1.9050   2.9671   6.3238  10.0018  12.5503  13.8879
    14.2305

          k = 0.3621-0.6311 0.4445 (   520 PWs)   bands (ev):

    -4.8308  -1.9495   2.1473   4.6371   5.9957  10.1345  10.4358  13.2714
    15.3981

          k = 0.3690-0.6271-0.4445 (   520 PWs)   bands (ev):

    -4.8308  -1.9495   2.1473   4.6371   5.9957  10.1345  10.4358  13.2714
    15.3981

          k = 0.3667-0.6284-0.1482 (   510 PWs)   bands (ev):

    -4.0834  -2.5085   1.9050   2.9671   6.3238  10.0018  12.5503  13.8879
    14.2305

          k = 0.3621-0.3506 0.0488 (   521 PWs)   bands (ev):

    -4.9618  -2.1358   2.8628   4.8997   6.2859   9.6194  11.3172  12.2904
    13.8293

          k = 0.3598-0.3519 0.3451 (   510 PWs)   bands (ev):

    -4.4139  -1.8310   1.9616   3.5133   4.2718   9.8639  13.1648  14.5054
    15.1736

          k = 0.3667-0.3479-0.5439 (   510 PWs)   bands (ev):

    -4.0834  -2.5085   1.9050   2.9671   6.3238  10.0018  12.5503  13.8879
    14.2305

          k = 0.3644-0.3493-0.2476 (   520 PWs)   bands (ev):

    -4.5357  -3.1397   4.7437   4.7854   6.3292   9.4363   9.8008  10.7088
    15.9217

     the Fermi energy is     8.1583 ev

!    total energy              =     -25.49925624 Ry
     Harris-Foulkes estimate   =     -25.49925625 Ry
     estimated scf accuracy    <       0.00000004 Ry

     The total energy is the sum of the following terms:

     one-electron contribution =       6.94778956 Ry
     hartree contribution      =       1.18241947 Ry
     xc contribution           =      -6.32414448 Ry
     ewald contribution        =     -27.30534797 Ry
     smearing contrib. (-TS)   =       0.00002718 Ry

     convergence has been achieved in   6 iterations

     Forces acting on atoms (Ry/au):

     atom   1 type  1   force =    -0.00463646   -0.00269403   -0.00190960
     atom   2 type  1   force =     0.00463646    0.00269403    0.00190960

     Total force =     0.008050     Total SCF correction =     0.000050


     entering subroutine stress ...

          total   stress  (Ry/bohr**3)                   (kbar)     P=    7.57
   0.00008354   0.00003746   0.00002655         12.29      5.51      3.91
   0.00003746   0.00004085   0.00001543          5.51      6.01      2.27
   0.00002655   0.00001543   0.00003002          3.91      2.27      4.42


     number of scf cycles    =   5
     number of bfgs steps    =   4

     enthalpy old            =     -25.4977455952 Ry
     enthalpy new            =     -25.4992562374 Ry

     CASE: enthalpy_new < enthalpy_old

     new trust radius        =       0.0266729929 bohr
     new conv_thr            =       0.0000000464 Ry

     new unit-cell volume =    273.39930 a.u.^3 (    40.51360 Ang^3 )

CELL_PARAMETERS (alat=  7.01033623)
   1.048521121   0.013634020   0.009663902
   0.531046283   0.904196350   0.009664641
   0.531046155   0.308572709   0.849969500

ATOMIC_POSITIONS (crystal)
As       0.272031437   0.272031724   0.272031606
As      -0.272031437  -0.272031724  -0.272031606



     Writing output data file pwscf.save
     NEW-OLD atomic charge density approx. for the potential
     NEW k-points:
        k(    1) = (   0.1178774   0.0684944   0.0485501), wk =   0.0625000
        k(    2) = (   0.1151661   0.0669188   0.3449443), wk =   0.0625000
        k(    3) = (   0.1233000   0.0716458  -0.5442383), wk =   0.0625000
        k(    4) = (   0.1205887   0.0700701  -0.2478441), wk =   0.0625000
        k(    5) = (   0.1151661   0.3476406  -0.0510970), wk =   0.0625000
        k(    6) = (   0.1124548   0.3460649   0.2452972), wk =   0.0625000
        k(    7) = (   0.1205886   0.3507919  -0.6438854), wk =   0.0625000
        k(    8) = (   0.1178774   0.3492162  -0.3474912), wk =   0.0625000
        k(    9) = (   0.1233001  -0.4897978   0.2478444), wk =   0.0625000
        k(   10) = (   0.1205888  -0.4913735   0.5442386), wk =   0.0625000
        k(   11) = (   0.1287227  -0.4866464  -0.3449440), wk =   0.0625000
        k(   12) = (   0.1260114  -0.4882221  -0.0485498), wk =   0.0625000
        k(   13) = (   0.1205888  -0.2106517   0.1481973), wk =   0.0625000
        k(   14) = (   0.1178775  -0.2122274   0.4445915), wk =   0.0625000
        k(   15) = (   0.1260113  -0.2075003  -0.4445911), wk =   0.0625000
        k(   16) = (   0.1233001  -0.2090760  -0.1481969), wk =   0.0625000
        k(   17) = (   0.3590549  -0.0720871  -0.0510966), wk =   0.0625000
        k(   18) = (   0.3563436  -0.0736628   0.2452976), wk =   0.0625000
        k(   19) = (   0.3644775  -0.0689358  -0.6438850), wk =   0.0625000
        k(   20) = (   0.3617662  -0.0705115  -0.3474908), wk =   0.0625000
        k(   21) = (   0.3563435   0.2070590  -0.1507438), wk =   0.0625000
        k(   22) = (   0.3536323   0.2054833   0.1456504), wk =   0.0625000
        k(   23) = (   0.3617661   0.2102103  -0.7435322), wk =   0.0625000
        k(   24) = (   0.3590548   0.2086347  -0.4471380), wk =   0.0625000
        k(   25) = (   0.3644776  -0.6303794   0.1481976), wk =   0.0625000
        k(   26) = (   0.3617663  -0.6319551   0.4445918), wk =   0.0625000
        k(   27) = (   0.3699002  -0.6272280  -0.4445908), wk =   0.0625000
        k(   28) = (   0.3671889  -0.6288037  -0.1481966), wk =   0.0625000
        k(   29) = (   0.3617662  -0.3512333   0.0485505), wk =   0.0625000
        k(   30) = (   0.3590549  -0.3528089   0.3449447), wk =   0.0625000
        k(   31) = (   0.3671888  -0.3480819  -0.5442379), wk =   0.0625000
        k(   32) = (   0.3644775  -0.3496576  -0.2478437), wk =   0.0625000
     extrapolated charge   10.03087, renormalised to   10.00000

     total cpu time spent up to now is     22.40 secs

     per-process dynamical memory:     5.7 Mb

     Self-consistent Calculation

     iteration #  1     ecut=    25.00 Ry     beta=0.70
     Davidson diagonalization with overlap
     ethr =  1.00E-06,  avg # of iterations =  3.7

     Threshold (ethr) on eigenvalues was too large:
     Diagonalizing with lowered threshold

     Davidson diagonalization with overlap
     ethr =  9.94E-08,  avg # of iterations =  1.0

     total cpu time spent up to now is     23.76 secs

     total energy              =     -25.49944609 Ry
     Harris-Foulkes estimate   =     -25.51761981 Ry
     estimated scf accuracy    <       0.00000993 Ry

     iteration #  2     ecut=    25.00 Ry     beta=0.70
     Davidson diagonalization with overlap
     ethr =  9.93E-08,  avg # of iterations =  2.9

     total cpu time spent up to now is     24.37 secs

     total energy              =     -25.49945306 Ry
     Harris-Foulkes estimate   =     -25.49945393 Ry
     estimated scf accuracy    <       0.00000200 Ry

     iteration #  3     ecut=    25.00 Ry     beta=0.70
     Davidson diagonalization with overlap
     ethr =  2.00E-08,  avg # of iterations =  1.1

     total cpu time spent up to now is     24.84 secs

     total energy              =     -25.49945314 Ry
     Harris-Foulkes estimate   =     -25.49945321 Ry
     estimated scf accuracy    <       0.00000019 Ry

     iteration #  4     ecut=    25.00 Ry     beta=0.70
     Davidson diagonalization with overlap
     ethr =  1.90E-09,  avg # of iterations =  1.9

     total cpu time spent up to now is     25.33 secs

     End of self-consistent calculation

          k = 0.1179 0.0685 0.0486 (   531 PWs)   bands (ev):

    -7.0804   1.8677   5.6433   5.6433   6.6222  10.0757  10.6196  10.6196
    14.5406

          k = 0.1152 0.0669 0.3449 (   522 PWs)   bands (ev):

    -6.0533  -0.8082   4.0832   5.7426   8.0871   8.3765   9.0680  11.9882
    13.9736

          k = 0.1233 0.0716-0.5442 (   520 PWs)   bands (ev):

    -4.5303  -3.1582   4.6819   4.8101   6.2870   9.4009   9.7026  10.5648
    15.7993

          k = 0.1206 0.0701-0.2478 (   525 PWs)   bands (ev):

    -6.5061   0.2378   4.7702   5.4072   6.8039   9.5066  10.3265  11.5552
    13.5296

          k = 0.1152 0.3476-0.0511 (   522 PWs)   bands (ev):

    -6.0533  -0.8082   4.0832   5.7426   8.0871   8.3765   9.0680  11.9882
    13.9736

          k = 0.1125 0.3461 0.2453 (   519 PWs)   bands (ev):

    -5.6714  -0.5510   3.0265   4.0629   5.3698  10.2539  12.0135  12.1083
    13.7921

          k = 0.1206 0.3508-0.6439 (   510 PWs)   bands (ev):

    -4.0845  -2.5267   1.8965   2.9213   6.2702   9.9576  12.5548  13.8331
    14.1235

          k = 0.1179 0.3492-0.3475 (   521 PWs)   bands (ev):

    -4.9621  -2.1478   2.8691   4.8344   6.2288   9.4988  11.2552  12.2754
    13.7780

          k = 0.1233-0.4898 0.2478 (   520 PWs)   bands (ev):

    -4.5303  -3.1582   4.6819   4.8101   6.2870   9.4009   9.7026  10.5648
    15.7993

          k = 0.1206-0.4914 0.5442 (   510 PWs)   bands (ev):

    -4.0845  -2.5267   1.8965   2.9213   6.2702   9.9576  12.5548  13.8331
    14.1235

          k = 0.1287-0.4866-0.3449 (   510 PWs)   bands (ev):

    -4.4190  -1.8365   1.9010   3.5334   4.2038   9.8778  13.0690  14.3774
    15.0639

          k = 0.1260-0.4882-0.0485 (   521 PWs)   bands (ev):

    -4.9621  -2.1478   2.8691   4.8344   6.2288   9.4988  11.2552  12.2755
    13.7780

          k = 0.1206-0.2107 0.1482 (   525 PWs)   bands (ev):

    -6.5061   0.2378   4.7702   5.4072   6.8039   9.5066  10.3265  11.5552
    13.5296

          k = 0.1179-0.2122 0.4446 (   521 PWs)   bands (ev):

    -4.9621  -2.1478   2.8691   4.8344   6.2288   9.4988  11.2552  12.2754
    13.7780

          k = 0.1260-0.2075-0.4446 (   521 PWs)   bands (ev):

    -4.9621  -2.1478   2.8691   4.8344   6.2288   9.4988  11.2553  12.2755
    13.7780

          k = 0.1233-0.2091-0.1482 (   525 PWs)   bands (ev):

    -6.5061   0.2378   4.7702   5.4072   6.8039   9.5066  10.3265  11.5552
    13.5296

          k = 0.3591-0.0721-0.0511 (   522 PWs)   bands (ev):

    -6.0533  -0.8082   4.0832   5.7427   8.0871   8.3765   9.0680  11.9882
    13.9736

          k = 0.3563-0.0737 0.2453 (   519 PWs)   bands (ev):

    -5.6714  -0.5511   3.0265   4.0629   5.3698  10.2539  12.0136  12.1083
    13.7921

          k = 0.3645-0.0689-0.6439 (   510 PWs)   bands (ev):

    -4.0845  -2.5267   1.8965   2.9213   6.2702   9.9576  12.5547  13.8331
    14.1235

          k = 0.3618-0.0705-0.3475 (   521 PWs)   bands (ev):

    -4.9621  -2.1478   2.8691   4.8344   6.2288   9.4988  11.2553  12.2755
    13.7780

          k = 0.3563 0.2071-0.1507 (   519 PWs)   bands (ev):

    -5.6714  -0.5510   3.0265   4.0629   5.3698  10.2539  12.0136  12.1083
    13.7921

          k = 0.3536 0.2055 0.1457 (   522 PWs)   bands (ev):

    -5.8498  -1.4882   5.8189   5.8189   7.0246   8.5080   8.5080   9.6381
    15.8149

          k = 0.3618 0.2102-0.7435 (   520 PWs)   bands (ev):

    -4.8246  -2.0312   2.1556   4.6609   5.9623  10.0872  10.4360  13.2576
    15.3161

          k = 0.3591 0.2086-0.4471 (   510 PWs)   bands (ev):

    -4.4189  -1.8365   1.9010   3.5334   4.2038   9.8778  13.0690  14.3774
    15.0639

          k = 0.3645-0.6304 0.1482 (   510 PWs)   bands (ev):

    -4.0845  -2.5267   1.8965   2.9213   6.2702   9.9576  12.5547  13.8331
    14.1235

          k = 0.3618-0.6320 0.4446 (   520 PWs)   bands (ev):

    -4.8246  -2.0312   2.1556   4.6609   5.9623  10.0872  10.4360  13.2576
    15.3161

          k = 0.3699-0.6272-0.4446 (   520 PWs)   bands (ev):

    -4.8246  -2.0312   2.1556   4.6609   5.9623  10.0872  10.4360  13.2576
    15.3161

          k = 0.3672-0.6288-0.1482 (   510 PWs)   bands (ev):

    -4.0845  -2.5267   1.8965   2.9213   6.2702   9.9576  12.5548  13.8331
    14.1235

          k = 0.3618-0.3512 0.0486 (   521 PWs)   bands (ev):

    -4.9621  -2.1478   2.8691   4.8344   6.2288   9.4988  11.2553  12.2755
    13.7780

          k = 0.3591-0.3528 0.3449 (   510 PWs)   bands (ev):

    -4.4189  -1.8365   1.9010   3.5334   4.2038   9.8778  13.0690  14.3774
    15.0639

          k = 0.3672-0.3481-0.5442 (   510 PWs)   bands (ev):

    -4.0845  -2.5267   1.8965   2.9213   6.2702   9.9576  12.5548  13.8331
    14.1235

          k = 0.3645-0.3497-0.2478 (   520 PWs)   bands (ev):

    -4.5303  -3.1582   4.6819   4.8101   6.2870   9.4009   9.7026  10.5648
    15.7993

     the Fermi energy is     8.1444 ev

!    total energy              =     -25.49945316 Ry
     Harris-Foulkes estimate   =     -25.49945317 Ry
     estimated scf accuracy    <       0.00000002 Ry

     The total energy is the sum of the following terms:

     one-electron contribution =       6.93063474 Ry
     hartree contribution      =       1.17922292 Ry
     xc contribution           =      -6.31839861 Ry
     ewald contribution        =     -27.29093943 Ry
     smearing contrib. (-TS)   =       0.00002721 Ry

     convergence has been achieved in   4 iterations

     Forces acting on atoms (Ry/au):

     atom   1 type  1   force =    -0.00015329   -0.00008899   -0.00006310
     atom   2 type  1   force =     0.00015329    0.00008899    0.00006310

     Total force =     0.000266     Total SCF correction =     0.000080
     SCF correction compared to forces is too large, reduce conv_thr


     entering subroutine stress ...

          total   stress  (Ry/bohr**3)                   (kbar)     P=    2.09
   0.00003429   0.00002348   0.00001664          5.04      3.45      2.45
   0.00002348   0.00000753   0.00000967          3.45      1.11      1.42
   0.00001664   0.00000967   0.00000074          2.45      1.42      0.11


     number of scf cycles    =   6
     number of bfgs steps    =   5

     enthalpy old            =     -25.4992562374 Ry
     enthalpy new            =     -25.4994531607 Ry

     CASE: enthalpy_new < enthalpy_old

     new trust radius        =       0.0112956651 bohr
     new conv_thr            =       0.0000000100 Ry

     new unit-cell volume =    273.57468 a.u.^3 (    40.53958 Ang^3 )

CELL_PARAMETERS (alat=  7.01033623)
   1.050040174   0.015113805   0.010712748
   0.533084109   0.904783374   0.010713599
   0.533083937   0.309756907   0.850175994

ATOMIC_POSITIONS (crystal)
As       0.271793917   0.271794232   0.271794104
As      -0.271793917  -0.271794232  -0.271794104



     Writing output data file pwscf.save
     NEW-OLD atomic charge density approx. for the potential
     NEW k-points:
        k(    1) = (   0.1175658   0.0683133   0.0484218), wk =   0.0625000
        k(    2) = (   0.1145652   0.0665695   0.3449954), wk =   0.0625000
        k(    3) = (   0.1235670   0.0718010  -0.5447254), wk =   0.0625000
        k(    4) = (   0.1205664   0.0700572  -0.2481518), wk =   0.0625000
        k(    5) = (   0.1145651   0.3475730  -0.0514434), wk =   0.0625000
        k(    6) = (   0.1115645   0.3458292   0.2451302), wk =   0.0625000
        k(    7) = (   0.1205663   0.3510607  -0.6445906), wk =   0.0625000
        k(    8) = (   0.1175657   0.3493169  -0.3480170), wk =   0.0625000
        k(    9) = (   0.1235672  -0.4902061   0.2481522), wk =   0.0625000
        k(   10) = (   0.1205666  -0.4919499   0.5447258), wk =   0.0625000
        k(   11) = (   0.1295684  -0.4867184  -0.3449950), wk =   0.0625000
        k(   12) = (   0.1265678  -0.4884622  -0.0484214), wk =   0.0625000
        k(   13) = (   0.1205665  -0.2109464   0.1482870), wk =   0.0625000
        k(   14) = (   0.1175659  -0.2126902   0.4448606), wk =   0.0625000
        k(   15) = (   0.1265677  -0.2074587  -0.4448602), wk =   0.0625000
        k(   16) = (   0.1235671  -0.2092025  -0.1482866), wk =   0.0625000
        k(   17) = (   0.3586987  -0.0725758  -0.0514430), wk =   0.0625000
        k(   18) = (   0.3556980  -0.0743197   0.2451306), wk =   0.0625000
        k(   19) = (   0.3646999  -0.0690882  -0.6445902), wk =   0.0625000
        k(   20) = (   0.3616993  -0.0708320  -0.3480166), wk =   0.0625000
        k(   21) = (   0.3556980   0.2066839  -0.1513082), wk =   0.0625000
        k(   22) = (   0.3526973   0.2049400   0.1452654), wk =   0.0625000
        k(   23) = (   0.3616992   0.2101715  -0.7444554), wk =   0.0625000
        k(   24) = (   0.3586986   0.2084277  -0.4478818), wk =   0.0625000
        k(   25) = (   0.3647000  -0.6310952   0.1482874), wk =   0.0625000
        k(   26) = (   0.3616994  -0.6328391   0.4448610), wk =   0.0625000
        k(   27) = (   0.3707013  -0.6276076  -0.4448598), wk =   0.0625000
        k(   28) = (   0.3677006  -0.6293514  -0.1482862), wk =   0.0625000
        k(   29) = (   0.3616993  -0.3518355   0.0484222), wk =   0.0625000
        k(   30) = (   0.3586987  -0.3535794   0.3449958), wk =   0.0625000
        k(   31) = (   0.3677006  -0.3483479  -0.5447250), wk =   0.0625000
        k(   32) = (   0.3647000  -0.3500917  -0.2481514), wk =   0.0625000
     extrapolated charge   10.00641, renormalised to   10.00000

     total cpu time spent up to now is     25.68 secs

     per-process dynamical memory:     5.7 Mb

     Self-consistent Calculation

     iteration #  1     ecut=    25.00 Ry     beta=0.70
     Davidson diagonalization with overlap
     ethr =  1.00E-06,  avg # of iterations =  3.0

     Threshold (ethr) on eigenvalues was too large:
     Diagonalizing with lowered threshold

     Davidson diagonalization with overlap
     ethr =  5.27E-09,  avg # of iterations =  1.8

     total cpu time spent up to now is     26.89 secs

     total energy              =     -25.49948150 Ry
     Harris-Foulkes estimate   =     -25.50325228 Ry
     estimated scf accuracy    <       0.00000051 Ry

     iteration #  2     ecut=    25.00 Ry     beta=0.70
     Davidson diagonalization with overlap
     ethr =  5.14E-09,  avg # of iterations =  2.1

     total cpu time spent up to now is     27.47 secs

     total energy              =     -25.49948178 Ry
     Harris-Foulkes estimate   =     -25.49948181 Ry
     estimated scf accuracy    <       0.00000009 Ry

     iteration #  3     ecut=    25.00 Ry     beta=0.70
     Davidson diagonalization with overlap
     ethr =  9.01E-10,  avg # of iterations =  1.0

     total cpu time spent up to now is     27.93 secs

     End of self-consistent calculation

          k = 0.1176 0.0683 0.0484 (   531 PWs)   bands (ev):

    -7.0816   1.8396   5.6595   5.6595   6.5968  10.0832  10.6158  10.6158
    14.5427

          k = 0.1146 0.0666 0.3450 (   522 PWs)   bands (ev):

    -6.0545  -0.8131   4.0605   5.7559   8.0944   8.3642   9.0544  11.9637
    13.9825

          k = 0.1236 0.0718-0.5447 (   520 PWs)   bands (ev):

    -4.5265  -3.1602   4.6560   4.8212   6.2812   9.3931   9.6803  10.5098
    15.7464

          k = 0.1206 0.0701-0.2482 (   525 PWs)   bands (ev):

    -6.5054   0.2366   4.7839   5.3817   6.7833   9.4736  10.3294  11.5312
    13.5069

          k = 0.1146 0.3476-0.0514 (   522 PWs)   bands (ev):

    -6.0545  -0.8131   4.0605   5.7559   8.0944   8.3642   9.0543  11.9637
    13.9825

          k = 0.1116 0.3458 0.2451 (   519 PWs)   bands (ev):

    -5.6743  -0.5692   3.0274   4.0800   5.3533  10.2716  12.0170  12.1059
    13.7781

          k = 0.1206 0.3511-0.6446 (   510 PWs)   bands (ev):

    -4.0859  -2.5270   1.8973   2.9056   6.2552   9.9560  12.5653  13.8172
    14.0939

          k = 0.1176 0.3493-0.3480 (   521 PWs)   bands (ev):

    -4.9601  -2.1468   2.8713   4.8179   6.2031   9.4612  11.2417  12.2778
    13.7683

          k = 0.1236-0.4902 0.2482 (   520 PWs)   bands (ev):

    -4.5265  -3.1602   4.6560   4.8212   6.2812   9.3931   9.6803  10.5098
    15.7464

          k = 0.1206-0.4919 0.5447 (   510 PWs)   bands (ev):

    -4.0859  -2.5270   1.8973   2.9056   6.2552   9.9560  12.5652  13.8172
    14.0939

          k = 0.1296-0.4867-0.3450 (   510 PWs)   bands (ev):

    -4.4194  -1.8378   1.8857   3.5488   4.1828   9.8806  13.0425  14.3465
    15.0314

          k = 0.1266-0.4885-0.0484 (   521 PWs)   bands (ev):

    -4.9602  -2.1468   2.8713   4.8179   6.2031   9.4612  11.2417  12.2778
    13.7683

          k = 0.1206-0.2109 0.1483 (   525 PWs)   bands (ev):

    -6.5054   0.2366   4.7838   5.3817   6.7833   9.4736  10.3294  11.5312
    13.5069

          k = 0.1176-0.2127 0.4449 (   521 PWs)   bands (ev):

    -4.9601  -2.1468   2.8713   4.8179   6.2031   9.4612  11.2417  12.2778
    13.7683

          k = 0.1266-0.2075-0.4449 (   521 PWs)   bands (ev):

    -4.9602  -2.1468   2.8713   4.8179   6.2031   9.4612  11.2417  12.2778
    13.7683

          k = 0.1236-0.2092-0.1483 (   525 PWs)   bands (ev):

    -6.5054   0.2366   4.7839   5.3817   6.7833   9.4736  10.3294  11.5312
    13.5069

          k = 0.3587-0.0726-0.0514 (   522 PWs)   bands (ev):

    -6.0545  -0.8132   4.0605   5.7559   8.0944   8.3642   9.0544  11.9637
    13.9825

          k = 0.3557-0.0743 0.2451 (   519 PWs)   bands (ev):

    -5.6743  -0.5692   3.0275   4.0800   5.3533  10.2716  12.0170  12.1059
    13.7781

          k = 0.3647-0.0691-0.6446 (   510 PWs)   bands (ev):

[...]

     total energy              =     -25.49949637 Ry
     Harris-Foulkes estimate   =     -25.49949641 Ry
     estimated scf accuracy    <       0.00000009 Ry

     iteration #  4     ecut=    25.00 Ry     beta=0.70
     Davidson diagonalization with overlap
     ethr =  8.76E-10,  avg # of iterations =  1.1

     total cpu time spent up to now is     31.07 secs

     End of self-consistent calculation

          k = 0.1173 0.0682 0.0483 (   531 PWs)   bands (ev):

    -7.0890   1.8181   5.6587   5.6587   6.5769  10.0682  10.6038  10.6038
    14.5440

          k = 0.1141 0.0663 0.3450 (   522 PWs)   bands (ev):

    -6.0630  -0.8206   4.0394   5.7459   8.0910   8.3509   9.0530  11.9419
    13.9779

          k = 0.1237 0.0719-0.5450 (   520 PWs)   bands (ev):

    -4.5333  -3.1664   4.6341   4.8133   6.2738   9.3768   9.6719  10.4747
    15.7078

          k = 0.1205 0.0700-0.2483 (   525 PWs)   bands (ev):

    -6.5114   0.2275   4.7814   5.3614   6.7617   9.4550  10.3124  11.5133
    13.4935

          k = 0.1141 0.3475-0.0517 (   522 PWs)   bands (ev):

    -6.0630  -0.8206   4.0394   5.7459   8.0910   8.3509   9.0530  11.9419
    13.9780

          k = 0.1109 0.3456 0.2450 (   519 PWs)   bands (ev):

    -5.6853  -0.5834   3.0167   4.0822   5.3476  10.2644  12.0100  12.0968
    13.7751

          k = 0.1205 0.3512-0.6450 (   510 PWs)   bands (ev):

    -4.0978  -2.5331   1.8931   2.8930   6.2410   9.9513  12.5593  13.7950
    14.0734

          k = 0.1173 0.3493-0.3483 (   521 PWs)   bands (ev):

    -4.9663  -2.1542   2.8620   4.8090   6.1766   9.4411  11.2264  12.2660
    13.7568

          k = 0.1237-0.4904 0.2483 (   520 PWs)   bands (ev):

    -4.5333  -3.1664   4.6341   4.8133   6.2738   9.3768   9.6719  10.4747
    15.7079

          k = 0.1205-0.4923 0.5450 (   510 PWs)   bands (ev):

    -4.0978  -2.5331   1.8931   2.8930   6.2410   9.9513  12.5593  13.7950
    14.0735

          k = 0.1301-0.4867-0.3450 (   510 PWs)   bands (ev):

    -4.4282  -1.8508   1.8794   3.5497   4.1697   9.8650  13.0223  14.3324
    15.0046

          k = 0.1269-0.4886-0.0483 (   521 PWs)   bands (ev):

    -4.9663  -2.1542   2.8620   4.8090   6.1766   9.4411  11.2264  12.2660
    13.7568

          k = 0.1205-0.2111 0.1483 (   525 PWs)   bands (ev):

    -6.5114   0.2276   4.7814   5.3614   6.7617   9.4550  10.3124  11.5133
    13.4935

          k = 0.1173-0.2130 0.4450 (   521 PWs)   bands (ev):

    -4.9663  -2.1542   2.8620   4.8090   6.1766   9.4411  11.2264  12.2660
    13.7568

          k = 0.1269-0.2074-0.4450 (   521 PWs)   bands (ev):

    -4.9663  -2.1542   2.8620   4.8090   6.1766   9.4411  11.2264  12.2660
    13.7568

          k = 0.1237-0.2093-0.1483 (   525 PWs)   bands (ev):

    -6.5114   0.2275   4.7815   5.3614   6.7617   9.4550  10.3124  11.5133
    13.4935

          k = 0.3584-0.0729-0.0517 (   522 PWs)   bands (ev):

    -6.0630  -0.8206   4.0394   5.7459   8.0911   8.3510   9.0530  11.9419
    13.9779

          k = 0.3552-0.0748 0.2450 (   519 PWs)   bands (ev):

    -5.6853  -0.5834   3.0167   4.0822   5.3476  10.2644  12.0101  12.0968
    13.7751

          k = 0.3648-0.0692-0.6450 (   510 PWs)   bands (ev):

    -4.0978  -2.5331   1.8931   2.8930   6.2410   9.9513  12.5593  13.7950
    14.0735

          k = 0.3616-0.0710-0.3483 (   521 PWs)   bands (ev):

    -4.9663  -2.1542   2.8620   4.8090   6.1766   9.4411  11.2264  12.2660
    13.7568

          k = 0.3552 0.2064-0.1517 (   519 PWs)   bands (ev):

    -5.6853  -0.5834   3.0167   4.0822   5.3476  10.2644  12.0101  12.0968
    13.7751

          k = 0.3520 0.2045 0.1450 (   522 PWs)   bands (ev):

    -5.8711  -1.5342   5.8394   5.8394   7.0597   8.5140   8.5141   9.6400
    15.7805

          k = 0.3616 0.2101-0.7450 (   520 PWs)   bands (ev):

    -4.8471  -2.0601   2.1576   4.6755   5.9653  10.0848  10.4467  13.2563
    15.2749

          k = 0.3584 0.2083-0.4483 (   510 PWs)   bands (ev):

    -4.4282  -1.8508   1.8794   3.5496   4.1698   9.8650  13.0223  14.3324
    15.0046

          k = 0.3648-0.6315 0.1483 (   510 PWs)   bands (ev):

    -4.0978  -2.5331   1.8931   2.8930   6.2410   9.9513  12.5593  13.7950
    14.0735

          k = 0.3616-0.6334 0.4450 (   520 PWs)   bands (ev):

    -4.8471  -2.0601   2.1576   4.6755   5.9653  10.0848  10.4467  13.2563
    15.2750

          k = 0.3712-0.6278-0.4450 (   520 PWs)   bands (ev):

    -4.8471  -2.0601   2.1576   4.6755   5.9653  10.0848  10.4468  13.2563
    15.2749

          k = 0.3680-0.6296-0.1483 (   510 PWs)   bands (ev):

    -4.0978  -2.5331   1.8931   2.8930   6.2410   9.9513  12.5593  13.7950
    14.0734

          k = 0.3616-0.3522 0.0483 (   521 PWs)   bands (ev):

    -4.9663  -2.1542   2.8620   4.8090   6.1766   9.4411  11.2264  12.2660
    13.7568

          k = 0.3584-0.3541 0.3450 (   510 PWs)   bands (ev):

    -4.4282  -1.8508   1.8794   3.5496   4.1698   9.8650  13.0223  14.3324
    15.0046

          k = 0.3680-0.3485-0.5450 (   510 PWs)   bands (ev):

    -4.0978  -2.5331   1.8931   2.8930   6.2410   9.9513  12.5593  13.7950
    14.0734

          k = 0.3648-0.3503-0.2483 (   520 PWs)   bands (ev):

    -4.5333  -3.1664   4.6341   4.8133   6.2738   9.3768   9.6719  10.4747
    15.7078

     the Fermi energy is     8.2936 ev

!    total energy              =     -25.49949637 Ry
     Harris-Foulkes estimate   =     -25.49949638 Ry
     estimated scf accuracy    <          4.4E-09 Ry

     The total energy is the sum of the following terms:

     one-electron contribution =       6.91087993 Ry
     hartree contribution      =       1.18277677 Ry
     xc contribution           =      -6.31668264 Ry
     ewald contribution        =     -27.27649805 Ry
     smearing contrib. (-TS)   =       0.00002761 Ry

     convergence has been achieved in   4 iterations

     Forces acting on atoms (Ry/au):

     atom   1 type  1   force =     0.00122089    0.00070913    0.00050277
     atom   2 type  1   force =    -0.00122089   -0.00070913   -0.00050277

     Total force =     0.002120     Total SCF correction =     0.000053


     entering subroutine stress ...

          total   stress  (Ry/bohr**3)                   (kbar)     P=    0.67
   0.00001074   0.00000722   0.00000512          1.58      1.06      0.75
   0.00000722   0.00000251   0.00000297          1.06      0.37      0.44
   0.00000512   0.00000297   0.00000042          0.75      0.44      0.06


     number of scf cycles    =   8
     number of bfgs steps    =   7

     enthalpy old            =     -25.4994817800 Ry
     enthalpy new            =     -25.4994963736 Ry

     CASE: enthalpy_new < enthalpy_old

     new trust radius        =       0.0074299651 bohr
     new conv_thr            =       0.0000000100 Ry

     new unit-cell volume =    274.21578 a.u.^3 (    40.63459 Ang^3 )

CELL_PARAMETERS (alat=  7.01033623)
   1.052572923   0.017074156   0.012102242
   0.536041403   0.906013138   0.012103102
   0.536041196   0.311475289   0.850876106

ATOMIC_POSITIONS (crystal)
As       0.271958198   0.271958464   0.271958353
As      -0.271958198  -0.271958464  -0.271958353



     Writing output data file pwscf.save
     NEW-OLD atomic charge density approx. for the potential
     NEW k-points:
        k(    1) = (   0.1170984   0.0680417   0.0482293), wk =   0.0625000
        k(    2) = (   0.1137193   0.0660780   0.3448917), wk =   0.0625000
        k(    3) = (   0.1238566   0.0719693  -0.5450957), wk =   0.0625000
        k(    4) = (   0.1204775   0.0700055  -0.2484332), wk =   0.0625000
        k(    5) = (   0.1137192   0.3473125  -0.0518729), wk =   0.0625000
        k(    6) = (   0.1103401   0.3453487   0.2447896), wk =   0.0625000
        k(    7) = (   0.1204774   0.3512400  -0.6451978), wk =   0.0625000
        k(    8) = (   0.1170983   0.3492762  -0.3485354), wk =   0.0625000
        k(    9) = (   0.1238568  -0.4904997   0.2484336), wk =   0.0625000
        k(   10) = (   0.1204777  -0.4924635   0.5450961), wk =   0.0625000
        k(   11) = (   0.1306150  -0.4865722  -0.3448913), wk =   0.0625000
        k(   12) = (   0.1272359  -0.4885359  -0.0482289), wk =   0.0625000
        k(   13) = (   0.1204776  -0.2112290   0.1483314), wk =   0.0625000
        k(   14) = (   0.1170985  -0.2131927   0.4449939), wk =   0.0625000
        k(   15) = (   0.1272358  -0.2073014  -0.4449935), wk =   0.0625000
        k(   16) = (   0.1238567  -0.2092652  -0.1483310), wk =   0.0625000
        k(   17) = (   0.3580534  -0.0731817  -0.0518725), wk =   0.0625000
        k(   18) = (   0.3546743  -0.0751455   0.2447900), wk =   0.0625000
        k(   19) = (   0.3648116  -0.0692542  -0.6451974), wk =   0.0625000
        k(   20) = (   0.3614325  -0.0712180  -0.3485349), wk =   0.0625000
        k(   21) = (   0.3546742   0.2060890  -0.1519746), wk =   0.0625000
        k(   22) = (   0.3512951   0.2041252   0.1446878), wk =   0.0625000
        k(   23) = (   0.3614324   0.2100165  -0.7452996), wk =   0.0625000
        k(   24) = (   0.3580533   0.2080527  -0.4486371), wk =   0.0625000
        k(   25) = (   0.3648118  -0.6317232   0.1483318), wk =   0.0625000
        k(   26) = (   0.3614327  -0.6336869   0.4449943), wk =   0.0625000
        k(   27) = (   0.3715700  -0.6277956  -0.4449931), wk =   0.0625000
        k(   28) = (   0.3681909  -0.6297594  -0.1483306), wk =   0.0625000
        k(   29) = (   0.3614326  -0.3524525   0.0482297), wk =   0.0625000
        k(   30) = (   0.3580535  -0.3544162   0.3448921), wk =   0.0625000
        k(   31) = (   0.3681908  -0.3485249  -0.5450953), wk =   0.0625000
        k(   32) = (   0.3648117  -0.3504887  -0.2484328), wk =   0.0625000
     extrapolated charge   10.01444, renormalised to   10.00000

     total cpu time spent up to now is     31.42 secs

     per-process dynamical memory:     5.7 Mb

     Self-consistent Calculation

     iteration #  1     ecut=    25.00 Ry     beta=0.70
     Davidson diagonalization with overlap
     ethr =  1.00E-06,  avg # of iterations =  2.8

     Threshold (ethr) on eigenvalues was too large:
     Diagonalizing with lowered threshold

     Davidson diagonalization with overlap
     ethr =  8.38E-09,  avg # of iterations =  1.7

     total cpu time spent up to now is     32.55 secs

     total energy              =     -25.49950782 Ry
     Harris-Foulkes estimate   =     -25.50797167 Ry
     estimated scf accuracy    <       0.00000082 Ry

     iteration #  2     ecut=    25.00 Ry     beta=0.70
     Davidson diagonalization with overlap
     ethr =  8.25E-09,  avg # of iterations =  3.0

     total cpu time spent up to now is     33.21 secs

     total energy              =     -25.49950932 Ry
     Harris-Foulkes estimate   =     -25.49950972 Ry
     estimated scf accuracy    <       0.00000104 Ry

     iteration #  3     ecut=    25.00 Ry     beta=0.70
     Davidson diagonalization with overlap
     ethr =  8.25E-09,  avg # of iterations =  1.0

     total cpu time spent up to now is     33.68 secs

     total energy              =     -25.49950927 Ry
     Harris-Foulkes estimate   =     -25.49950938 Ry
     estimated scf accuracy    <       0.00000023 Ry

     iteration #  4     ecut=    25.00 Ry     beta=0.70
     Davidson diagonalization with overlap
     ethr =  2.26E-09,  avg # of iterations =  1.3

     total cpu time spent up to now is     34.15 secs

     End of self-consistent calculation

          k = 0.1171 0.0680 0.0482 (   531 PWs)   bands (ev):

    -7.1017   1.7916   5.6459   5.6459   6.5528  10.0358  10.5816  10.5816
    14.5404

          k = 0.1137 0.0661 0.3449 (   522 PWs)   bands (ev):

    -6.0779  -0.8342   4.0138   5.7203   8.0776   8.3301   9.0525  11.9136
    13.9617

          k = 0.1239 0.0720-0.5451 (   520 PWs)   bands (ev):

    -4.5482  -3.1784   4.6082   4.7923   6.2606   9.3494   9.6642  10.4399
    15.6673

          k = 0.1205 0.0700-0.2484 (   525 PWs)   bands (ev):

    -6.5230   0.2090   4.7678   5.3373   6.7330   9.4357  10.2796  11.4911
    13.4783

          k = 0.1137 0.3473-0.0519 (   522 PWs)   bands (ev):

    -6.0779  -0.8342   4.0138   5.7203   8.0775   8.3301   9.0525  11.9136
    13.9617

          k = 0.1103 0.3453 0.2448 (   519 PWs)   bands (ev):

    -5.7034  -0.6017   2.9966   4.0744   5.3425  10.2407  11.9910  12.0779
    13.7711

          k = 0.1205 0.3512-0.6452 (   510 PWs)   bands (ev):

    -4.1189  -2.5460   1.8839   2.8777   6.2212   9.9394  12.5403  13.7615
    14.0487

          k = 0.1171 0.3493-0.3485 (   521 PWs)   bands (ev):

    -4.9793  -2.1699   2.8436   4.7990   6.1426   9.4223  11.2028  12.2407
    13.7381

          k = 0.1239-0.4905 0.2484 (   520 PWs)   bands (ev):

    -4.5482  -3.1784   4.6082   4.7922   6.2606   9.3494   9.6642  10.4399
    15.6673

          k = 0.1205-0.4925 0.5451 (   510 PWs)   bands (ev):

    -4.1189  -2.5460   1.8839   2.8777   6.2212   9.9394  12.5403  13.7615
    14.0487

          k = 0.1306-0.4866-0.3449 (   510 PWs)   bands (ev):

    -4.4447  -1.8743   1.8739   3.5409   4.1556   9.8355  12.9967  14.3185
    14.9703

          k = 0.1272-0.4885-0.0482 (   521 PWs)   bands (ev):

    -4.9793  -2.1699   2.8436   4.7990   6.1427   9.4224  11.2028  12.2407
    13.7381

          k = 0.1205-0.2112 0.1483 (   525 PWs)   bands (ev):

    -6.5230   0.2090   4.7678   5.3373   6.7331   9.4357  10.2796  11.4911
    13.4783

          k = 0.1171-0.2132 0.4450 (   521 PWs)   bands (ev):

    -4.9793  -2.1699   2.8436   4.7990   6.1426   9.4223  11.2028  12.2407
    13.7381

          k = 0.1272-0.2073-0.4450 (   521 PWs)   bands (ev):

    -4.9793  -2.1699   2.8436   4.7990   6.1427   9.4224  11.2028  12.2407
    13.7381

          k = 0.1239-0.2093-0.1483 (   525 PWs)   bands (ev):

    -6.5230   0.2090   4.7678   5.3373   6.7330   9.4357  10.2796  11.4911
    13.4783

          k = 0.3581-0.0732-0.0519 (   522 PWs)   bands (ev):

    -6.0779  -0.8342   4.0138   5.7203   8.0776   8.3301   9.0525  11.9136
    13.9617

          k = 0.3547-0.0751 0.2448 (   519 PWs)   bands (ev):

    -5.7034  -0.6017   2.9966   4.0744   5.3425  10.2407  11.9910  12.0779
    13.7711

          k = 0.3648-0.0693-0.6452 (   510 PWs)   bands (ev):

    -4.1189  -2.5460   1.8839   2.8777   6.2212   9.9394  12.5402  13.7615
    14.0487

          k = 0.3614-0.0712-0.3485 (   521 PWs)   bands (ev):

    -4.9793  -2.1699   2.8436   4.7990   6.1426   9.4223  11.2029  12.2407
    13.7381

          k = 0.3547 0.2061-0.1520 (   519 PWs)   bands (ev):

    -5.7034  -0.6017   2.9966   4.0744   5.3425  10.2407  11.9910  12.0779
    13.7711

          k = 0.3513 0.2041 0.1447 (   522 PWs)   bands (ev):

    -5.8948  -1.5464   5.8250   5.8250   7.0460   8.5107   8.5107   9.6345
    15.7515

          k = 0.3614 0.2100-0.7453 (   520 PWs)   bands (ev):

    -4.8755  -2.0667   2.1456   4.6629   5.9607  10.0776  10.4276  13.2328
    15.2540

          k = 0.3581 0.2081-0.4486 (   510 PWs)   bands (ev):

    -4.4447  -1.8743   1.8739   3.5409   4.1556   9.8355  12.9967  14.3185
    14.9703

          k = 0.3648-0.6317 0.1483 (   510 PWs)   bands (ev):

    -4.1189  -2.5460   1.8839   2.8777   6.2212   9.9394  12.5403  13.7615
    14.0487

          k = 0.3614-0.6337 0.4450 (   520 PWs)   bands (ev):

    -4.8755  -2.0667   2.1456   4.6629   5.9607  10.0776  10.4276  13.2328
    15.2540

          k = 0.3716-0.6278-0.4450 (   520 PWs)   bands (ev):

    -4.8755  -2.0667   2.1456   4.6629   5.9607  10.0776  10.4276  13.2328
    15.2540

          k = 0.3682-0.6298-0.1483 (   510 PWs)   bands (ev):

    -4.1189  -2.5460   1.8839   2.8777   6.2212   9.9394  12.5403  13.7615
    14.0487

          k = 0.3614-0.3525 0.0482 (   521 PWs)   bands (ev):

    -4.9793  -2.1699   2.8436   4.7990   6.1426   9.4223  11.2029  12.2407
    13.7381

          k = 0.3581-0.3544 0.3449 (   510 PWs)   bands (ev):

    -4.4447  -1.8743   1.8739   3.5409   4.1556   9.8355  12.9967  14.3185
    14.9703

          k = 0.3682-0.3485-0.5451 (   510 PWs)   bands (ev):

    -4.1189  -2.5460   1.8839   2.8777   6.2212   9.9394  12.5403  13.7615
    14.0487

          k = 0.3648-0.3505-0.2484 (   520 PWs)   bands (ev):

    -4.5482  -3.1784   4.6082   4.7923   6.2606   9.3495   9.6642  10.4399
    15.6673

     the Fermi energy is     8.2728 ev

!    total energy              =     -25.49950928 Ry
     Harris-Foulkes estimate   =     -25.49950929 Ry
     estimated scf accuracy    <          9.7E-09 Ry

     The total energy is the sum of the following terms:

     one-electron contribution =       6.88582436 Ry
     hartree contribution      =       1.18868317 Ry
     xc contribution           =      -6.31571689 Ry
     ewald contribution        =     -27.25832781 Ry
     smearing contrib. (-TS)   =       0.00002788 Ry

     convergence has been achieved in   4 iterations

     Forces acting on atoms (Ry/au):

     atom   1 type  1   force =     0.00091228    0.00052986    0.00037568
     atom   2 type  1   force =    -0.00091228   -0.00052986   -0.00037568

     Total force =     0.001584     Total SCF correction =     0.000077


     entering subroutine stress ...

          total   stress  (Ry/bohr**3)                   (kbar)     P=    0.38
   0.00000460   0.00000235   0.00000167          0.68      0.35      0.25
   0.00000235   0.00000192   0.00000096          0.35      0.28      0.14
   0.00000167   0.00000096   0.00000124          0.25      0.14      0.18


     bfgs converged in   9 scf cycles and   8 bfgs steps
     (criteria: energy < 0.10E-03, force < 0.10E-02, cell < 0.50E+00)

     End of BFGS Geometry Optimization

     Final enthalpy =     -25.4995092842 Ry
Begin final coordinates
     new unit-cell volume =    274.21578 a.u.^3 (    40.63459 Ang^3 )

CELL_PARAMETERS (alat=  7.01033623)
   1.052572923   0.017074156   0.012102242
   0.536041403   0.906013138   0.012103102
   0.536041196   0.311475289   0.850876106

ATOMIC_POSITIONS (crystal)
As       0.271958198   0.271958464   0.271958353
As      -0.271958198  -0.271958464  -0.271958353
End final coordinates



     Writing output data file pwscf.save
 
     init_run     :      0.28s CPU      0.29s WALL (       1 calls)
     electrons    :     30.59s CPU     31.06s WALL (       9 calls)
     update_pot   :      0.68s CPU      0.69s WALL (       8 calls)
     forces       :      0.38s CPU      0.39s WALL (       9 calls)
     stress       :      1.17s CPU      1.19s WALL (       9 calls)

     Called by init_run:
     wfcinit      :      0.18s CPU      0.18s WALL (       1 calls)
     potinit      :      0.03s CPU      0.03s WALL (       1 calls)

     Called by electrons:
     c_bands      :     25.85s CPU     26.24s WALL (      52 calls)
     sum_band     :      4.52s CPU      4.57s WALL (      52 calls)
     v_of_rho     :      0.11s CPU      0.11s WALL (      56 calls)
     mix_rho      :      0.04s CPU      0.05s WALL (      52 calls)

     Called by c_bands:
     init_us_2    :      0.49s CPU      0.50s WALL (    3936 calls)
     cegterg      :     25.48s CPU     25.77s WALL (    1664 calls)

     Called by *egterg:
     h_psi        :     21.95s CPU     21.98s WALL (    5334 calls)
     g_psi        :      0.50s CPU      0.51s WALL (    3638 calls)
     cdiaghg      :      1.12s CPU      1.10s WALL (    4886 calls)

     Called by h_psi:
     add_vuspsi   :      0.21s CPU      0.22s WALL (    5334 calls)

     General routines
     calbec       :      0.32s CPU      0.33s WALL (    5910 calls)
     fft          :      0.13s CPU      0.12s WALL (     278 calls)
     fftw         :     23.30s CPU     23.33s WALL (   94294 calls)
     davcio       :      0.01s CPU      0.16s WALL (    5600 calls)
 
 
     PWSCF        :    33.82s CPU        34.41s WALL

 
   This run was terminated on:   7:48:38  30Aug2010            

=------------------------------------------------------------------------------=
   JOB DONE.
=------------------------------------------------------------------------------=
