
     Program PWSCF v.7.3.1 starts on 25Sep2024 at 23:35:31 

     This program is part of the open-source Quantum ESPRESSO suite
     for quantum simulation of materials; please cite
         "P. Giannozzi et al., J. Phys.:Condens. Matter 21 395502 (2009);
         "P. Giannozzi et al., J. Phys.:Condens. Matter 29 465901 (2017);
         "P. Giannozzi et al., J. Chem. Phys. 152 154105 (2020);
          URL http://www.quantum-espresso.org", 
     in publications or presentations arising from this work. More details at
     http://www.quantum-espresso.org/quote

     Parallel version (MPI), running on     1 processors

     MPI processes distributed on     1 nodes
     45648 MiB available memory on the printing compute node when the environment starts

     Waiting for input...
     Reading input from standard input

     Current dimensions of program PWSCF are:
     Max number of different atomic species (ntypx) = 10
     Max number of k-points (npk) =  40000
     Max angular momentum in pseudopotentials (lmaxx) =  4
     file C.pz-rrkjus.UPF: wavefunction(s)  2S renormalized

     Subspace diagonalization in iterative solution of the eigenvalue problem:
     a serial algorithm will be used


     G-vector sticks info
     --------------------
     sticks:   dense  smooth     PW     G-vecs:    dense   smooth      PW
     Sum         151     151     55                 1243     1243     259

     Using Slab Decomposition



     bravais-lattice index     =            2
     lattice parameter (alat)  =       7.8780  a.u.
     unit-cell volume          =     122.2329 (a.u.)^3
     number of atoms/cell      =            2
     number of atomic types    =            2
     number of electrons       =         8.00
     number of Kohn-Sham states=            4
     kinetic-energy cutoff     =      18.0000  Ry
     charge density cutoff     =      72.0000  Ry
     scf convergence threshold =      1.0E-14
     mixing beta               =       0.7000
     number of iterations used =            8  plain     mixing
     Exchange-correlation= SLA  PZ   NOGX NOGC
                           (   1   1   0   0   0   0   0)

     celldm(1)=   7.878000  celldm(2)=   0.000000  celldm(3)=   0.000000
     celldm(4)=   0.000000  celldm(5)=   0.000000  celldm(6)=   0.000000

     crystal axes: (cart. coord. in units of alat)
               a(1) = (  -0.500000   0.000000   0.500000 )  
               a(2) = (   0.000000   0.500000   0.500000 )  
               a(3) = (  -0.500000   0.500000   0.000000 )  

     reciprocal axes: (cart. coord. in units 2 pi/alat)
               b(1) = ( -1.000000 -1.000000  1.000000 )  
               b(2) = (  1.000000  1.000000  1.000000 )  
               b(3) = ( -1.000000  1.000000 -1.000000 )  


     PseudoPot. # 1 for Si read from file:
     ../../pseudo/Si.pz-vbc.UPF
     MD5 check sum: 9f25e6ff280f3123e9b3a84715b2e9c9
     Pseudo is Norm-conserving, Zval =  4.0
     Generated by new atomic code, or converted to UPF format
     Using radial grid of  431 points,  2 beta functions with: 
                l(1) =   0
                l(2) =   1

     PseudoPot. # 2 for C  read from file:
     ../../pseudo/C.pz-rrkjus.UPF
     MD5 check sum: b6daa4d29350031528385b7e2af80775
     Pseudo is Ultrasoft, Zval =  4.0
     Generated by new atomic code, or converted to UPF format
     Using radial grid of 1425 points,  4 beta functions with: 
                l(1) =   0
                l(2) =   0
                l(3) =   1
                l(4) =   1
     Q(r) pseudized with 0 coefficients 


     atomic species   valence    mass     pseudopotential
     Si                4.00    28.08600     Si( 1.00)
     C                 4.00    12.01070     C ( 1.00)

     24 Sym. Ops. (no inversion) found



   Cartesian axes

     site n.     atom                  positions (alat units)
         1        Si     tau(   1) = (   0.0000000   0.0000000   0.0000000  )
         2        C      tau(   2) = (   0.2500000   0.2500000   0.2500000  )

     number of k points=     4
                       cart. coord. in units 2pi/alat
        k(    1) = (   0.0000000   0.0000000   0.0000000), wk =   0.0740741
        k(    2) = (  -0.3333333   0.3333333  -0.3333333), wk =   0.5925926
        k(    3) = (   0.0000000   0.6666667   0.0000000), wk =   0.4444444
        k(    4) = (   0.6666667  -0.0000000   0.6666667), wk =   0.8888889

     Dense  grid:     1243 G-vectors     FFT dimensions: (  15,  15,  15)

     Estimated max dynamical RAM per process >       2.09 MB

     Initial potential from superposition of free atoms

     starting charge       7.9995, renormalised to       8.0000
     Starting wfcs are    8 randomized atomic wfcs

     total cpu time spent up to now is        0.3 secs

     Self-consistent Calculation

     iteration #  1     ecut=    18.00 Ry     beta= 0.70
     Davidson diagonalization with overlap
     ethr =  1.00E-02,  avg # of iterations =  2.0

     total cpu time spent up to now is        0.3 secs

     total energy              =     -19.10594281 Ry
     estimated scf accuracy    <       0.45658904 Ry

     iteration #  2     ecut=    18.00 Ry     beta= 0.70
     Davidson diagonalization with overlap
     ethr =  5.71E-03,  avg # of iterations =  2.0

     total cpu time spent up to now is        0.3 secs

     total energy              =     -19.23552612 Ry
     estimated scf accuracy    <       0.08232804 Ry

     iteration #  3     ecut=    18.00 Ry     beta= 0.70
     Davidson diagonalization with overlap
     ethr =  1.03E-03,  avg # of iterations =  2.0

     negative rho (up, down):  2.052E-05 0.000E+00

     total cpu time spent up to now is        0.3 secs

     total energy              =     -19.24630618 Ry
     estimated scf accuracy    <       0.00135019 Ry

     iteration #  4     ecut=    18.00 Ry     beta= 0.70
     Davidson diagonalization with overlap
     ethr =  1.69E-05,  avg # of iterations =  2.2

     negative rho (up, down):  2.414E-05 0.000E+00

     total cpu time spent up to now is        0.3 secs

     total energy              =     -19.24660657 Ry
     estimated scf accuracy    <       0.00042216 Ry

     iteration #  5     ecut=    18.00 Ry     beta= 0.70
     Davidson diagonalization with overlap
     ethr =  5.28E-06,  avg # of iterations =  2.0

     negative rho (up, down):  2.498E-05 0.000E+00

     total cpu time spent up to now is        0.3 secs

     total energy              =     -19.24672312 Ry
     estimated scf accuracy    <       0.00011567 Ry

     iteration #  6     ecut=    18.00 Ry     beta= 0.70
     Davidson diagonalization with overlap
     ethr =  1.45E-06,  avg # of iterations =  2.0

     negative rho (up, down):  2.477E-05 0.000E+00

     total cpu time spent up to now is        0.3 secs

     total energy              =     -19.24673843 Ry
     estimated scf accuracy    <       0.00000096 Ry

     iteration #  7     ecut=    18.00 Ry     beta= 0.70
     Davidson diagonalization with overlap
     ethr =  1.20E-08,  avg # of iterations =  2.8

     negative rho (up, down):  2.474E-05 0.000E+00

     total cpu time spent up to now is        0.3 secs

     total energy              =     -19.24673909 Ry
     estimated scf accuracy    <       0.00000025 Ry

     iteration #  8     ecut=    18.00 Ry     beta= 0.70
     Davidson diagonalization with overlap
     ethr =  3.18E-09,  avg # of iterations =  1.0

     negative rho (up, down):  2.472E-05 0.000E+00

     total cpu time spent up to now is        0.3 secs

     total energy              =     -19.24673909 Ry
     estimated scf accuracy    <       0.00000005 Ry

     iteration #  9     ecut=    18.00 Ry     beta= 0.70
     Davidson diagonalization with overlap
     ethr =  6.65E-10,  avg # of iterations =  2.0

     negative rho (up, down):  2.471E-05 0.000E+00

     total cpu time spent up to now is        0.3 secs

     total energy              =     -19.24673910 Ry
     estimated scf accuracy    <          9.1E-09 Ry

     iteration # 10     ecut=    18.00 Ry     beta= 0.70
     Davidson diagonalization with overlap
     ethr =  1.14E-10,  avg # of iterations =  2.0

     negative rho (up, down):  2.471E-05 0.000E+00

     total cpu time spent up to now is        0.3 secs

     total energy              =     -19.24673910 Ry
     estimated scf accuracy    <          3.1E-10 Ry

     iteration # 11     ecut=    18.00 Ry     beta= 0.70
     Davidson diagonalization with overlap
     ethr =  3.86E-12,  avg # of iterations =  2.5

     negative rho (up, down):  2.471E-05 0.000E+00

     total cpu time spent up to now is        0.4 secs

     total energy              =     -19.24673910 Ry
     estimated scf accuracy    <          1.2E-10 Ry

     iteration # 12     ecut=    18.00 Ry     beta= 0.70
     Davidson diagonalization with overlap
     ethr =  1.44E-12,  avg # of iterations =  2.0

     negative rho (up, down):  2.471E-05 0.000E+00

     total cpu time spent up to now is        0.4 secs

     total energy              =     -19.24673910 Ry
     estimated scf accuracy    <          7.7E-13 Ry

     iteration # 13     ecut=    18.00 Ry     beta= 0.70
     Davidson diagonalization with overlap
     ethr =  1.00E-13,  avg # of iterations =  2.0

     negative rho (up, down):  2.471E-05 0.000E+00

     total cpu time spent up to now is        0.4 secs

     total energy              =     -19.24673910 Ry
     estimated scf accuracy    <          3.7E-12 Ry

     iteration # 14     ecut=    18.00 Ry     beta= 0.70
     Davidson diagonalization with overlap
     ethr =  1.00E-13,  avg # of iterations =  2.0

     negative rho (up, down):  2.471E-05 0.000E+00

     total cpu time spent up to now is        0.4 secs

     total energy              =     -19.24673910 Ry
     estimated scf accuracy    <          7.7E-13 Ry

     iteration # 15     ecut=    18.00 Ry     beta= 0.70
     Davidson diagonalization with overlap
     ethr =  1.00E-13,  avg # of iterations =  1.0

     negative rho (up, down):  2.471E-05 0.000E+00

     total cpu time spent up to now is        0.4 secs

     End of self-consistent calculation

          k = 0.0000 0.0000 0.0000 (   169 PWs)   bands (ev):

    -5.3585  11.2611  11.2611  11.2611

          k =-0.3333 0.3333-0.3333 (   153 PWs)   bands (ev):

    -3.0281   4.5805  10.4461  10.4461

          k = 0.0000 0.6667 0.0000 (   153 PWs)   bands (ev):

    -2.2464   6.1106   8.4245   8.4245

          k = 0.6667-0.0000 0.6667 (   164 PWs)   bands (ev):

    -0.0143   3.7483   4.8535   8.8808

     highest occupied level (ev):    11.2611

!    total energy              =     -19.24673910 Ry
     estimated scf accuracy    <          2.7E-15 Ry

     The total energy is the sum of the following terms:
     one-electron contribution =       6.66326815 Ry
     hartree contribution      =       2.23563621 Ry
     xc contribution           =      -6.26476793 Ry
     ewald contribution        =     -21.88087554 Ry

     convergence has been achieved in  15 iterations

     Writing all to output data dir ./SiC.save/ :
     XML data file, charge density, pseudopotentials, collected wavefunctions

     init_run     :      0.19s CPU      0.20s WALL (       1 calls)
     electrons    :      0.09s CPU      0.11s WALL (       1 calls)

     Called by init_run:
     wfcinit      :      0.02s CPU      0.02s WALL (       1 calls)
     potinit      :      0.02s CPU      0.02s WALL (       1 calls)
     hinit0       :      0.16s CPU      0.16s WALL (       1 calls)

     Called by electrons:
     c_bands      :      0.05s CPU      0.06s WALL (      15 calls)
     sum_band     :      0.03s CPU      0.03s WALL (      15 calls)
     v_of_rho     :      0.00s CPU      0.01s WALL (      16 calls)
     newd         :      0.01s CPU      0.01s WALL (      16 calls)
     mix_rho      :      0.00s CPU      0.00s WALL (      15 calls)

     Called by c_bands:
     init_us_2    :      0.00s CPU      0.01s WALL (     124 calls)
     cegterg      :      0.04s CPU      0.05s WALL (      60 calls)

     Called by *egterg:
     cdiaghg      :      0.01s CPU      0.01s WALL (     178 calls)
     h_psi        :      0.05s CPU      0.05s WALL (     182 calls)
     s_psi        :      0.00s CPU      0.00s WALL (     182 calls)
     g_psi        :      0.00s CPU      0.00s WALL (     118 calls)

     Called by h_psi:
     h_psi:calbec :      0.00s CPU      0.00s WALL (     182 calls)
     vloc_psi     :      0.04s CPU      0.05s WALL (     182 calls)
     add_vuspsi   :      0.00s CPU      0.00s WALL (     182 calls)

     General routines
     calbec       :      0.00s CPU      0.00s WALL (     242 calls)
     fft          :      0.03s CPU      0.03s WALL (      63 calls)
     ffts         :      0.00s CPU      0.00s WALL (      15 calls)
     fftw         :      0.04s CPU      0.04s WALL (    1678 calls)

     Parallel routines

     PWSCF        :      0.36s CPU      0.40s WALL


   This run was terminated on:  23:35:31  25Sep2024            

=------------------------------------------------------------------------------=
   JOB DONE.
=------------------------------------------------------------------------------=
