 RUNNING , /home/giannozz/q-e-pseudolib/test-suite/..//bin/cp.x -input sio2-us-lda-3.in

     Program CP v.6.5 starts on 24Apr2020 at 20:27: 5 

     This program is part of the open-source Quantum ESPRESSO suite
     for quantum simulation of materials; please cite
         "P. Giannozzi et al., J. Phys.:Condens. Matter 21 395502 (2009);
         "P. Giannozzi et al., J. Phys.:Condens. Matter 29 465901 (2017);
          URL http://www.quantum-espresso.org", 
     in publications or presentations arising from this work. More details at
     http://www.quantum-espresso.org/quote

     Parallel version (MPI), running on     1 processors

     MPI processes distributed on     1 nodes
     Fft bands division:     nmany     =       1
     Reading input from sio2-us-lda-3.in

   Job Title: MD Simulation


   Atomic Pseudopotentials Parameters
   ----------------------------------

   Reading pseudopotential for specie #  1 from file :
   /home/giannozz/q-e-pseudolib/test-suite/..//pseudo/O.pz-rrkjus.UPF
   file type is UPF v.2

   Reading pseudopotential for specie #  2 from file :
   /home/giannozz/q-e-pseudolib/test-suite/..//pseudo/Si.pz-vbc.UPF
   file type is UPF v.2
               file O.pz-rrkjus.UPF: wavefunction(s)  2S renormalized


   Main Simulation Parameters (from input)
   ---------------------------------------
   Restart Mode       =       0   reset_counters 
   Number of MD Steps =     100
   Print out every           10 MD Steps
   Reads from unit    =      92
   Writes to unit     =      93
   MD Simulation time step            =      12.00
   Electronic fictitious mass (emass) =     700.00
   emass cut-off                      =       3.00

   Simulation Cell Parameters (from input)
   external pressure       =            1.00 [KBar]
   wmass (calculated)      =        49868.25 [AU]
   ibrav =    8
   alat  =     9.28990000
   a1    =     9.28990000    0.00000000    0.00000000
   a2    =     0.00000000   16.09066419    0.00000000
   a3    =     0.00000000    0.00000000   10.21470954
 
   b1    =     0.10764379    0.00000000    0.00000000
   b2    =     0.00000000    0.06214784    0.00000000
   b3    =     0.00000000    0.00000000    0.09789804
   omega =    1526.90153773

   Energy Cut-offs
   ---------------
   Ecutwfc =   20.0 Ry,      Ecutrho =  150.0 Ry,      Ecuts =   80.0 Ry
   Gcutwfc =    6.6     ,    Gcutrho =   18.1          Gcuts =   13.2
   modified kinetic energy functional, with parameters:
   ecutz = 150.0000  ecsig =  2.0000  ecfix =  16.00
   NOTA BENE: refg, mmx =   0.050000  6000
   Eigenvalues calculated without the kinetic term contribution
   Orthog. with lagrange multipliers : eps =   0.10E-08,  max =  30
   Electron dynamics with newton equations
   Electron dynamics : the temperature is not controlled

   Electronic states
   -----------------
   Number of Electrons=    96, of States =    48
   Occupation numbers :
   2.00 2.00 2.00 2.00 2.00 2.00 2.00 2.00 2.00 2.00
   2.00 2.00 2.00 2.00 2.00 2.00 2.00 2.00 2.00 2.00
   2.00 2.00 2.00 2.00 2.00 2.00 2.00 2.00 2.00 2.00
   2.00 2.00 2.00 2.00 2.00 2.00 2.00 2.00 2.00 2.00
   2.00 2.00 2.00 2.00 2.00 2.00 2.00 2.00


   Exchange and correlations functionals
   -------------------------------------
     Exchange-correlation= SLA PZ NOGX NOGC
                           (   1   1   0   0   0   0   0)


   Ions Simulation Parameters
   --------------------------
   Ions are allowed to move
   Ions dynamics with newton equations
   the temperature is computed for    54 degrees of freedom
   ion dynamics with fricp =  0.0000 and greasp =  1.0000
   Ionic position (from input)
   sorted by specie, and converted to real a.u. coordinates
   Species   1 atoms =   12 mass =     29166.22 (a.u.),        16.00 (amu) rcmax =   1.00 (a.u.)
        3.188294    14.832370     1.228830
        7.832315     6.787040     1.228830
        2.074435     5.995380     4.737583
        6.720314    14.042319     4.737583
        3.963071    11.269898     7.878606
        8.608021     3.222959     7.878606
        3.963071     4.819153     9.146251
        8.608021    12.864483     9.146251
        3.187365     1.256681     5.580296
        7.833244     9.302011     5.580296
        2.075364    10.092062     2.073586
        6.719385     2.046732     2.073586
   Species   2 atoms =    6 mass =     51040.88 (a.u.),        28.00 (amu) rcmax =   1.00 (a.u.)
        0.288916     8.045330     3.404563
        4.933866     0.000000     3.404563
        2.133890    12.277174    -0.041880
        6.778840     4.231844    -0.041880
        2.133890     3.813486     6.852027
        6.778840    11.858816     6.852027
   Ionic position will be re-read from restart file

   All atoms are allowed to move
   Ionic temperature control via nose thermostat


   ion dynamics with nose` temperature control:
   temperature required      =  300.00000 (kelvin) 
   NH chain length           =   1
   active degrees of freedom =     54
   time steps per nose osc.  =    516


   nose` frequency(es)       =       6.667


   the requested type of NH chains is     0
   total number of thermostats used     1 0 0
   ionic degrees of freedom for each chain   54


   nose` mass(es) for chain    1 =   99946.709


   atom i (in sorted order) is assigned to this thermostat :
   1   1   1   1   1   1   1   1   1   1   1   1   1   1   1   1   1   1


   Cell Dynamics Parameters (from STDIN)
   -------------------------------------
   internal stress tensor calculated
   Starting cell generated from CELLDM
   Cell parameters will be re-read from restart file
   Volume dynamics with newton equations
   cell parameters dynamics with nose` temp. control
   Constant PRESSURE Molecular dynamics:
   External pressure (GPa) =        0.10
   Volume mass             =    49868.25


   cell dynamics with nose` temperature control:
   Kinetic energy required   =  300.00000 (Kelvin) 
   time steps per nose osc.  =   400
   nose` frequency           =      8.607 (THz) 
   nose` mass(es)            =    9993.379

   Verbosity: iverbosity =  1



   Simulation dimensions initialization
   ------------------------------------

   unit vectors of full simulation cell
   in real space:                         in reciprocal space (units 2pi/alat):
   1     9.2899    0.0000    0.0000              1.0000    0.0000    0.0000
   2     0.0000   16.0907    0.0000              0.0000    0.5773    0.0000
   3     0.0000    0.0000   10.2147              0.0000    0.0000    0.9095
 
     G-vector sticks info
     --------------------
     sticks:   dense  smooth     PW     G-vecs:    dense   smooth      PW
     Sum        1783     951    239                47285    18431    2305
 
 
   Real Mesh
   ---------
   Global Dimensions   Local  Dimensions   Processor Grid
   .X.   .Y.   .Z.     .X.   .Y.   .Z.     .X.   .Y.   .Z.
    40    64    40      40    64    40       1     1     1
   Array leading dimensions ( nr1x, nr2x, nr3x )   =     40    64    40
   Local number of cell to store the grid ( nrxx ) =     102400
   Number of x-y planes for each processors: 
  |  64,  40  |
 
   Smooth Real Mesh
   ----------------
   Global Dimensions   Local  Dimensions   Processor Grid
   .X.   .Y.   .Z.     .X.   .Y.   .Z.     .X.   .Y.   .Z.
    27    45    30      27    45    30       1     1     1
   Array leading dimensions ( nr1x, nr2x, nr3x )   =     27    45    30
   Local number of cell to store the grid ( nrxx ) =      36450
   Number of x-y planes for each processors: 
  |  45,  30  |
 
   Small Box Real Mesh
   -------------------
   Global Dimensions   Local  Dimensions   Processor Grid
   .X.   .Y.   .Z.     .X.   .Y.   .Z.     .X.   .Y.   .Z.
    24    24    24      24    24    24       1     1     1
   Array leading dimensions ( nr1x, nr2x, nr3x )   =     24    24    24
   Local number of cell to store the grid ( nrxx ) =      13824
 
   unit vectors of box grid cell
   in real space:                         in reciprocal space:
       5.5739    0.0000    0.0000              1.0000    0.0000    0.0000
       0.0000    6.0340    0.0000              0.0000    0.9238    0.0000
       0.0000    0.0000    6.1288              0.0000    0.0000    0.9095
 
   Reciprocal Space Mesh
   ---------------------
   Large Mesh
     Global(ngm_g)    MinLocal       MaxLocal      Average
          23643          23643          23643       23643.00
   Smooth Mesh
     Global(ngms_g)   MinLocal       MaxLocal      Average
           9216           9216           9216        9216.00
   Wave function Mesh
     Global(ngw_g)    MinLocal       MaxLocal      Average
           1153           1153           1153        1153.00

   Small box Mesh
   ngb =         3183 not distributed to processors


   System geometry initialization
   ------------------------------
   cell parameters read from restart file
   ibrav =    8       cell parameters 


   cell at current step : h(t)
       9.28990       0.00000       0.00000
       0.00000      16.09066       0.00000
       0.00000       0.00000      10.21471

   cell at previous step : h(t-dt)
       9.28990       0.00000       0.00000
       0.00000      16.09066       0.00000
       0.00000       0.00000      10.21471
 
 
   unit vectors of box grid cell
   in real space:                         in reciprocal space:
       5.5739    0.0000    0.0000              1.0000    0.0000    0.0000
       0.0000    6.0340    0.0000              0.0000    0.9238    0.0000
       0.0000    0.0000    6.1288              0.0000    0.0000    0.9095

   Matrix Multiplication Performances
   ortho mmul, time for parallel driver      =   0.00002 with    1 procs

   Constraints matrixes will be distributed block like on
   ortho sub-group =    1*   1 procs



   Pseudopotentials initialization
   -------------------------------
is, nh(is), ngb, kkbeta, lmaxq =     1    8 3183  865    3
 
                        qqq 
  -0.0987   0.4865   0.0000   0.0000
   0.4865  -2.1787   0.0000   0.0000
   0.0000   0.0000   0.2330   0.2950
   0.0000   0.0000   0.2950   0.3737
 


   Common initialization

   Specie:     1
   1  indv=  1   ang. mom=  0
   2  indv=  2   ang. mom=  0
   3  indv=  3   ang. mom=  1
   4  indv=  3   ang. mom=  1
   5  indv=  3   ang. mom=  1
   6  indv=  4   ang. mom=  1
   7  indv=  4   ang. mom=  1
   8  indv=  4   ang. mom=  1
 
                        dion 
   0.4817  -1.2813   0.0000   0.0000
  -1.2813   2.3075   0.0000   0.0000
   0.0000   0.0000   0.6338   0.8752
   0.0000   0.0000   0.8752   1.2039

   Specie:     2
   1  indv=  1   ang. mom=  0
   2  indv=  2   ang. mom=  1
   3  indv=  2   ang. mom=  1
   4  indv=  2   ang. mom=  1
 
                        dion 
   0.7619   0.0000
   0.0000   1.8417

   Cell parameters from input file are used in electron mass preconditioning
   init_tpiba2=    0.45744371
 
   Short Legend and Physical Units in the Output
   ---------------------------------------------
   NFI    [int]          - step index
   EKINC  [HARTREE A.U.] - kinetic energy of the fictitious electronic dynamics
   TEMPH  [K]            - Temperature of the fictitious cell dynamics
   TEMP   [K]            - Ionic temperature
   ETOT   [HARTREE A.U.] - Scf total energy (Kohn-Sham hamiltonian)
   ENTHAL [HARTREE A.U.] - Enthalpy ( ETOT + P * V )
   ECONS  [HARTREE A.U.] - Enthalpy + kinetic energy of ions and cell
   ECONT  [HARTREE A.U.] - Constant of motion for the CP lagrangian
 

   formf: eself=   210.64152
   formf:     vps(g=0)=  -0.0099256     rhops(g=0)=  -0.0039295
   formf:     vps(g=0)=  -0.0096973     rhops(g=0)=  -0.0037826
   formf:     vps(g=0)=  -0.0093695     rhops(g=0)=  -0.0035749
   formf:     vps(g=0)=  -0.0092576     rhops(g=0)=  -0.0035049
   formf:     vps(g=0)=  -0.0091550     rhops(g=0)=  -0.0034412
   formf: sum_g vps(g)=  -2.2959144 sum_g rhops(g)=  -0.5407261
   formf:     vps(g=0)=  -0.0098400     rhops(g=0)=  -0.0026197
   formf:     vps(g=0)=  -0.0096549     rhops(g=0)=  -0.0025217
   formf:     vps(g=0)=  -0.0093809     rhops(g=0)=  -0.0023832
   formf:     vps(g=0)=  -0.0092851     rhops(g=0)=  -0.0023366
   formf:     vps(g=0)=  -0.0091964     rhops(g=0)=  -0.0022941
   formf: sum_g vps(g)=  -2.3753533 sum_g rhops(g)=  -0.3604841
   Delta V(G=0):   0.197519Ry,    5.374775eV

   formf: eself=   210.64152
   formf:     vps(g=0)=  -0.0099256     rhops(g=0)=  -0.0039295
   formf:     vps(g=0)=  -0.0096973     rhops(g=0)=  -0.0037826
   formf:     vps(g=0)=  -0.0093695     rhops(g=0)=  -0.0035749
   formf:     vps(g=0)=  -0.0092576     rhops(g=0)=  -0.0035049
   formf:     vps(g=0)=  -0.0091550     rhops(g=0)=  -0.0034412
   formf: sum_g vps(g)=  -2.2959144 sum_g rhops(g)=  -0.5407261
   formf:     vps(g=0)=  -0.0098400     rhops(g=0)=  -0.0026197
   formf:     vps(g=0)=  -0.0096549     rhops(g=0)=  -0.0025217
   formf:     vps(g=0)=  -0.0093809     rhops(g=0)=  -0.0023832
   formf:     vps(g=0)=  -0.0092851     rhops(g=0)=  -0.0023366
   formf:     vps(g=0)=  -0.0091964     rhops(g=0)=  -0.0022941
   formf: sum_g vps(g)=  -2.3753533 sum_g rhops(g)=  -0.3604841
   Delta V(G=0):   0.197519Ry,    5.374775eV
 
   unit vectors of box grid cell
   in real space:                         in reciprocal space:
       5.5740    0.0000    0.0000              1.0000    0.0000    0.0000
       0.0000    6.0340    0.0000              0.0000    0.9238    0.0000
       0.0000    0.0000    6.1287              0.0000    0.0000    0.9095
 
  nfi     ekinc              temph  tempp     etot                 enthal               econs                econt              vnhh    xnhh0   vnhp    xnhp0
      1    0.000000674565986    0.1    0.01    -211.981897218652    -211.976707385801    -211.976705502651    -211.976704339484   0.0000   0.0000   0.0000   0.0000
 
   unit vectors of box grid cell
   in real space:                         in reciprocal space:
       5.5741    0.0000    0.0000              1.0000    0.0000    0.0000
       0.0000    6.0340    0.0000              0.0000    0.9238    0.0000
       0.0000    0.0000    6.1285              0.0000    0.0000    0.9095
      2    0.000000747655918    0.8    0.06    -211.981912058705    -211.976722268454    -211.976705653560    -211.976704418141   0.0000   0.0000   0.0000  -0.0001
 
   unit vectors of box grid cell
   in real space:                         in reciprocal space:
       5.5742    0.0000    0.0000              1.0000    0.0000    0.0000
       0.0000    6.0340    0.0000              0.0000    0.9238    0.0000
       0.0000   -0.0001    6.1283              0.0000    0.0000    0.9096
      3    0.000001308436223    2.2    0.16    -211.981940457707    -211.976750752226    -211.976705967986    -211.976704176114   0.0000   0.0000   0.0000  -0.0002
 
   unit vectors of box grid cell
   in real space:                         in reciprocal space:
       5.5743    0.0000    0.0000              1.0000    0.0000    0.0000
       0.0000    6.0340    0.0000              0.0000    0.9238    0.0000
       0.0000   -0.0001    6.1279              0.0000    0.0000    0.9097
      4    0.000003654047916    4.3    0.28    -211.981982922486    -211.976793343532    -211.976708123577    -211.976703998702   0.0000  -0.0001   0.0000  -0.0004
 
   unit vectors of box grid cell
   in real space:                         in reciprocal space:
       5.5746    0.0000    0.0000              1.0000    0.0000    0.0000
       0.0000    6.0340   -0.0001              0.0000    0.9239    0.0000
       0.0000   -0.0001    6.1274              0.0000    0.0000    0.9098
      5    0.000008336260173    7.0    0.44    -211.982040384002    -211.976850973223    -211.976712976368    -211.976704196811   0.0000  -0.0001   0.0000  -0.0007
 
   unit vectors of box grid cell
   in real space:                         in reciprocal space:
       5.5748    0.0000    0.0000              1.0000    0.0000    0.0000
       0.0000    6.0340   -0.0001              0.0000    0.9239    0.0000
       0.0000   -0.0002    6.1269              0.0000    0.0000    0.9099
      6    0.000013814266207   10.5    0.65    -211.982112562065    -211.976923361541    -211.976718770062    -211.976704563850   0.0000  -0.0002   0.0000  -0.0011
 
   unit vectors of box grid cell
   in real space:                         in reciprocal space:
       5.5751    0.0000    0.0000              1.0000    0.0000    0.0000
       0.0000    6.0339   -0.0001              0.0000    0.9240    0.0000
       0.0000   -0.0003    6.1262              0.0000    0.0000    0.9100
      7    0.000017859291377   14.6    0.91    -211.982198463254    -211.977009515965    -211.976722682772    -211.976704518591   0.0000  -0.0003   0.0000  -0.0016
 
   unit vectors of box grid cell
   in real space:                         in reciprocal space:
       5.5754    0.0000    0.0000              1.0000    0.0000    0.0000
       0.0000    6.0339   -0.0001              0.0000    0.9240    0.0000
       0.0000   -0.0003    6.1255              0.0000    0.0000    0.9102
      8    0.000020007022829   19.6    1.24    -211.982298871582    -211.977110221557    -211.976724789738    -211.976704615543   0.0000  -0.0004   0.0000  -0.0021
 
   unit vectors of box grid cell
   in real space:                         in reciprocal space:
       5.5758    0.0000    0.0000              1.0000    0.0000    0.0000
       0.0000    6.0339   -0.0002              0.0000    0.9241    0.0001
       0.0000   -0.0004    6.1247              0.0000    0.0000    0.9104
      9    0.000021864738845   25.3    1.62    -211.982414390811    -211.977226082933    -211.976726912429    -211.976705085688   0.0000  -0.0004  -0.0001  -0.0027
 
   unit vectors of box grid cell
   in real space:                         in reciprocal space:
       5.5762    0.0000    0.0000              1.0000    0.0000    0.0000
       0.0000    6.0339   -0.0002              0.0000    0.9241    0.0001
       0.0000   -0.0005    6.1237              0.0000    0.0000    0.9106
     10    0.000025692031589   31.7    2.04    -211.982502486014    -211.977314565662    -211.976688960712    -211.976663595846   0.0000  -0.0005  -0.0001  -0.0033
 
   unit vectors of box grid cell
   in real space:                         in reciprocal space:
       5.5766    0.0000    0.0000              1.0000    0.0000    0.0000
       0.0000    6.0339   -0.0002              0.0000    0.9242    0.0001
       0.0000   -0.0006    6.1227              0.0000    0.0000    0.9108
     11    0.000033118371519   38.8    2.46    -211.982646772824    -211.977459285654    -211.976696304028    -211.976663900968   0.0000  -0.0006  -0.0001  -0.0041
 
   unit vectors of box grid cell
   in real space:                         in reciprocal space:
       5.5771    0.0000    0.0000              1.0000    0.0000    0.0000
       0.0000    6.0339   -0.0003              0.0000    0.9243    0.0001
       0.0000   -0.0007    6.1216              0.0000    0.0000    0.9111
     12    0.000044011420258   46.5    2.91    -211.982806284988    -211.977619277083    -211.976707440749    -211.976664645967   0.0000  -0.0007  -0.0001  -0.0049
 
   unit vectors of box grid cell
   in real space:                         in reciprocal space:
       5.5776    0.0000    0.0000              1.0000    0.0000    0.0000
       0.0000    6.0338   -0.0003              0.0000    0.9244    0.0001
       0.0000   -0.0008    6.1204              0.0000    0.0000    0.9113
     13    0.000055878918152   55.0    3.41    -211.982981044528    -211.977794562850    -211.976719677570    -211.976665645586   0.0000  -0.0008  -0.0001  -0.0058
 
   unit vectors of box grid cell
   in real space:                         in reciprocal space:
       5.5781    0.0000    0.0000              1.0000    0.0000    0.0000
       0.0000    6.0338   -0.0004              0.0000    0.9245    0.0001
       0.0000   -0.0010    6.1190              0.0000    0.0001    0.9116
     14    0.000065358729340   64.3    3.97    -211.983171025052    -211.977985117958    -211.976729849235    -211.976667115783   0.0000  -0.0009  -0.0001  -0.0067
 
   unit vectors of box grid cell
   in real space:                         in reciprocal space:
       5.5787    0.0000    0.0000              1.0000    0.0000    0.0000
       0.0000    6.0338   -0.0004              0.0000    0.9246    0.0002
       0.0000   -0.0011    6.1176              0.0000    0.0001    0.9119
     15    0.000071075043024   74.4    4.61    -211.983376236372    -211.978190953906    -211.976736598473    -211.976669096339   0.0000  -0.0010  -0.0001  -0.0077
 
   unit vectors of box grid cell
   in real space:                         in reciprocal space:
       5.5793    0.0000    0.0000              1.0000    0.0000    0.0000
       0.0000    6.0337   -0.0005              0.0000    0.9247    0.0002
       0.0000   -0.0012    6.1161              0.0000    0.0001    0.9122
     16    0.000074908497195   85.4    5.31    -211.983596505624    -211.978411899435    -211.976741256644    -211.976671057134   0.0000  -0.0011  -0.0001  -0.0088
 
   unit vectors of box grid cell
   in real space:                         in reciprocal space:
       5.5800    0.0000    0.0000              1.0000    0.0000    0.0000
       0.0000    6.0337   -0.0006              0.0000    0.9248    0.0002
       0.0000   -0.0014    6.1145              0.0000    0.0001    0.9126
     17    0.000080567439036   97.2    6.03    -211.983832093737    -211.978648216739    -211.976747544547    -211.976673022640   0.0000  -0.0011  -0.0001  -0.0100
 
   unit vectors of box grid cell
   in real space:                         in reciprocal space:
       5.5807    0.0001    0.0000              1.0000    0.0000    0.0000
       0.0000    6.0337   -0.0006              0.0000    0.9249    0.0002
       0.0000   -0.0016    6.1128              0.0000    0.0001    0.9130
     18    0.000091052678472  109.7    6.76    -211.984083655392    -211.978900561429    -211.976759070433    -211.976675602816   0.0000  -0.0012  -0.0001  -0.0113
 
   unit vectors of box grid cell
   in real space:                         in reciprocal space:
       5.5814    0.0001    0.0000              1.0000    0.0000    0.0000
       0.0000    6.0336   -0.0007              0.0000    0.9251    0.0003
       0.0000   -0.0017    6.1110              0.0000    0.0001    0.9133
     19    0.000106714025360  123.0    7.49    -211.984349887199    -211.979167630995    -211.976774717130    -211.976677325887   0.0000  -0.0012  -0.0001  -0.0126
 
   unit vectors of box grid cell
   in real space:                         in reciprocal space:
       5.5822    0.0001    0.0000              1.0000    0.0000    0.0000
       0.0000    6.0336   -0.0008              0.0000    0.9252    0.0003
       0.0000   -0.0019    6.1091              0.0000    0.0001    0.9137
     20    0.000124831233605  137.0    8.26    -211.984631891266    -211.979450528739    -211.976792658075    -211.976679078362   0.0000  -0.0011  -0.0001  -0.0140
 
   unit vectors of box grid cell
   in real space:                         in reciprocal space:
       5.5830    0.0001    0.0000              1.0000    0.0000    0.0000
       0.0000    6.0335   -0.0008              0.0000    0.9253    0.0003
       0.0000   -0.0021    6.1071              0.0000    0.0001    0.9142
     21    0.000141239351379  151.8    9.09    -211.984929674679    -211.979749263455    -211.976808708119    -211.976680833635   0.0000  -0.0011  -0.0001  -0.0154
 
   unit vectors of box grid cell
   in real space:                         in reciprocal space:
       5.5838    0.0001    0.0000              1.0000    0.0000    0.0000
       0.0000    6.0335   -0.0009              0.0000    0.9255    0.0003
       0.0000   -0.0023    6.1050              0.0000    0.0001    0.9146
     22    0.000153228665842  167.5   10.01    -211.985242389032    -211.980062988861    -211.976819319434    -211.976681745591   0.0000  -0.0010  -0.0001  -0.0170
 
   unit vectors of box grid cell
   in real space:                         in reciprocal space:
       5.5846    0.0001    0.0000              1.0000    0.0000    0.0000
       0.0000    6.0335   -0.0010              0.0000    0.9256    0.0004
       0.0000   -0.0025    6.1027              0.0000    0.0002    0.9151
     23    0.000161555551684  184.3   11.00    -211.985572424376    -211.980394097181    -211.976827453288    -211.976684001847   0.0000  -0.0009  -0.0001  -0.0186
 
   unit vectors of box grid cell
   in real space:                         in reciprocal space:
       5.5855    0.0001    0.0000              1.0000    0.0000    0.0000
       0.0000    6.0334   -0.0011              0.0000    0.9258    0.0004
       0.0000   -0.0027    6.1004              0.0000    0.0002    0.9156
     24    0.000169953251406  202.1   12.01    -211.985920018120    -211.980742827696    -211.976836747505    -211.976687471686   0.0000  -0.0007  -0.0001  -0.0203
 
   unit vectors of box grid cell
   in real space:                         in reciprocal space:
       5.5864    0.0001    0.0000              1.0000    0.0000    0.0000
       0.0000    6.0334   -0.0012              0.0000    0.9259    0.0004
       0.0000   -0.0030    6.0980              0.0000    0.0002    0.9161
     25    0.000182525105311  220.7   13.02    -211.986284604862    -211.981108616435    -211.976850444961    -211.976691237094   0.0000  -0.0004  -0.0001  -0.0220
 
   unit vectors of box grid cell
   in real space:                         in reciprocal space:
       5.5874    0.0001    0.0000              1.0000    0.0000    0.0000
       0.0000    6.0333   -0.0013              0.0000    0.9261    0.0005
       0.0000   -0.0032    6.0954              0.0000    0.0002    0.9166
     26    0.000200901909321  240.2   14.02    -211.986666437415    -211.981491717410    -211.976870278773    -211.976695323401   0.0000  -0.0001  -0.0002  -0.0238
 
   unit vectors of box grid cell
   in real space:                         in reciprocal space:
       5.5883    0.0001    0.0000              1.0000    0.0000    0.0000
       0.0000    6.0332   -0.0014              0.0000    0.9263    0.0005
       0.0000   -0.0034    6.0928              0.0000    0.0002    0.9172
     27    0.000223140596847  260.4   15.05    -211.987065259242    -211.981891875462    -211.976894027498    -211.976699362684   0.0000   0.0003  -0.0002  -0.0257
 
   unit vectors of box grid cell
   in real space:                         in reciprocal space:
       5.5893    0.0001    0.0000              1.0000    0.0000    0.0000
       0.0000    6.0332   -0.0015              0.0000    0.9264    0.0006
       0.0000   -0.0037    6.0900              0.0000    0.0002    0.9178
     28    0.000245094810920  281.5   16.15    -211.987480655695    -211.982308677820    -211.976917129797    -211.976702842157   0.0000   0.0007  -0.0002  -0.0277
 
   unit vectors of box grid cell
   in real space:                         in reciprocal space:
       5.5903    0.0001    0.0000              1.0000    0.0000    0.0000
       0.0000    6.0331   -0.0016              0.0000    0.9266    0.0006
       0.0000   -0.0040    6.0872              0.0000    0.0002    0.9184
     29    0.000263215942917  303.5   17.32    -211.987915503745    -211.982745003852    -211.976938863893    -211.976708479138   0.0001   0.0013  -0.0002  -0.0297
 
   unit vectors of box grid cell
   in real space:                         in reciprocal space:
       5.5913    0.0001    0.0000              1.0000    0.0000    0.0000
       0.0000    6.0331   -0.0017              0.0000    0.9268    0.0006
       0.0000   -0.0042    6.0842              0.0000    0.0003    0.9190
     30    0.000276869228399  326.7   18.56    -211.988366616956    -211.983197669708    -211.976955323186    -211.976712869831   0.0001   0.0019  -0.0002  -0.0318
 
   unit vectors of box grid cell
   in real space:                         in reciprocal space:
       5.5924    0.0001    0.0000              1.0000    0.0000    0.0000
       0.0000    6.0330   -0.0018              0.0000    0.9270    0.0007
       0.0000   -0.0045    6.0811              0.0000    0.0003    0.9196
     31    0.000288723351385  351.0   19.83    -211.988837564392    -211.983670246751    -211.976972611266    -211.976719282800   0.0001   0.0027  -0.0002  -0.0340
 
   unit vectors of box grid cell
   in real space:                         in reciprocal space:
       5.5935    0.0001    0.0000              1.0000    0.0000    0.0000
       0.0000    6.0329   -0.0019              0.0000    0.9272    0.0007
       0.0000   -0.0048    6.0779              0.0000    0.0003    0.9203
     32    0.000302953883422  376.3   21.11    -211.989327343016    -211.984161733665    -211.976993711881    -211.976726319627   0.0001   0.0036  -0.0002  -0.0362
 
   unit vectors of box grid cell
   in real space:                         in reciprocal space:
       5.5946    0.0001    0.0000              1.0000    0.0000    0.0000
       0.0000    6.0329   -0.0020              0.0000    0.9273    0.0008
       0.0000   -0.0051    6.0746              0.0000    0.0003    0.9210
     33    0.000322391736273  402.6   22.38    -211.989835488662    -211.984671667541    -211.977020886703    -211.976733167209   0.0001   0.0046  -0.0002  -0.0385
 
   unit vectors of box grid cell
   in real space:                         in reciprocal space:
       5.5957    0.0001    0.0000              1.0000    0.0000    0.0000
       0.0001    6.0328   -0.0022              0.0000    0.9275    0.0008
       0.0000   -0.0054    6.0712              0.0000    0.0003    0.9217
     34    0.000346626996258  429.6   23.67    -211.990362933004    -211.985200981288    -211.977054778676    -211.976740604894   0.0001   0.0057  -0.0002  -0.0409
 
   unit vectors of box grid cell
   in real space:                         in reciprocal space:
       5.5968    0.0002    0.0000              1.0000    0.0000    0.0000
       0.0001    6.0327   -0.0023              0.0000    0.9277    0.0009
       0.0000   -0.0057    6.0676              0.0000    0.0003    0.9224
     35    0.000372458093695  457.4   25.01    -211.990909720330    -211.985749720892    -211.977092504393    -211.976748651681   0.0001   0.0069  -0.0002  -0.0433
 
   unit vectors of box grid cell
   in real space:                         in reciprocal space:
       5.5979    0.0002    0.0000              1.0000    0.0000    0.0000
       0.0001    6.0326   -0.0024              0.0000    0.9279    0.0009
       0.0000   -0.0061    6.0640              0.0000    0.0004    0.9231
     36    0.000396296168112  486.2   26.41    -211.991518466892    -211.986360504930    -211.977173284562    -211.976799786869   0.0001   0.0084  -0.0002  -0.0459
 
   unit vectors of box grid cell
   in real space:                         in reciprocal space:
       5.5991    0.0002    0.0000              1.0000    0.0000    0.0000
       0.0001    6.0325   -0.0025              0.0000    0.9281    0.0010
       0.0000   -0.0064    6.0602              0.0000    0.0004    0.9239
     37    0.000416503371984  516.1   27.87    -211.992118047283    -211.986962210599    -211.977224499080    -211.976822653990   0.0001   0.0100  -0.0002  -0.0484
 
   unit vectors of box grid cell
   in real space:                         in reciprocal space:
       5.6003    0.0002    0.0000              1.0000    0.0000    0.0000
       0.0001    6.0325   -0.0027              0.0000    0.9284    0.0010
       0.0000   -0.0067    6.0563              0.0000    0.0004    0.9247
     38    0.000434281637421  547.0   29.37    -211.992719249257    -211.987565627990    -211.977258397538    -211.976827870571   0.0002   0.0117  -0.0002  -0.0511
 
   unit vectors of box grid cell
   in real space:                         in reciprocal space:
       5.6014    0.0002    0.0000              1.0000    0.0000    0.0000
       0.0001    6.0324   -0.0028              0.0000    0.9286    0.0011
       0.0000   -0.0071    6.0523              0.0000    0.0004    0.9255
     39    0.000452726110233  579.0   30.89    -211.993336521724    -211.988185207585    -211.977292851271    -211.976829722910   0.0002   0.0137  -0.0002  -0.0538
 
   unit vectors of box grid cell
   in real space:                         in reciprocal space:
       5.6026    0.0002    0.0000              1.0000    0.0000    0.0000
       0.0001    6.0323   -0.0030              0.0000    0.9288    0.0011
       0.0000   -0.0075    6.0482              0.0000    0.0005    0.9263
     40    0.000474542994497  611.9   32.40    -211.993969484084    -211.988820569595    -211.977330553541    -211.976827653830   0.0002   0.0158  -0.0002  -0.0566
 
   unit vectors of box grid cell
   in real space:                         in reciprocal space:
       5.6038    0.0002    0.0000              1.0000    0.0000    0.0000
       0.0001    6.0322   -0.0031              0.0000    0.9290    0.0012
       0.0000   -0.0078    6.0439              0.0000    0.0005    0.9272
     41    0.000500141206360  645.4   33.94    -211.994622941962    -211.989476520209    -211.977377225447    -211.976826385098   0.0002   0.0182  -0.0002  -0.0594
 
   unit vectors of box grid cell
   in real space:                         in reciprocal space:
       5.6050    0.0002    0.0000              1.0000    0.0000    0.0000
       0.0001    6.0321   -0.0033              0.0000    0.9292    0.0013
       0.0000   -0.0082    6.0396              0.0000    0.0005    0.9281
     42    0.000527433023701  679.6   35.52    -211.995293927150    -211.990150092197    -211.977428567993    -211.976823070412   0.0002   0.0208  -0.0002  -0.0623
 
   unit vectors of box grid cell
   in real space:                         in reciprocal space:
       5.6062    0.0002    0.0000              1.0000    0.0000    0.0000
       0.0001    6.0320   -0.0034              0.0000    0.9294    0.0013
       0.0000   -0.0086    6.0351              0.0000    0.0005    0.9289
     43    0.000553553366743  714.5   37.15    -211.995986548280    -211.990845395902    -211.977486774642    -211.976822080041   0.0002   0.0237  -0.0003  -0.0653
 
   unit vectors of box grid cell
   in real space:                         in reciprocal space:
       5.6075    0.0002    0.0000              1.0000    0.0000    0.0000
       0.0001    6.0319   -0.0036              0.0000    0.9296    0.0014
       0.0000   -0.0090    6.0305              0.0000    0.0006    0.9298
     44    0.000577199206750  750.2   38.83    -211.996699736392    -211.991561364523    -211.977550370498    -211.976822487590   0.0003   0.0268  -0.0003  -0.0683
 
   unit vectors of box grid cell
   in real space:                         in reciprocal space:
       5.6087    0.0002    0.0000              1.0000    0.0000    0.0000
       0.0001    6.0318   -0.0037              0.0000    0.9299    0.0015
       0.0000   -0.0094    6.0258              0.0000    0.0006    0.9308
     45    0.000599525807316  786.7   40.54    -211.997432252179    -211.992296760640    -211.977620099723    -211.976823054442   0.0003   0.0301  -0.0003  -0.0715
 
   unit vectors of box grid cell
   in real space:                         in reciprocal space:
       5.6099    0.0002    0.0000              1.0000    0.0000    0.0000
       0.0001    6.0317   -0.0039              0.0000    0.9301    0.0015
       0.0000   -0.0098    6.0210              0.0000    0.0006    0.9317
     46    0.000622865536707  823.7   42.26    -211.998185693407    -211.993053182983    -211.977700917284    -211.976825508552   0.0003   0.0338  -0.0003  -0.0746
 
   unit vectors of box grid cell
   in real space:                         in reciprocal space:
       5.6111    0.0002    0.0000              1.0000    0.0000    0.0000
       0.0001    6.0316   -0.0041              0.0000    0.9303    0.0016
       0.0000   -0.0103    6.0161              0.0000    0.0006    0.9327
     47    0.000648631262362  861.2   44.00    -211.998962157539    -211.993832728960    -211.977797606279    -211.976832272525   0.0003   0.0377  -0.0003  -0.0779
 
   unit vectors of box grid cell
   in real space:                         in reciprocal space:
       5.6123    0.0002    0.0000              1.0000    0.0000    0.0000
       0.0001    6.0314   -0.0042              0.0000    0.9305    0.0017
       0.0000   -0.0107    6.0110              0.0000    0.0007    0.9337
     48    0.000676137310313  899.0   45.76    -211.999759242611    -211.994632996048    -211.977908476884    -211.976841352630   0.0004   0.0420  -0.0003  -0.0811
 
   unit vectors of box grid cell
   in real space:                         in reciprocal space:
       5.6135    0.0002    0.0000              1.0000    0.0000    0.0000
       0.0001    6.0313   -0.0044              0.0000    0.9307    0.0017
       0.0000   -0.0111    6.0059              0.0000    0.0007    0.9347
     49    0.000703153427077  937.0   47.58    -212.000571464500    -211.995448499814    -211.978027421170    -211.976847839399   0.0004   0.0466  -0.0003  -0.0845
 
   unit vectors of box grid cell
   in real space:                         in reciprocal space:
       5.6148    0.0002    0.0000              1.0000    0.0000    0.0000
       0.0001    6.0312   -0.0046              0.0000    0.9310    0.0018
       0.0000   -0.0116    6.0006              0.0000    0.0007    0.9357
     50    0.000727953169135  975.2   49.45    -212.001402047917    -211.996282465298    -211.978157785091    -211.976855722762   0.0004   0.0516  -0.0003  -0.0879
 
   unit vectors of box grid cell
   in real space:                         in reciprocal space:
       5.6160    0.0002    0.0000              1.0000    0.0000    0.0000
       0.0001    6.0311   -0.0048              0.0000    0.9312    0.0019
       0.0000   -0.0121    5.9952              0.0000    0.0007    0.9367
     51    0.000751203292038 1013.4   51.36    -212.002248502752    -211.997132403112    -211.978299637187    -211.976863266327   0.0005   0.0569  -0.0003  -0.0914
 
   unit vectors of box grid cell
   in real space:                         in reciprocal space:
       5.6172    0.0002    0.0000              1.0000    0.0000    0.0000
       0.0001    6.0310   -0.0050              0.0000    0.9314    0.0019
       0.0000   -0.0125    5.9898              0.0000    0.0008    0.9378
     52    0.000775638757313 1051.5   53.29    -212.003093845597    -211.997981330261    -211.978440460983    -211.976854032515   0.0005   0.0626  -0.0003  -0.0949
 
   unit vectors of box grid cell
   in real space:                         in reciprocal space:
       5.6183    0.0002    0.0000              1.0000    0.0000    0.0000
       0.0001    6.0308   -0.0052              0.0000    0.9316    0.0020
       0.0000   -0.0130    5.9842              0.0000    0.0008    0.9389
     53    0.000803700837444 1089.3   55.22    -212.003974068707    -211.998865238531    -211.978620692467    -211.976864800242   0.0005   0.0686  -0.0003  -0.0986
 
   unit vectors of box grid cell
   in real space:                         in reciprocal space:
       5.6195    0.0002    0.0000              1.0000    0.0000    0.0000
       0.0001    6.0307   -0.0054              0.0000    0.9318    0.0021
       0.0000   -0.0135    5.9785              0.0000    0.0008    0.9400
     54    0.000835158116687 1126.6   57.15    -212.004868826501    -211.999763780913    -211.978822097846    -211.976876340251   0.0006   0.0751  -0.0003  -0.1022
 
   unit vectors of box grid cell
   in real space:                         in reciprocal space:
       5.6207    0.0002    0.0000              1.0000    0.0000    0.0000
       0.0001    6.0306   -0.0056              0.0000    0.9320    0.0022
       0.0000   -0.0140    5.9728              0.0000    0.0009    0.9411
     55    0.000866900293740 1163.4   59.11    -212.005772738730    -212.000671575242    -211.979038626661    -211.976884486599   0.0006   0.0821  -0.0003  -0.1059
 
   unit vectors of box grid cell
   in real space:                         in reciprocal space:
       5.6218    0.0002    0.0000              1.0000    0.0000    0.0000
       0.0001    6.0304   -0.0058              0.0000    0.9322    0.0023
       0.0000   -0.0145    5.9669              0.0000    0.0009    0.9422
     56    0.000895461487044 1199.5   61.12    -212.006691161248    -212.001593975501    -211.979274758198    -211.976895968375   0.0006   0.0894  -0.0003  -0.1097
 
   unit vectors of box grid cell
   in real space:                         in reciprocal space:
       5.6230    0.0002    0.0000              1.0000    0.0000    0.0000
       0.0001    6.0303   -0.0060              0.0000    0.9325    0.0024
       0.0000   -0.0150    5.9610              0.0000    0.0009    0.9433
     57    0.000919901117652 1234.7   63.20    -212.007690774319    -212.002597660322    -211.979598682447    -211.976978722655   0.0007   0.0972  -0.0003  -0.1136
 
   unit vectors of box grid cell
   in real space:                         in reciprocal space:
       5.6241    0.0002    0.0000              1.0000    0.0000    0.0000
       0.0001    6.0301   -0.0062              0.0000    0.9327    0.0024
       0.0000   -0.0156    5.9549              0.0000    0.0010    0.9444
     58    0.000942431616229 1268.9   65.33    -212.008834681994    -212.003745732121    -211.980077930109    -211.977196915407   0.0007   0.1055  -0.0003  -0.1175
 
   unit vectors of box grid cell
   in real space:                         in reciprocal space:
       5.6252    0.0002    0.0000              1.0000    0.0000    0.0000
       0.0001    6.0300   -0.0064              0.0000    0.9329    0.0025
       0.0000   -0.0161    5.9488              0.0000    0.0010    0.9456
     59    0.000966628168102 1301.6   67.48    -212.009751659401    -212.004666963953    -211.980347719316    -211.977181097437   0.0008   0.1143  -0.0003  -0.1214
 
   unit vectors of box grid cell
   in real space:                         in reciprocal space:
       5.6263    0.0002    0.0000              1.0000    0.0000    0.0000
       0.0001    6.0299   -0.0066              0.0000    0.9331    0.0026
       0.0000   -0.0166    5.9426              0.0000    0.0010    0.9468
     60    0.000994548938856 1332.8   69.64    -212.010664603625    -212.005584250309    -211.980636159772    -211.977156300895   0.0008   0.1235  -0.0003  -0.1254
 
   unit vectors of box grid cell
   in real space:                         in reciprocal space:
       5.6274    0.0002    0.0000              1.0000    0.0000    0.0000
       0.0001    6.0297   -0.0068              0.0000    0.9333    0.0027
       0.0000   -0.0172    5.9364              0.0000    0.0011    0.9480
     61    0.001025201901391 1362.3   71.79    -212.011586375938    -212.006510449379    -211.980957791580    -211.977137119397   0.0008   0.1333  -0.0003  -0.1295
 
   unit vectors of box grid cell
   in real space:                         in reciprocal space:
       5.6284    0.0002    0.0000              1.0000    0.0000    0.0000
       0.0001    6.0296   -0.0071              0.0000    0.9335    0.0028
       0.0000   -0.0177    5.9300              0.0000    0.0011    0.9491
     62    0.001055713168604 1390.0   73.96    -212.012514146792    -212.007442728188    -211.981309603082    -211.977122577483   0.0009   0.1436  -0.0003  -0.1336
 
   unit vectors of box grid cell
   in real space:                         in reciprocal space:
       5.6294    0.0002    0.0000              1.0000    0.0000    0.0000
       0.0001    6.0294   -0.0073              0.0000    0.9337    0.0029
       0.0000   -0.0183    5.9237              0.0000    0.0011    0.9503
     63    0.001083448703433 1415.8   76.18    -212.013439809733    -212.008372976626    -211.981683628513    -211.977106642198   0.0009   0.1544  -0.0004  -0.1378
 
   unit vectors of box grid cell
   in real space:                         in reciprocal space:
       5.6305    0.0002    0.0000              1.0000    0.0000    0.0000
       0.0001    6.0292   -0.0075              0.0000    0.9339    0.0030
       0.0000   -0.0189    5.9172              0.0000    0.0012    0.9515
     64    0.001107526445313 1439.3   78.46    -212.014369556571    -212.009307382676    -211.982087908794    -211.977097703053   0.0010   0.1658  -0.0004  -0.1421
 
   unit vectors of box grid cell
   in real space:                         in reciprocal space:
       5.6314    0.0002    0.0000              1.0000    0.0000    0.0000
       0.0001    6.0291   -0.0077              0.0000    0.9340    0.0031
       0.0000   -0.0195    5.9107              0.0000    0.0012    0.9527
     65    0.001129216505804 1460.5   80.78    -212.015296928411    -212.010239483495    -211.982519723666    -211.977091415011   0.0010   0.1777  -0.0004  -0.1464
 
   unit vectors of box grid cell
   in real space:                         in reciprocal space:
       5.6324    0.0002    0.0000              1.0000    0.0000    0.0000
       0.0001    6.0289   -0.0080              0.0000    0.9342    0.0032
       0.0000   -0.0201    5.9042              0.0000    0.0013    0.9540
     66    0.001151211657328 1479.0   83.13    -212.016217376385    -212.011164726109    -211.982979542878    -211.977085379663   0.0011   0.1902  -0.0004  -0.1507
 
   unit vectors of box grid cell
   in real space:                         in reciprocal space:
       5.6333    0.0002   -0.0001              1.0000    0.0000    0.0000
       0.0001    6.0288   -0.0082              0.0000    0.9344    0.0033
       0.0000   -0.0207    5.8977              0.0000    0.0013    0.9552
     67    0.001176362688941 1494.9   85.47    -212.017128221735    -212.012080427363    -211.983469580938    -211.977078976871   0.0011   0.2033  -0.0004  -0.1551
 
   unit vectors of box grid cell
   in real space:                         in reciprocal space:
       5.6342    0.0002   -0.0001              1.0000    0.0000    0.0000
       0.0001    6.0286   -0.0085              0.0000    0.9346    0.0034
       0.0000   -0.0213    5.8911              0.0000    0.0013    0.9564
     68    0.001205546518583 1507.8   87.79    -212.018030583160    -212.012987701145    -211.983993558294    -211.977075281767   0.0012   0.2169  -0.0004  -0.1596
 
   unit vectors of box grid cell
   in real space:                         in reciprocal space:
       5.6351    0.0002   -0.0001              1.0000    0.0000    0.0000
       0.0001    6.0284   -0.0087              0.0000    0.9348    0.0035
       0.0000   -0.0219    5.8845              0.0000    0.0014    0.9576
     69    0.001235982110118 1517.8   90.12    -212.018916197309    -212.013878278999    -211.984542079871    -211.977068136414   0.0012   0.2312  -0.0004  -0.1641
 
   unit vectors of box grid cell
   in real space:                         in reciprocal space:
       5.6360    0.0002   -0.0001              1.0000    0.0000    0.0000
       0.0001    6.0283   -0.0090              0.0000    0.9349    0.0036
       0.0000   -0.0226    5.8778              0.0000    0.0014    0.9589
     70    0.001262834815028 1525.0   92.49    -212.019798372523    -212.014765464145    -211.985125164413    -211.977073063980   0.0013   0.2460  -0.0004  -0.1686
 
   unit vectors of box grid cell
   in real space:                         in reciprocal space:
       5.6368    0.0002   -0.0001              1.0000    0.0000    0.0000
       0.0001    6.0281   -0.0092              0.0000    0.9351    0.0037
       0.0000   -0.0232    5.8712              0.0000    0.0015    0.9601
     71    0.001283451265640 1529.2   94.92    -212.020661099978    -212.015633242655    -211.985725473360    -211.977076266660   0.0013   0.2614  -0.0004  -0.1732
 
   unit vectors of box grid cell
   in real space:                         in reciprocal space:
       5.6376    0.0002   -0.0001              1.0000    0.0000    0.0000
       0.0001    6.0279   -0.0095              0.0000    0.9352    0.0038
       0.0000   -0.0239    5.8646              0.0000    0.0015    0.9613
     72    0.001300105599578 1530.3   97.40    -212.021497836866    -212.016475066365    -211.986339626341    -211.977073230263   0.0014   0.2774  -0.0004  -0.1779
 
   unit vectors of box grid cell
   in real space:                         in reciprocal space:
       5.6383    0.0002   -0.0001              1.0000    0.0000    0.0000
       0.0001    6.0278   -0.0098              0.0000    0.9354    0.0039
       0.0000   -0.0245    5.8579              0.0000    0.0016    0.9625
     73    0.001317680686039 1528.1   99.89    -212.022309988811    -212.017292335082    -211.986974430915    -211.977067295989   0.0014   0.2940  -0.0004  -0.1826
 
   unit vectors of box grid cell
   in real space:                         in reciprocal space:
       5.6390    0.0002   -0.0001              1.0000    0.0000    0.0000
       0.0001    6.0276   -0.0100              0.0000    0.9355    0.0040
       0.0000   -0.0252    5.8513              0.0000    0.0016    0.9637
     74    0.001339063478966 1522.7  102.37    -212.023086528490    -212.018074015498    -211.987621865709    -211.977049206584   0.0015   0.3112  -0.0004  -0.1874
 
   unit vectors of box grid cell
   in real space:                         in reciprocal space:
       5.6397    0.0002   -0.0001              1.0000    0.0000    0.0000
       0.0001    6.0274   -0.0103              0.0000    0.9357    0.0041
       0.0000   -0.0259    5.8447              0.0000    0.0016    0.9649
     75    0.001363573586792 1514.2  104.81    -212.023848124316    -212.018840770345    -211.988301626715    -211.977041150879   0.0015   0.3290  -0.0004  -0.1922
 
   unit vectors of box grid cell
   in real space:                         in reciprocal space:
       5.6404    0.0002   -0.0001              1.0000    0.0000    0.0000
       0.0001    6.0272   -0.0106              0.0000    0.9358    0.0043
       0.0000   -0.0266    5.8381              0.0000    0.0017    0.9661
     76    0.001389066159925 1502.6  107.23    -212.024581185660    -212.019579003627    -211.988997447731    -211.977030970347   0.0016   0.3474  -0.0004  -0.1970
 
   unit vectors of box grid cell
   in real space:                         in reciprocal space:
       5.6410    0.0002   -0.0001              1.0000    0.0000    0.0000
       0.0001    6.0271   -0.0108              0.0000    0.9360    0.0044
       0.0000   -0.0273    5.8316              0.0000    0.0017    0.9673
     77    0.001413535997429 1488.1  109.66    -212.025285546776    -212.020288544061    -211.989706516007    -211.977020025975   0.0016   0.3664  -0.0004  -0.2019
 
   unit vectors of box grid cell
   in real space:                         in reciprocal space:
       5.6416    0.0002   -0.0001              1.0000    0.0000    0.0000
       0.0001    6.0269   -0.0111              0.0000    0.9361    0.0045
       0.0000   -0.0280    5.8251              0.0000    0.0018    0.9685
     78    0.001434592937801 1470.6  112.13    -212.025964563997    -212.020972742105    -211.990428904092    -211.977013165094   0.0017   0.3860  -0.0004  -0.2069
 
   unit vectors of box grid cell
   in real space:                         in reciprocal space:
       5.6422    0.0002   -0.0001              1.0000    0.0000    0.0000
       0.0001    6.0267   -0.0114              0.0000    0.9362    0.0046
       0.0000   -0.0287    5.8187              0.0000    0.0018    0.9697
     79    0.001450268828721 1450.3  114.64    -212.026616658716    -212.021630013333    -211.991159733767    -211.977009994937   0.0017   0.4061  -0.0004  -0.2119
 
   unit vectors of box grid cell
   in real space:                         in reciprocal space:
       5.6427    0.0002   -0.0001              1.0000    0.0000    0.0000
       0.0001    6.0265   -0.0117              0.0000    0.9363    0.0047
       0.0000   -0.0294    5.8123              0.0000    0.0019    0.9708
     80    0.001461929485134 1427.5  117.18    -212.027240225771    -212.022258747080    -211.991897130667    -211.977009852395   0.0017   0.4268  -0.0004  -0.2169
 
   unit vectors of box grid cell
   in real space:                         in reciprocal space:
       5.6432    0.0002   -0.0001              1.0000    0.0000    0.0000
       0.0001    6.0264   -0.0120              0.0000    0.9364    0.0049
       0.0000   -0.0301    5.8060              0.0000    0.0019    0.9720
     81    0.001474497987761 1402.1  119.69    -212.027830676613    -212.022854349305    -211.992639518141    -211.977008890176   0.0018   0.4481  -0.0004  -0.2220
 
   unit vectors of box grid cell
   in real space:                         in reciprocal space:
       5.6437    0.0001   -0.0001              1.0000    0.0000    0.0000
       0.0001    6.0262   -0.0123              0.0000    0.9365    0.0050
       0.0000   -0.0309    5.7997              0.0000    0.0020    0.9731
     82    0.001491623364899 1374.2  122.15    -212.028391263429    -212.023420066508    -211.993391559313    -211.977010865748   0.0018   0.4699  -0.0004  -0.2271
 
   unit vectors of box grid cell
   in real space:                         in reciprocal space:
       5.6441    0.0001   -0.0001              1.0000    0.0000    0.0000
       0.0000    6.0260   -0.0126              0.0000    0.9366    0.0051
       0.0000   -0.0316    5.7935              0.0000    0.0020    0.9742
     83    0.001511929521139 1344.2  124.57    -212.028923202948    -212.023957109963    -211.994150690307    -211.977017354781   0.0019   0.4922  -0.0004  -0.2323
 
   unit vectors of box grid cell
   in real space:                         in reciprocal space:
       5.6445    0.0001   -0.0001              1.0000    0.0000    0.0000
       0.0000    6.0259   -0.0129              0.0000    0.9367    0.0052
       0.0000   -0.0324    5.7874              0.0000    0.0021    0.9753
     84    0.001531448735670 1312.2  126.96    -212.029422406990    -212.024461386645    -211.994906502921    -211.977024625175   0.0019   0.5151  -0.0004  -0.2375
 
   unit vectors of box grid cell
   in real space:                         in reciprocal space:
       5.6449    0.0001   -0.0001              1.0000    0.0000    0.0000
       0.0000    6.0257   -0.0132              0.0000    0.9368    0.0054
       0.0000   -0.0332    5.7814              0.0000    0.0021    0.9764
     85    0.001547682050285 1278.5  129.35    -212.029881154938    -212.024925171413    -211.995646406286    -211.977025246570   0.0020   0.5385  -0.0004  -0.2428
 
   unit vectors of box grid cell
   in real space:                         in reciprocal space:
       5.6452    0.0001   -0.0001              1.0000    0.0000    0.0000
       0.0000    6.0255   -0.0135              0.0000    0.9369    0.0055
       0.0000   -0.0340    5.7754              0.0000    0.0022    0.9775
     86    0.001560136605697 1243.2  131.74    -212.030309747975    -212.025358760862    -211.996377628596    -211.977029573773   0.0020   0.5623  -0.0004  -0.2481
 
   unit vectors of box grid cell
   in real space:                         in reciprocal space:
       5.6455    0.0001   -0.0001              1.0000    0.0000    0.0000
       0.0000    6.0253   -0.0138              0.0000    0.9370    0.0056
       0.0000   -0.0348    5.7696              0.0000    0.0022    0.9785
     87    0.001569696057971 1206.6  134.14    -212.030702685175    -212.025756649490    -211.997092824202    -211.977031940953   0.0020   0.5867  -0.0004  -0.2534
 
   unit vectors of box grid cell
   in real space:                         in reciprocal space:
       5.6457    0.0001   -0.0001              1.0000    0.0000    0.0000
       0.0000    6.0252   -0.0142              0.0000    0.9370    0.0058
       0.0000   -0.0356    5.7638              0.0000    0.0023    0.9795
     88    0.001578868288197 1168.8  136.50    -212.031056202068    -212.026115068375    -211.997788019516    -211.977028315072   0.0021   0.6115  -0.0005  -0.2588
 
   unit vectors of box grid cell
   in real space:                         in reciprocal space:
       5.6459    0.0001   -0.0001              1.0000    0.0000    0.0000
       0.0000    6.0250   -0.0145              0.0000    0.9371    0.0059
       0.0000   -0.0364    5.7582              0.0000    0.0024    0.9805
     89    0.001590214701335 1130.0  138.81    -212.031377421808    -212.026441136329    -211.998470074154    -211.977025313002   0.0021   0.6368  -0.0005  -0.2643
 
   unit vectors of box grid cell
   in real space:                         in reciprocal space:
       5.6461    0.0001   -0.0001              1.0000    0.0000    0.0000
       0.0000    6.0248   -0.0148              0.0000    0.9372    0.0061
       0.0000   -0.0372    5.7527              0.0000    0.0024    0.9815
     90    0.001603538084709 1090.4  141.05    -212.031654986263    -212.026723491257    -211.999124528640    -211.977010828019   0.0022   0.6625  -0.0005  -0.2697
 
   unit vectors of box grid cell
   in real space:                         in reciprocal space:
       5.6462    0.0001   -0.0001              1.0000    0.0000    0.0000
       0.0000    6.0247   -0.0151              0.0000    0.9372    0.0062
       0.0000   -0.0380    5.7472              0.0000    0.0025    0.9824
     91    0.001616710895914 1050.3  143.24    -212.031907445430    -212.026980679817    -211.999765136926    -211.977002703914   0.0022   0.6886  -0.0005  -0.2752
 
   unit vectors of box grid cell
   in real space:                         in reciprocal space:
       5.6463    0.0001   -0.0001              1.0000    0.0000    0.0000
       0.0000    6.0245   -0.0155              0.0000    0.9372    0.0063
       0.0000   -0.0389    5.7419              0.0000    0.0025    0.9834
     92    0.001628290282646 1009.9  145.40    -212.032132392841    -212.027210292543    -212.000385666242    -211.976997941219   0.0022   0.7151  -0.0005  -0.2808
 
   unit vectors of box grid cell
   in real space:                         in reciprocal space:
       5.6464    0.0001   -0.0001              1.0000    0.0000    0.0000
       0.0000    6.0243   -0.0158              0.0000    0.9373    0.0065
      -0.0001   -0.0397    5.7367              0.0000    0.0026    0.9843
     93    0.001637769922801  969.4  147.53    -212.032333094037    -212.027415592043    -212.000986565676    -211.976999124030   0.0023   0.7421  -0.0005  -0.2864
 
   unit vectors of box grid cell
   in real space:                         in reciprocal space:
       5.6465    0.0000   -0.0001              1.0000    0.0000    0.0000
       0.0000    6.0242   -0.0162              0.0000    0.9373    0.0066
      -0.0001   -0.0406    5.7316              0.0000    0.0026    0.9852
     94    0.001645120630513  928.9  149.62    -212.032498092788    -212.027585119390    -212.001553994664    -211.976993864379   0.0023   0.7694  -0.0005  -0.2920
 
   unit vectors of box grid cell
   in real space:                         in reciprocal space:
       5.6465    0.0000   -0.0001              1.0000    0.0000    0.0000
       0.0000    6.0240   -0.0165              0.0000    0.9373    0.0068
      -0.0001   -0.0415    5.7267              0.0000    0.0027    0.9860
     95    0.001651415877025  888.7  151.65    -212.032640523833    -212.027732006901    -212.002100001338    -211.976994333163   0.0023   0.7970  -0.0005  -0.2976
 
   unit vectors of box grid cell
   in real space:                         in reciprocal space:
       5.6464    0.0000   -0.0001              1.0000    0.0000    0.0000
       0.0000    6.0238   -0.0169              0.0000    0.9374    0.0069
      -0.0001   -0.0423    5.7218              0.0000    0.0028    0.9868
     96    0.001658376055289  848.9  153.61    -212.032760054397    -212.027855919476    -212.002623949919    -211.976999175102   0.0023   0.8250  -0.0005  -0.3033
 
   unit vectors of box grid cell
   in real space:                         in reciprocal space:
       5.6464    0.0000   -0.0001              1.0000    0.0000    0.0000
       0.0000    6.0237   -0.0172              0.0000    0.9374    0.0071
      -0.0001   -0.0432    5.7171              0.0000    0.0028    0.9876
     97    0.001666604511175  809.6  155.50    -212.032857587582    -212.027957757974    -212.003125358221    -211.977008140282   0.0024   0.8533  -0.0005  -0.3090
 
   unit vectors of box grid cell
   in real space:                         in reciprocal space:
       5.6463    0.0000   -0.0001              1.0000    0.0000    0.0000
       0.0000    6.0235   -0.0176              0.0000    0.9374    0.0072
      -0.0001   -0.0441    5.7125              0.0000    0.0029    0.9884
     98    0.001674851171074  770.8  157.32    -212.032932138730    -212.028036535795    -212.003600319497    -211.977019232000   0.0024   0.8819  -0.0005  -0.3148
 
   unit vectors of box grid cell
   in real space:                         in reciprocal space:
       5.6461    0.0000   -0.0001              1.0000    0.0000    0.0000
       0.0000    6.0234   -0.0179              0.0000    0.9374    0.0074
      -0.0001   -0.0451    5.7081              0.0000    0.0029    0.9892
     99    0.001681143433552  732.9  159.08    -212.032975894759    -212.028084438469    -212.004037597914    -211.977023641361   0.0024   0.9107  -0.0005  -0.3206

 * Physical Quantities at step:   100

   from rhoofr: total integrated electronic density
   in g-space =     96.000000   in r-space =    96.000000
     Total Electronic Pressure (GPa)      -20.86146    100
     Pressure of Nuclei (GPa)             0.18754    100
     Pressure Total (GPa)            -0.99172    100
 
   unit vectors of box grid cell
   in real space:                         in reciprocal space:
       5.6460    0.0000   -0.0001              1.0000    0.0000    0.0000
       0.0000    6.0232   -0.0183              0.0000    0.9374    0.0076
      -0.0001   -0.0460    5.7037              0.0000    0.0030    0.9899


                total energy =     -212.03299606597 Hartree a.u.
              kinetic energy =       94.67481 Hartree a.u.
        electrostatic energy =     -198.34779 Hartree a.u.
                         esr =        0.42809 Hartree a.u.
                       eself =      210.64152 Hartree a.u.
      pseudopotential energy =      -96.42246 Hartree a.u.
  n-l pseudopotential energy =       36.64064 Hartree a.u.
 exchange-correlation energy =      -48.57820 Hartree a.u.
           average potential =        0.00000 Hartree a.u.



   Eigenvalues (eV), kp =   1 , spin =  1

  -23.45  -22.85  -22.63  -22.06  -21.98  -21.76  -21.59  -21.53  -21.49  -21.44
  -21.33  -21.26  -11.19  -11.09  -10.82  -10.37   -8.73   -8.59   -8.36   -8.19
   -8.11   -8.03   -7.99   -7.18   -6.05   -6.02   -6.01   -5.87   -5.74   -5.38
   -5.29   -5.05   -4.93   -4.58   -4.51   -4.15   -4.09   -3.97   -3.92   -3.81
   -3.77   -3.73   -3.67   -3.23   -2.98   -2.87   -2.80   -2.63
 
 
   CELL_PARAMETERS
    9.41021377   -0.00001245   -0.00009387
   -0.00001350   16.06227292   -0.07510515
   -0.00010616   -0.04783678    9.51345851

   System Density [g/cm^3] :              2.8055776084


   System Volume [A.U.^3] :           1437.9199448524


   Center of mass square displacement (a.u.):   0.106914

   Total stress (GPa)
       -3.57431387         0.01090954        -0.01091016
        0.01090954         0.68184404        -1.14040089
       -0.01091016        -1.14040089        -0.08270051
   ATOMIC_POSITIONS
   O       0.31670368440189E+01     0.14905342619628E+02     0.10048751557791E+01
   O       0.78716453509217E+01     0.68742277732425E+01     0.10285034134890E+01
   O       0.22156187776585E+01     0.59915807836520E+01     0.43405032182556E+01
   O       0.69212690743856E+01     0.14023714986592E+02     0.43167501135051E+01
   O       0.39733858646282E+01     0.11039851854191E+02     0.71462194453806E+01
   O       0.86785733277123E+01     0.30080436899469E+01     0.71709895387462E+01
   O       0.39717702859281E+01     0.48961665707862E+01     0.86621680692229E+01
   O       0.86770065641548E+01     0.12927056799133E+02     0.86389235219590E+01
   O       0.31669527056197E+01     0.11052576794841E+01     0.52913874342619E+01
   O       0.78725037610049E+01     0.91370143922944E+01     0.52674545997422E+01
   O       0.22160918952421E+01     0.10018072082795E+02     0.19518630856374E+01
   O       0.69209225428526E+01     0.19872074409609E+01     0.19761981097894E+01
   Si      0.31832642600353E+00     0.80063128806701E+01     0.31470771599246E+01
   Si      0.50237311638796E+01    -0.25129186750653E-01     0.31712072203416E+01
   Si      0.21428829397575E+01     0.12262609950978E+02    -0.90087724842361E-01
   Si      0.68478706311630E+01     0.42318236902922E+01    -0.66263472234913E-01
   Si      0.21421503400314E+01     0.37480717961855E+01     0.63842598618896E+01
   Si      0.68477654778029E+01     0.11779730772772E+02     0.63603541525641E+01
 
   ATOMIC_VELOCITIES
   O      -0.11762214714388E-03     0.16201961139572E-03    -0.21019247180221E-03
   O      -0.11770636627126E-03     0.16119606842280E-03    -0.21155990534079E-03
   O       0.18344728180484E-03     0.26854708080407E-04    -0.56942433004879E-04
   O       0.18251353142869E-03     0.28527837679030E-04    -0.58631069076755E-04
   O      -0.70321120742360E-04    -0.19430060984746E-03    -0.23436606598498E-03
   O      -0.69923381329378E-04    -0.19364978718923E-03    -0.23380888695563E-03
   O      -0.71589533212818E-04     0.19427823019048E-03     0.23083154973767E-03
   O      -0.71872786129137E-04     0.19434720437537E-03     0.23194387258629E-03
   O      -0.11395417474503E-03    -0.16496475082536E-03     0.21158001321408E-03
   O      -0.11341555205822E-03    -0.16523664135768E-03     0.21009751185868E-03
   O       0.17980172746864E-03    -0.35155822991706E-04     0.59526868625957E-04
   O       0.18012465301304E-03    -0.35642536391439E-04     0.61098714914512E-04
   Si      0.91772317458139E-04     0.25199801721376E-05     0.26241235658903E-06
   Si      0.93015399312088E-04     0.16497649953567E-05    -0.51738990595418E-06
   Si     -0.43213389169795E-04     0.22191465815975E-04    -0.55348390828950E-04
   Si     -0.44061532298037E-04     0.23598822581643E-04    -0.54601062854394E-04
   Si     -0.42947333985884E-04    -0.18499200507703E-04     0.54457858856665E-04
   Si     -0.42840965363540E-04    -0.19045696794825E-04     0.55987887363840E-04
 


   Partial temperatures (for each ionic specie) 
   Species  Temp (K)   Mean Square Displacement (a.u.)
        1   2.24E+02     6.1376E-02
        2   3.44E+01     3.9143E-02
 
  nfi     ekinc              temph  tempp     etot                 enthal               econs                econt              vnhh    xnhh0   vnhp    xnhp0
    100    0.001685204294540  695.9  160.79    -212.032996065974    -212.028108675410    -212.004442782842    -211.977027491333   0.0024   0.9399  -0.0005  -0.3264

   writing restart file (with schema): ./sio2_93.save/
     restart      :      0.00s CPU      0.01s WALL (       1 calls)


   Averaged Physical Quantities
                      accumulated      this run
   ekinc         :        0.00079       0.00079 (AU)
   ekin          :       94.62836      94.62836 (AU)
   epot          :     -343.16334    -343.16334 (AU)
   total energy  :     -212.00502    -212.00502 (AU)
   temperature   :       61.80840      61.80840 (K )
   enthalpy      :     -211.99993    -211.99993 (AU)
   econs         :     -211.98343    -211.98343 (AU)
   pressure      :       -3.82299      -3.82299 (Gpa)
   volume        :     1496.34674    1496.34674 (AU)



     Called by MAIN_LOOP:
     initialize   :      1.54s CPU      1.58s WALL (       1 calls)
     main_loop    :     27.99s CPU     28.16s WALL (     100 calls)
     cpr_total    :     27.99s CPU     28.17s WALL (       1 calls)

     Called by INIT_RUN:
     init_readfil :      0.03s CPU      0.04s WALL (       1 calls)

     Called by CPR:
     cpr_md       :     27.99s CPU     28.17s WALL (     100 calls)
     move_electro :     23.23s CPU     23.36s WALL (     100 calls)

     Called by CELL_DYNAMICS:
     formf        :      0.15s CPU      0.15s WALL (     101 calls)

     Called by move_electrons:
     rhoofr       :      7.24s CPU      7.29s WALL (     100 calls)
     vofrho       :      0.98s CPU      0.98s WALL (     100 calls)
     dforce       :      1.90s CPU      1.93s WALL (    2400 calls)
     calphi       :      0.14s CPU      0.14s WALL (     100 calls)
     newd         :     12.41s CPU     12.45s WALL (     100 calls)
     nlfl         :      0.03s CPU      0.03s WALL (     100 calls)

     Called by ortho:
     ortho_iter   :      0.08s CPU      0.08s WALL (     100 calls)
     rsg          :      0.03s CPU      0.03s WALL (     100 calls)
     rhoset       :      0.06s CPU      0.06s WALL (     100 calls)
     sigset       :      0.05s CPU      0.06s WALL (     100 calls)
     tauset       :      0.05s CPU      0.06s WALL (     100 calls)
     ortho        :      0.57s CPU      0.57s WALL (     100 calls)
     updatc       :      0.05s CPU      0.05s WALL (     100 calls)

     Small boxes:
     rhov         :      0.55s CPU      0.55s WALL (     100 calls)
     fftb         :      9.40s CPU      9.44s WALL (   58901 calls)

     Low-level routines:
     prefor       :      0.11s CPU      0.11s WALL (     401 calls)
     nlfq         :      0.47s CPU      0.47s WALL (     100 calls)
     nlsm1        :      0.14s CPU      0.14s WALL (     101 calls)
     nlsm2        :      0.44s CPU      0.45s WALL (     100 calls)
     fft          :      0.88s CPU      0.88s WALL (    1301 calls)
     ffts         :      0.05s CPU      0.05s WALL (     200 calls)
     fftw         :      1.91s CPU      1.93s WALL (    7200 calls)
     betagx       :      0.87s CPU      0.87s WALL (       1 calls)
     qradx        :      0.49s CPU      0.50s WALL (       1 calls)
     nlinit       :      1.48s CPU      1.49s WALL (       1 calls)
     init_dim     :      0.01s CPU      0.01s WALL (       1 calls)
     newnlinit    :      1.31s CPU      1.35s WALL (     101 calls)
     from_restart :      0.02s CPU      0.03s WALL (       1 calls)
     strucf       :      0.07s CPU      0.07s WALL (     101 calls)
     calbec       :      0.14s CPU      0.14s WALL (     101 calls)
 
 
     CP           :     29.67s CPU     29.89s WALL

 
   This run was terminated on:  20:27:34  24Apr2020            

=------------------------------------------------------------------------------=
   JOB DONE.
=------------------------------------------------------------------------------=
