
     Program PHONON v.5.0.2 starts on 25Jan2013 at 10:46:15 

     This program is part of the open-source Quantum ESPRESSO suite
     for quantum simulation of materials; please cite
         "P. Giannozzi et al., J. Phys.:Condens. Matter 21 395502 (2009);
          URL http://www.quantum-espresso.org", 
     in publications or presentations arising from this work. More details at
     http://www.quantum-espresso.org/quote.php

     Parallel version (MPI), running on     4 processors
     R & G space division:  proc/nbgrp/npool/nimage =       4

   Info: using nr1, nr2, nr3 values from input

   Info: using nr1s, nr2s, nr3s values from input

     IMPORTANT: XC functional enforced from input :
     Exchange-correlation      =  SLA  PZ   NOGX NOGC ( 1 1 0 0 0)
     EXX-fraction              =        0.00
     Any further DFT definition will be discarded
     Please, verify this is what you really want


     Parallelization info
     --------------------
     sticks:   dense  smooth     PW     G-vecs:    dense   smooth      PW
     Min          60      60     20                  610      610     114
     Max          61      61     22                  613      613     115
     Sum         241     241     85                 2445     2445     459

        1 /   8 q-points for this run, from  7 to  7:
       N       xq(1)         xq(2)         xq(3) 
       1   0.000000000   0.000000000   0.000000000
       2  -0.250000000   0.250000000  -0.250000000
       3   0.500000000  -0.500000000   0.500000000
       4   0.000000000   0.500000000   0.000000000
       5   0.750000000  -0.250000000   0.750000000
       6   0.500000000   0.000000000   0.500000000
       7   0.000000000  -1.000000000   0.000000000
       8  -0.500000000  -1.000000000   0.000000000


     Calculation of q =    0.0000000  -1.0000000   0.0000000

     Parallelization info
     --------------------
     sticks:   dense  smooth     PW     G-vecs:    dense   smooth      PW
     Min          60      60     21                  610      610     132
     Max          61      61     22                  613      613     135
     Sum         241     241     85                 2445     2445     531



     bravais-lattice index     =            2
     lattice parameter (alat)  =      10.5000  a.u.
     unit-cell volume          =     289.4063 (a.u.)^3
     number of atoms/cell      =            2
     number of atomic types    =            2
     number of electrons       =         8.00
     number of Kohn-Sham states=            4
     kinetic-energy cutoff     =      16.0000  Ry
     charge density cutoff     =      64.0000  Ry
     Exchange-correlation      =  SLA  PZ   NOGX NOGC ( 1 1 0 0 0)
     EXX-fraction              =        0.00

     celldm(1)=  10.500000  celldm(2)=   0.000000  celldm(3)=   0.000000
     celldm(4)=   0.000000  celldm(5)=   0.000000  celldm(6)=   0.000000

     crystal axes: (cart. coord. in units of alat)
               a(1) = (  -0.500000   0.000000   0.500000 )  
               a(2) = (   0.000000   0.500000   0.500000 )  
               a(3) = (  -0.500000   0.500000   0.000000 )  

     reciprocal axes: (cart. coord. in units 2 pi/alat)
               b(1) = ( -1.000000 -1.000000  1.000000 )  
               b(2) = (  1.000000  1.000000  1.000000 )  
               b(3) = ( -1.000000  1.000000 -1.000000 )  


     PseudoPot. # 1 for Al read from file:
     /scratch/dalcorso_sissa/espresso/pseudo/Al.pz-vbc.UPF
     MD5 check sum: 614279c88ff8d45c90147292d03ed420
     Pseudo is Norm-conserving, Zval =  3.0
     Generated by new atomic code, or converted to UPF format
     Using radial grid of  171 points,  2 beta functions with: 
                l(1) =   0
                l(2) =   1

     PseudoPot. # 2 for As read from file:
     /scratch/dalcorso_sissa/espresso/pseudo/As.pz-bhs.UPF
     MD5 check sum: 451cd3365afcfc94d28b1934951c34a8
     Pseudo is Norm-conserving, Zval =  5.0
     Generated by new atomic code, or converted to UPF format
     Using radial grid of  525 points,  2 beta functions with: 
                l(1) =   0
                l(2) =   1

     atomic species   valence    mass     pseudopotential
        Al             3.00    26.98000     Al( 1.00)
        As             5.00    74.92000     As( 1.00)

     24 Sym. Ops. (no inversion) found



   Cartesian axes

     site n.     atom                  positions (alat units)
         1           Al  tau(   1) = (   0.0000000   0.0000000   0.0000000  )
         2           As  tau(   2) = (   0.2500000   0.2500000   0.2500000  )

     number of k points=     6
                       cart. coord. in units 2pi/alat
        k(    1) = (   0.2500000   0.2500000   0.2500000), wk =   0.5000000
        k(    2) = (   0.2500000  -0.7500000   0.2500000), wk =   0.0000000
        k(    3) = (   0.2500000   0.2500000   0.7500000), wk =   1.0000000
        k(    4) = (   0.2500000  -0.7500000   0.7500000), wk =   0.0000000
        k(    5) = (   0.2500000   0.7500000   0.2500000), wk =   0.5000000
        k(    6) = (   0.2500000  -0.2500000   0.2500000), wk =   0.0000000

     Dense  grid:     2445 G-vectors     FFT dimensions: (  20,  20,  20)

     Largest allocated arrays     est. size (Mb)     dimensions
        Kohn-Sham Wavefunctions         0.00 Mb     (     80,    4)
        NL pseudopotentials             0.01 Mb     (     80,    8)
        Each V/rho on FFT grid          0.03 Mb     (   2000)
        Each G-vector array             0.00 Mb     (    611)
        G-vector shells                 0.00 Mb     (     60)
     Largest temporary arrays     est. size (Mb)     dimensions
        Auxiliary wavefunctions         0.02 Mb     (     80,   16)
        Each subspace H/S matrix        0.00 Mb     (  16,  16)
        Each <psi_i|beta_j> matrix      0.00 Mb     (      8,    4)

     The potential is recalculated from file :
     /scratch/tmp/7.1/_ph0/alas.save/charge-density.dat

     Starting wfc are    8 atomic wfcs

     total cpu time spent up to now is        0.0 secs

     per-process dynamical memory:     5.3 Mb

     Band Structure Calculation
     Davidson diagonalization with overlap

     ethr =  1.25E-10,  avg # of iterations = 11.7

     total cpu time spent up to now is        0.1 secs

     End of band structure calculation

          k = 0.2500 0.2500 0.2500     band energies (ev):

    -6.3572   1.7036   4.6972   4.6972

          k = 0.2500-0.7500 0.2500     band energies (ev):

    -5.1816  -0.0414   2.3127   3.5087

          k = 0.2500 0.2500 0.7500     band energies (ev):

    -5.1816  -0.0414   2.3127   3.5087

          k = 0.2500-0.7500 0.7500     band energies (ev):

    -5.1816  -0.0414   2.3127   3.5087

          k = 0.2500 0.7500 0.2500     band energies (ev):

    -5.1816  -0.0414   2.3127   3.5087

          k = 0.2500-0.2500 0.2500     band energies (ev):

    -6.3572   1.7036   4.6972   4.6972

     Writing output data file alas.save

                                                                                

     bravais-lattice index     =            2
     lattice parameter (alat)  =      10.5000  a.u.
     unit-cell volume          =     289.4063 (a.u.)^3
     number of atoms/cell      =            2
     number of atomic types    =            2
     kinetic-energy cut-off    =      16.0000  Ry
     charge density cut-off    =      64.0000  Ry
     convergence threshold     =      1.0E-12
     beta                      =       0.7000
     number of iterations used =            4
     Exchange-correlation      =  SLA  PZ   NOGX NOGC ( 1 1 0 0 0)
     EXX-fraction              =        0.00


     celldm(1)=   10.50000  celldm(2)=    0.00000  celldm(3)=    0.00000
     celldm(4)=    0.00000  celldm(5)=    0.00000  celldm(6)=    0.00000

     crystal axes: (cart. coord. in units of alat)
               a(1) = ( -0.5000  0.0000  0.5000 )  
               a(2) = (  0.0000  0.5000  0.5000 )  
               a(3) = ( -0.5000  0.5000  0.0000 )  

     reciprocal axes: (cart. coord. in units 2 pi/alat)
               b(1) = ( -1.0000 -1.0000  1.0000 )  
               b(2) = (  1.0000  1.0000  1.0000 )  
               b(3) = ( -1.0000  1.0000 -1.0000 )  


     Atoms inside the unit cell: 

     Cartesian axes

     site n.  atom      mass           positions (alat units)
        1     Al  26.9800   tau(    1) = (    0.00000    0.00000    0.00000  )
        2     As  74.9200   tau(    2) = (    0.25000    0.25000    0.25000  )

     Computing dynamical matrix for 
                    q = (   0.0000000  -1.0000000   0.0000000 )

      9 Sym.Ops. (with q -> -q+G )


     G cutoff =  178.7306  (    611 G-vectors)     FFT grid: ( 20, 20, 20)
     number of k points=     6

     PseudoPot. # 1 for Al read from file:
     /scratch/dalcorso_sissa/espresso/pseudo/Al.pz-vbc.UPF
     MD5 check sum: 614279c88ff8d45c90147292d03ed420
     Pseudo is Norm-conserving, Zval =  3.0
     Generated by new atomic code, or converted to UPF format
     Using radial grid of  171 points,  2 beta functions with: 
                l(1) =   0
                l(2) =   1

     PseudoPot. # 2 for As read from file:
     /scratch/dalcorso_sissa/espresso/pseudo/As.pz-bhs.UPF
     MD5 check sum: 451cd3365afcfc94d28b1934951c34a8
     Pseudo is Norm-conserving, Zval =  5.0
     Generated by new atomic code, or converted to UPF format
     Using radial grid of  525 points,  2 beta functions with: 
                l(1) =   0
                l(2) =   1


     Atomic displacements:
     There are   4 irreducible representations

     Representation     1      1 modes -A_1  X_1  W_1  To be done

     Representation     2      1 modes -B_2  X_3  W_2  Not done in this run

     Representation     3      2 modes -E    X_5  W_3  Not done in this run

     Representation     4      2 modes -E    X_5  W_3  Not done in this run

     Compute atoms:     2,



     Alpha used in Ewald sum =   0.7000
     PHONON       :     0.30s CPU         0.34s WALL



     Representation #  1 mode #   1

     Self-consistent Calculation

      iter #   1 total cpu time :     0.4 secs   av.it.:   6.3
      thresh= 1.000E-02 alpha_mix =  0.700 |ddv_scf|^2 =  1.534E-04

      iter #   2 total cpu time :     0.4 secs   av.it.:   8.7
      thresh= 1.238E-03 alpha_mix =  0.700 |ddv_scf|^2 =  2.475E-04

      iter #   3 total cpu time :     0.4 secs   av.it.:   8.0
      thresh= 1.573E-03 alpha_mix =  0.700 |ddv_scf|^2 =  2.932E-09

      iter #   4 total cpu time :     0.4 secs   av.it.:   8.7
      thresh= 5.415E-06 alpha_mix =  0.700 |ddv_scf|^2 =  1.228E-10

      iter #   5 total cpu time :     0.4 secs   av.it.:   8.3
      thresh= 1.108E-06 alpha_mix =  0.700 |ddv_scf|^2 =  6.512E-12

      iter #   6 total cpu time :     0.4 secs   av.it.:   8.3
      thresh= 2.552E-07 alpha_mix =  0.700 |ddv_scf|^2 =  6.426E-15

     End of self-consistent calculation

     Convergence has been achieved 

     Not diagonalizing because representation    2 is not done

     init_run     :      0.02s CPU      0.03s WALL (       1 calls)
     electrons    :      0.03s CPU      0.04s WALL (       1 calls)

     Called by init_run:
     wfcinit      :      0.00s CPU      0.00s WALL (       1 calls)
     potinit      :      0.00s CPU      0.00s WALL (       1 calls)

     Called by electrons:
     c_bands      :      0.03s CPU      0.04s WALL (       1 calls)
     v_of_rho     :      0.00s CPU      0.00s WALL (       2 calls)

     Called by c_bands:
     init_us_2    :      0.00s CPU      0.00s WALL (      33 calls)
     cegterg      :      0.03s CPU      0.03s WALL (       6 calls)

     Called by *egterg:
     h_psi        :      0.02s CPU      0.03s WALL (      82 calls)
     g_psi        :      0.00s CPU      0.00s WALL (      70 calls)
     cdiaghg      :      0.00s CPU      0.01s WALL (      76 calls)

     Called by h_psi:
     add_vuspsi   :      0.00s CPU      0.00s WALL (     248 calls)

     General routines
     calbec       :      0.00s CPU      0.01s WALL (     456 calls)
     fft          :      0.00s CPU      0.00s WALL (      25 calls)
     ffts         :      0.00s CPU      0.00s WALL (       9 calls)
     fftw         :      0.05s CPU      0.07s WALL (    2136 calls)
     davcio       :      0.00s CPU      0.00s WALL (     143 calls)

     Parallel routines
     fft_scatter  :      0.01s CPU      0.02s WALL (    2170 calls)

     PHONON       :     0.39s CPU         0.45s WALL

     INITIALIZATION: 
     phq_setup    :      0.00s CPU      0.00s WALL (       1 calls)
     phq_init     :      0.05s CPU      0.05s WALL (       1 calls)

     phq_init     :      0.05s CPU      0.05s WALL (       1 calls)
     init_vloc    :      0.01s CPU      0.01s WALL (       2 calls)
     init_us_1    :      0.02s CPU      0.02s WALL (       2 calls)

     DYNAMICAL MATRIX:
     dynmat0      :      0.00s CPU      0.00s WALL (       1 calls)
     phqscf       :      0.09s CPU      0.11s WALL (       1 calls)
     dynmatrix    :      0.00s CPU      0.00s WALL (       1 calls)

     phqscf       :      0.09s CPU      0.11s WALL (       1 calls)
     solve_linter :      0.08s CPU      0.11s WALL (       1 calls)
     drhodv       :      0.00s CPU      0.00s WALL (       1 calls)

     dynmat0      :      0.00s CPU      0.00s WALL (       1 calls)
     dynmat_us    :      0.00s CPU      0.00s WALL (       1 calls)
     d2ionq       :      0.00s CPU      0.00s WALL (       1 calls)

     dynmat_us    :      0.00s CPU      0.00s WALL (       1 calls)

     phqscf       :      0.09s CPU      0.11s WALL (       1 calls)
     solve_linter :      0.08s CPU      0.11s WALL (       1 calls)

     solve_linter :      0.08s CPU      0.11s WALL (       1 calls)
     dvqpsi_us    :      0.00s CPU      0.00s WALL (       3 calls)
     ortho        :      0.00s CPU      0.00s WALL (      18 calls)
     cgsolve      :      0.04s CPU      0.06s WALL (      18 calls)
     incdrhoscf   :      0.00s CPU      0.01s WALL (      18 calls)
     vpsifft      :      0.00s CPU      0.00s WALL (      15 calls)
     dv_of_drho   :      0.00s CPU      0.00s WALL (       6 calls)
     mix_pot      :      0.00s CPU      0.00s WALL (       6 calls)
     psymdvscf    :      0.03s CPU      0.03s WALL (       6 calls)

     dvqpsi_us    :      0.00s CPU      0.00s WALL (       3 calls)
     dvqpsi_us_on :      0.00s CPU      0.00s WALL (       3 calls)

     cgsolve      :      0.04s CPU      0.06s WALL (      18 calls)
     ch_psi       :      0.04s CPU      0.06s WALL (     166 calls)

     ch_psi       :      0.04s CPU      0.06s WALL (     166 calls)
     h_psiq       :      0.04s CPU      0.05s WALL (     166 calls)
     last         :      0.00s CPU      0.00s WALL (     166 calls)

     h_psiq       :      0.04s CPU      0.05s WALL (     166 calls)
     firstfft     :      0.02s CPU      0.02s WALL (     608 calls)
     secondfft    :      0.01s CPU      0.02s WALL (     608 calls)
     add_vuspsi   :      0.00s CPU      0.00s WALL (     248 calls)

     incdrhoscf   :      0.00s CPU      0.01s WALL (      18 calls)


      General routines
     calbec       :      0.00s CPU      0.01s WALL (     456 calls)
     fft          :      0.00s CPU      0.00s WALL (      25 calls)
     ffts         :      0.00s CPU      0.00s WALL (       9 calls)
     fftw         :      0.05s CPU      0.07s WALL (    2136 calls)
     davcio       :      0.00s CPU      0.00s WALL (     143 calls)
     write_rec    :      0.01s CPU      0.01s WALL (       7 calls)


     PHONON       :     0.39s CPU         0.45s WALL


   This run was terminated on:  10:46:15  25Jan2013            

=------------------------------------------------------------------------------=
   JOB DONE.
=------------------------------------------------------------------------------=
