
     Program PHONON v.5.0.2 starts on 25Jan2013 at 10:46: 9 

     This program is part of the open-source Quantum ESPRESSO suite
     for quantum simulation of materials; please cite
         "P. Giannozzi et al., J. Phys.:Condens. Matter 21 395502 (2009);
          URL http://www.quantum-espresso.org", 
     in publications or presentations arising from this work. More details at
     http://www.quantum-espresso.org/quote.php

     Parallel version (MPI), running on     4 processors
     R & G space division:  proc/nbgrp/npool/nimage =       4

   Info: using nr1, nr2, nr3 values from input

   Info: using nr1s, nr2s, nr3s values from input

     IMPORTANT: XC functional enforced from input :
     Exchange-correlation      =  SLA  PZ   NOGX NOGC ( 1 1 0 0 0)
     EXX-fraction              =        0.00
     Any further DFT definition will be discarded
     Please, verify this is what you really want


     Parallelization info
     --------------------
     sticks:   dense  smooth     PW     G-vecs:    dense   smooth      PW
     Min          60      60     20                  610      610     114
     Max          61      61     22                  613      613     115
     Sum         241     241     85                 2445     2445     459

        1 /   8 q-points for this run, from  6 to  6:
       N       xq(1)         xq(2)         xq(3) 
       1   0.000000000   0.000000000   0.000000000
       2  -0.250000000   0.250000000  -0.250000000
       3   0.500000000  -0.500000000   0.500000000
       4   0.000000000   0.500000000   0.000000000
       5   0.750000000  -0.250000000   0.750000000
       6   0.500000000   0.000000000   0.500000000
       7   0.000000000  -1.000000000   0.000000000
       8  -0.500000000  -1.000000000   0.000000000


     Calculation of q =    0.5000000   0.0000000   0.5000000

     Parallelization info
     --------------------
     sticks:   dense  smooth     PW     G-vecs:    dense   smooth      PW
     Min          60      60     21                  610      610     133
     Max          61      61     22                  613      613     136
     Sum         241     241     85                 2445     2445     537



     bravais-lattice index     =            2
     lattice parameter (alat)  =      10.5000  a.u.
     unit-cell volume          =     289.4063 (a.u.)^3
     number of atoms/cell      =            2
     number of atomic types    =            2
     number of electrons       =         8.00
     number of Kohn-Sham states=            4
     kinetic-energy cutoff     =      16.0000  Ry
     charge density cutoff     =      64.0000  Ry
     Exchange-correlation      =  SLA  PZ   NOGX NOGC ( 1 1 0 0 0)
     EXX-fraction              =        0.00

     celldm(1)=  10.500000  celldm(2)=   0.000000  celldm(3)=   0.000000
     celldm(4)=   0.000000  celldm(5)=   0.000000  celldm(6)=   0.000000

     crystal axes: (cart. coord. in units of alat)
               a(1) = (  -0.500000   0.000000   0.500000 )  
               a(2) = (   0.000000   0.500000   0.500000 )  
               a(3) = (  -0.500000   0.500000   0.000000 )  

     reciprocal axes: (cart. coord. in units 2 pi/alat)
               b(1) = ( -1.000000 -1.000000  1.000000 )  
               b(2) = (  1.000000  1.000000  1.000000 )  
               b(3) = ( -1.000000  1.000000 -1.000000 )  


     PseudoPot. # 1 for Al read from file:
     /scratch/dalcorso_sissa/espresso/pseudo/Al.pz-vbc.UPF
     MD5 check sum: 614279c88ff8d45c90147292d03ed420
     Pseudo is Norm-conserving, Zval =  3.0
     Generated by new atomic code, or converted to UPF format
     Using radial grid of  171 points,  2 beta functions with: 
                l(1) =   0
                l(2) =   1

     PseudoPot. # 2 for As read from file:
     /scratch/dalcorso_sissa/espresso/pseudo/As.pz-bhs.UPF
     MD5 check sum: 451cd3365afcfc94d28b1934951c34a8
     Pseudo is Norm-conserving, Zval =  5.0
     Generated by new atomic code, or converted to UPF format
     Using radial grid of  525 points,  2 beta functions with: 
                l(1) =   0
                l(2) =   1

     atomic species   valence    mass     pseudopotential
        Al             3.00    26.98000     Al( 1.00)
        As             5.00    74.92000     As( 1.00)

     24 Sym. Ops. (no inversion) found



   Cartesian axes

     site n.     atom                  positions (alat units)
         1           Al  tau(   1) = (   0.0000000   0.0000000   0.0000000  )
         2           As  tau(   2) = (   0.2500000   0.2500000   0.2500000  )

     number of k points=    40
                       cart. coord. in units 2pi/alat
        k(    1) = (   0.2500000   0.2500000   0.2500000), wk =   0.0625000
        k(    2) = (   0.7500000   0.2500000   0.7500000), wk =   0.0000000
        k(    3) = (   0.2500000   0.2500000   0.7500000), wk =   0.1250000
        k(    4) = (   0.7500000   0.2500000   1.2500000), wk =   0.0000000
        k(    5) = (  -0.2500000   0.2500000  -0.2500000), wk =   0.0625000
        k(    6) = (   0.2500000   0.2500000   0.2500000), wk =   0.0000000
        k(    7) = (   0.2500000  -0.2500000  -0.2500000), wk =   0.1250000
        k(    8) = (   0.7500000  -0.2500000   0.2500000), wk =   0.0000000
        k(    9) = (  -0.2500000  -0.2500000  -0.2500000), wk =   0.0625000
        k(   10) = (   0.2500000  -0.2500000   0.2500000), wk =   0.0000000
        k(   11) = (   0.2500000   0.2500000  -0.2500000), wk =   0.1250000
        k(   12) = (   0.7500000   0.2500000   0.2500000), wk =   0.0000000
        k(   13) = (   0.2500000  -0.2500000   0.2500000), wk =   0.0625000
        k(   14) = (   0.7500000  -0.2500000   0.7500000), wk =   0.0000000
        k(   15) = (  -0.2500000   0.2500000  -0.7500000), wk =   0.1250000
        k(   16) = (   0.2500000   0.2500000  -0.2500000), wk =   0.0000000
        k(   17) = (   0.2500000  -0.2500000  -0.7500000), wk =   0.1250000
        k(   18) = (   0.7500000  -0.2500000  -0.2500000), wk =   0.0000000
        k(   19) = (   0.2500000   0.7500000   0.2500000), wk =   0.0625000
        k(   20) = (   0.7500000   0.7500000   0.7500000), wk =   0.0000000
        k(   21) = (  -0.2500000   0.7500000  -0.2500000), wk =   0.0625000
        k(   22) = (   0.2500000   0.7500000   0.2500000), wk =   0.0000000
        k(   23) = (   0.2500000  -0.7500000  -0.2500000), wk =   0.1250000
        k(   24) = (   0.7500000  -0.7500000   0.2500000), wk =   0.0000000
        k(   25) = (   0.7500000  -0.2500000  -0.2500000), wk =   0.1250000
        k(   26) = (   1.2500000  -0.2500000   0.2500000), wk =   0.0000000
        k(   27) = (  -0.2500000  -0.2500000  -0.7500000), wk =   0.1250000
        k(   28) = (   0.2500000  -0.2500000  -0.2500000), wk =   0.0000000
        k(   29) = (   0.2500000   0.2500000  -0.7500000), wk =   0.1250000
        k(   30) = (   0.7500000   0.2500000  -0.2500000), wk =   0.0000000
        k(   31) = (   0.2500000  -0.2500000   0.7500000), wk =   0.1250000
        k(   32) = (   0.7500000  -0.2500000   1.2500000), wk =   0.0000000
        k(   33) = (  -0.2500000   0.2500000   0.7500000), wk =   0.1250000
        k(   34) = (   0.2500000   0.2500000   1.2500000), wk =   0.0000000
        k(   35) = (  -0.2500000   0.7500000   0.2500000), wk =   0.1250000
        k(   36) = (   0.2500000   0.7500000   0.7500000), wk =   0.0000000
        k(   37) = (  -0.2500000  -0.7500000  -0.2500000), wk =   0.0625000
        k(   38) = (   0.2500000  -0.7500000   0.2500000), wk =   0.0000000
        k(   39) = (   0.2500000  -0.7500000   0.2500000), wk =   0.0625000
        k(   40) = (   0.7500000  -0.7500000   0.7500000), wk =   0.0000000

     Dense  grid:     2445 G-vectors     FFT dimensions: (  20,  20,  20)

     Largest allocated arrays     est. size (Mb)     dimensions
        Kohn-Sham Wavefunctions         0.01 Mb     (     87,    4)
        NL pseudopotentials             0.01 Mb     (     87,    8)
        Each V/rho on FFT grid          0.03 Mb     (   2000)
        Each G-vector array             0.00 Mb     (    611)
        G-vector shells                 0.00 Mb     (     60)
     Largest temporary arrays     est. size (Mb)     dimensions
        Auxiliary wavefunctions         0.02 Mb     (     87,   16)
        Each subspace H/S matrix        0.00 Mb     (  16,  16)
        Each <psi_i|beta_j> matrix      0.00 Mb     (      8,    4)

     The potential is recalculated from file :
     /scratch/tmp/6.4/_ph0/alas.save/charge-density.dat

     Starting wfc are    8 atomic wfcs

     total cpu time spent up to now is        0.0 secs

     per-process dynamical memory:     5.3 Mb

     Band Structure Calculation
     Davidson diagonalization with overlap

     ethr =  1.25E-10,  avg # of iterations = 11.7

     total cpu time spent up to now is        0.3 secs

     End of band structure calculation

          k = 0.2500 0.2500 0.2500     band energies (ev):

    -6.3572   1.7036   4.6972   4.6972

          k = 0.7500 0.2500 0.7500     band energies (ev):

    -5.1816  -0.0414   2.3127   3.5087

          k = 0.2500 0.2500 0.7500     band energies (ev):

    -5.1816  -0.0414   2.3127   3.5087

          k = 0.7500 0.2500 1.2500     band energies (ev):

    -5.1816  -0.0414   2.3127   3.5087

          k =-0.2500 0.2500-0.2500     band energies (ev):

    -6.3572   1.7036   4.6972   4.6972

          k = 0.2500 0.2500 0.2500     band energies (ev):

    -6.3572   1.7036   4.6972   4.6972

          k = 0.2500-0.2500-0.2500     band energies (ev):

    -6.3572   1.7036   4.6972   4.6972

          k = 0.7500-0.2500 0.2500     band energies (ev):

    -5.1816  -0.0414   2.3127   3.5087

          k =-0.2500-0.2500-0.2500     band energies (ev):

    -6.3572   1.7036   4.6972   4.6972

          k = 0.2500-0.2500 0.2500     band energies (ev):

    -6.3572   1.7036   4.6972   4.6972

          k = 0.2500 0.2500-0.2500     band energies (ev):

    -6.3572   1.7036   4.6972   4.6972

          k = 0.7500 0.2500 0.2500     band energies (ev):

    -5.1816  -0.0414   2.3127   3.5087

          k = 0.2500-0.2500 0.2500     band energies (ev):

    -6.3572   1.7036   4.6972   4.6972

          k = 0.7500-0.2500 0.7500     band energies (ev):

    -5.1816  -0.0414   2.3127   3.5087

          k =-0.2500 0.2500-0.7500     band energies (ev):

    -5.1816  -0.0414   2.3127   3.5087

          k = 0.2500 0.2500-0.2500     band energies (ev):

    -6.3572   1.7036   4.6972   4.6972

          k = 0.2500-0.2500-0.7500     band energies (ev):

    -5.1816  -0.0414   2.3127   3.5087

          k = 0.7500-0.2500-0.2500     band energies (ev):

    -5.1816  -0.0414   2.3127   3.5087

          k = 0.2500 0.7500 0.2500     band energies (ev):

    -5.1816  -0.0414   2.3127   3.5087

          k = 0.7500 0.7500 0.7500     band energies (ev):

    -6.3572   1.7036   4.6972   4.6972

          k =-0.2500 0.7500-0.2500     band energies (ev):

    -5.1816  -0.0414   2.3127   3.5087

          k = 0.2500 0.7500 0.2500     band energies (ev):

    -5.1816  -0.0414   2.3127   3.5087

          k = 0.2500-0.7500-0.2500     band energies (ev):

    -5.1816  -0.0414   2.3127   3.5087

          k = 0.7500-0.7500 0.2500     band energies (ev):

    -5.1816  -0.0414   2.3127   3.5087

          k = 0.7500-0.2500-0.2500     band energies (ev):

    -5.1816  -0.0414   2.3127   3.5087

          k = 1.2500-0.2500 0.2500     band energies (ev):

    -5.1816  -0.0414   2.3127   3.5087

          k =-0.2500-0.2500-0.7500     band energies (ev):

    -5.1816  -0.0414   2.3127   3.5087

          k = 0.2500-0.2500-0.2500     band energies (ev):

    -6.3572   1.7036   4.6972   4.6972

          k = 0.2500 0.2500-0.7500     band energies (ev):

    -5.1816  -0.0414   2.3127   3.5087

          k = 0.7500 0.2500-0.2500     band energies (ev):

    -5.1816  -0.0414   2.3127   3.5087

          k = 0.2500-0.2500 0.7500     band energies (ev):

    -5.1816  -0.0414   2.3127   3.5087

          k = 0.7500-0.2500 1.2500     band energies (ev):

    -5.1816  -0.0414   2.3127   3.5087

          k =-0.2500 0.2500 0.7500     band energies (ev):

    -5.1816  -0.0414   2.3127   3.5087

          k = 0.2500 0.2500 1.2500     band energies (ev):

    -5.1816  -0.0414   2.3127   3.5087

          k =-0.2500 0.7500 0.2500     band energies (ev):

    -5.1816  -0.0414   2.3127   3.5087

          k = 0.2500 0.7500 0.7500     band energies (ev):

    -5.1816  -0.0414   2.3127   3.5087

          k =-0.2500-0.7500-0.2500     band energies (ev):

    -5.1816  -0.0414   2.3127   3.5087

          k = 0.2500-0.7500 0.2500     band energies (ev):

    -5.1816  -0.0414   2.3127   3.5087

          k = 0.2500-0.7500 0.2500     band energies (ev):

    -5.1816  -0.0414   2.3127   3.5087

          k = 0.7500-0.7500 0.7500     band energies (ev):

    -6.3572   1.7036   4.6972   4.6972

     Writing output data file alas.save

                                                                                

     bravais-lattice index     =            2
     lattice parameter (alat)  =      10.5000  a.u.
     unit-cell volume          =     289.4063 (a.u.)^3
     number of atoms/cell      =            2
     number of atomic types    =            2
     kinetic-energy cut-off    =      16.0000  Ry
     charge density cut-off    =      64.0000  Ry
     convergence threshold     =      1.0E-12
     beta                      =       0.7000
     number of iterations used =            4
     Exchange-correlation      =  SLA  PZ   NOGX NOGC ( 1 1 0 0 0)
     EXX-fraction              =        0.00


     celldm(1)=   10.50000  celldm(2)=    0.00000  celldm(3)=    0.00000
     celldm(4)=    0.00000  celldm(5)=    0.00000  celldm(6)=    0.00000

     crystal axes: (cart. coord. in units of alat)
               a(1) = ( -0.5000  0.0000  0.5000 )  
               a(2) = (  0.0000  0.5000  0.5000 )  
               a(3) = ( -0.5000  0.5000  0.0000 )  

     reciprocal axes: (cart. coord. in units 2 pi/alat)
               b(1) = ( -1.0000 -1.0000  1.0000 )  
               b(2) = (  1.0000  1.0000  1.0000 )  
               b(3) = ( -1.0000  1.0000 -1.0000 )  


     Atoms inside the unit cell: 

     Cartesian axes

     site n.  atom      mass           positions (alat units)
        1     Al  26.9800   tau(    1) = (    0.00000    0.00000    0.00000  )
        2     As  74.9200   tau(    2) = (    0.25000    0.25000    0.25000  )

     Computing dynamical matrix for 
                    q = (   0.5000000   0.0000000   0.5000000 )

      2 Sym.Ops. (no q -> -q+G )


     G cutoff =  178.7306  (    611 G-vectors)     FFT grid: ( 20, 20, 20)
     number of k points=    40

     PseudoPot. # 1 for Al read from file:
     /scratch/dalcorso_sissa/espresso/pseudo/Al.pz-vbc.UPF
     MD5 check sum: 614279c88ff8d45c90147292d03ed420
     Pseudo is Norm-conserving, Zval =  3.0
     Generated by new atomic code, or converted to UPF format
     Using radial grid of  171 points,  2 beta functions with: 
                l(1) =   0
                l(2) =   1

     PseudoPot. # 2 for As read from file:
     /scratch/dalcorso_sissa/espresso/pseudo/As.pz-bhs.UPF
     MD5 check sum: 451cd3365afcfc94d28b1934951c34a8
     Pseudo is Norm-conserving, Zval =  5.0
     Generated by new atomic code, or converted to UPF format
     Using radial grid of  525 points,  2 beta functions with: 
                l(1) =   0
                l(2) =   1


     Atomic displacements:
     There are   6 irreducible representations

     Representation     1      1 modes -A'  Not done in this run

     Representation     2      1 modes -A'  Not done in this run

     Representation     3      1 modes -A'  Not done in this run

     Representation     4      1 modes -A'  To be done

     Representation     5      1 modes -A''  Not done in this run

     Representation     6      1 modes -A''  Not done in this run

     Compute atoms:     1,


     PHONON       :     0.50s CPU         0.60s WALL



     Representation #  4 mode #   4

     Self-consistent Calculation

      iter #   1 total cpu time :     0.7 secs   av.it.:   5.7
      thresh= 1.000E-02 alpha_mix =  0.700 |ddv_scf|^2 =  6.902E-05

     Maximum CPU time exceeded

     max_seconds     =       0.50
     elapsed seconds =       0.52

     PHONON       :     0.54s CPU         0.66s WALL

     INITIALIZATION: 
     phq_setup    :      0.00s CPU      0.00s WALL (       1 calls)
     phq_init     :      0.05s CPU      0.05s WALL (       1 calls)

     phq_init     :      0.05s CPU      0.05s WALL (       1 calls)
     init_vloc    :      0.01s CPU      0.01s WALL (       2 calls)
     init_us_1    :      0.02s CPU      0.02s WALL (       2 calls)

     DYNAMICAL MATRIX:
     phqscf       :      0.04s CPU      0.07s WALL (       1 calls)

     phqscf       :      0.04s CPU      0.07s WALL (       2 calls)
     solve_linter :      0.04s CPU      0.07s WALL (       1 calls)



     phqscf       :      0.04s CPU      0.07s WALL (       3 calls)
     solve_linter :      0.04s CPU      0.07s WALL (       2 calls)

     solve_linter :      0.04s CPU      0.07s WALL (       3 calls)
     dvqpsi_us    :      0.01s CPU      0.01s WALL (      20 calls)
     ortho        :      0.00s CPU      0.00s WALL (      20 calls)
     cgsolve      :      0.03s CPU      0.05s WALL (      20 calls)
     incdrhoscf   :      0.00s CPU      0.01s WALL (      20 calls)
     dv_of_drho   :      0.00s CPU      0.00s WALL (       1 calls)
     mix_pot      :      0.00s CPU      0.00s WALL (       1 calls)
     psymdvscf    :      0.00s CPU      0.00s WALL (       1 calls)

     dvqpsi_us    :      0.01s CPU      0.01s WALL (      20 calls)
     dvqpsi_us_on :      0.00s CPU      0.00s WALL (      20 calls)

     cgsolve      :      0.03s CPU      0.05s WALL (      20 calls)
     ch_psi       :      0.03s CPU      0.05s WALL (     140 calls)

     ch_psi       :      0.03s CPU      0.05s WALL (     140 calls)
     h_psiq       :      0.03s CPU      0.04s WALL (     140 calls)
     last         :      0.00s CPU      0.00s WALL (     140 calls)

     h_psiq       :      0.03s CPU      0.04s WALL (     140 calls)
     firstfft     :      0.01s CPU      0.02s WALL (     474 calls)
     secondfft    :      0.01s CPU      0.02s WALL (     474 calls)
     add_vuspsi   :      0.00s CPU      0.01s WALL (     688 calls)

     incdrhoscf   :      0.00s CPU      0.01s WALL (      20 calls)


      General routines
     calbec       :      0.01s CPU      0.01s WALL (     908 calls)
     fft          :      0.00s CPU      0.00s WALL (       9 calls)
     ffts         :      0.00s CPU      0.00s WALL (      20 calls)
     fftw         :      0.14s CPU      0.18s WALL (    5476 calls)
     davcio       :      0.00s CPU      0.00s WALL (     162 calls)
     write_rec    :      0.00s CPU      0.00s WALL (       1 calls)


     PHONON       :     0.54s CPU         0.66s WALL


   This run was terminated on:  10:46:10  25Jan2013            

=------------------------------------------------------------------------------=
   JOB DONE.
=------------------------------------------------------------------------------=
