
     Program PWSCF v.6.1 (svn rev. 13369) starts on  2Mar2017 at 23:43: 9 

     This program is part of the open-source Quantum ESPRESSO suite
     for quantum simulation of materials; please cite
         "P. Giannozzi et al., J. Phys.:Condens. Matter 21 395502 (2009);
          URL http://www.quantum-espresso.org", 
     in publications or presentations arising from this work. More details at
     http://www.quantum-espresso.org/quote

     Serial multi-threaded version, running on    4 processor cores
     Reading input from electric0.in

     Current dimensions of program PWSCF are:
     Max number of different atomic species (ntypx) = 10
     Max number of k-points (npk) =  40000
     Max angular momentum in pseudopotentials (lmaxx) =  3
     Found symmetry operation: I + ( -0.5000 -0.5000  0.0000)
     This is a supercell, fractional translations are disabled

     G-vector sticks info
     --------------------
     sticks:   dense  smooth     PW     G-vecs:    dense   smooth      PW
     Sum         665     665    225                12893    12893    2553



     bravais-lattice index     =            1
     lattice parameter (alat)  =      10.1800  a.u.
     unit-cell volume          =    1054.9778 (a.u.)^3
     number of atoms/cell      =            8
     number of atomic types    =            1
     number of electrons       =        32.00
     number of Kohn-Sham states=           16
     kinetic-energy cutoff     =      20.0000  Ry
     charge density cutoff     =      80.0000  Ry
     convergence threshold     =      1.0E-08
     mixing beta               =       0.5000
     number of iterations used =            8  plain     mixing
     Exchange-correlation      =  SLA  PW   PBE  PBE ( 1  4  3  4 0 0)

     celldm(1)=  10.180000  celldm(2)=   0.000000  celldm(3)=   0.000000
     celldm(4)=   0.000000  celldm(5)=   0.000000  celldm(6)=   0.000000

     crystal axes: (cart. coord. in units of alat)
               a(1) = (   1.000000   0.000000   0.000000 )  
               a(2) = (   0.000000   1.000000   0.000000 )  
               a(3) = (   0.000000   0.000000   1.000000 )  

     reciprocal axes: (cart. coord. in units 2 pi/alat)
               b(1) = (  1.000000  0.000000  0.000000 )  
               b(2) = (  0.000000  1.000000  0.000000 )  
               b(3) = (  0.000000  0.000000  1.000000 )  


     PseudoPot. # 1 for Si read from file:
     /home/fs395/scratch/QE/espresso/test-suite/..//pseudo/Si.pbe-rrkj.UPF
     MD5 check sum: cf7ab5690cd9a85b22c4813f7e365554
     Pseudo is Norm-conserving, Zval =  4.0
     Generated by new atomic code, or converted to UPF format
     Using radial grid of  883 points,  3 beta functions with: 
                l(1) =   0
                l(2) =   0
                l(3) =   1

     atomic species   valence    mass     pseudopotential
        Si             4.00    28.08600     Si( 1.00)

     No symmetry found



   Cartesian axes

     site n.     atom                  positions (alat units)
         1           Si  tau(   1) = (  -0.1230000  -0.1230000  -0.1230000  )
         2           Si  tau(   2) = (   0.3770000   0.3770000  -0.1230000  )
         3           Si  tau(   3) = (   0.3770000  -0.1230000   0.3770000  )
         4           Si  tau(   4) = (  -0.1230000   0.3770000   0.3770000  )
         5           Si  tau(   5) = (   0.1230000   0.1230000   0.1230000  )
         6           Si  tau(   6) = (   0.6230000   0.6230000   0.1230000  )
         7           Si  tau(   7) = (   0.6230000   0.1230000   0.6230000  )
         8           Si  tau(   8) = (   0.1230000   0.6230000   0.6230000  )

     number of k points=    63
                       cart. coord. in units 2pi/alat
        k(    1) = (   0.0000000   0.0000000   0.0000000), wk =   0.0317460
        k(    2) = (   0.0000000   0.0000000   0.1428571), wk =   0.0317460
        k(    3) = (   0.0000000   0.0000000   0.2857143), wk =   0.0317460
        k(    4) = (   0.0000000   0.0000000   0.4285714), wk =   0.0317460
        k(    5) = (   0.0000000   0.0000000   0.5714286), wk =   0.0317460
        k(    6) = (   0.0000000   0.0000000   0.7142857), wk =   0.0317460
        k(    7) = (   0.0000000   0.0000000   0.8571429), wk =   0.0317460
        k(    8) = (   0.0000000   0.3333333   0.0000000), wk =   0.0317460
        k(    9) = (   0.0000000   0.3333333   0.1428571), wk =   0.0317460
        k(   10) = (   0.0000000   0.3333333   0.2857143), wk =   0.0317460
        k(   11) = (   0.0000000   0.3333333   0.4285714), wk =   0.0317460
        k(   12) = (   0.0000000   0.3333333   0.5714286), wk =   0.0317460
        k(   13) = (   0.0000000   0.3333333   0.7142857), wk =   0.0317460
        k(   14) = (   0.0000000   0.3333333   0.8571429), wk =   0.0317460
        k(   15) = (   0.0000000   0.6666667   0.0000000), wk =   0.0317460
        k(   16) = (   0.0000000   0.6666667   0.1428571), wk =   0.0317460
        k(   17) = (   0.0000000   0.6666667   0.2857143), wk =   0.0317460
        k(   18) = (   0.0000000   0.6666667   0.4285714), wk =   0.0317460
        k(   19) = (   0.0000000   0.6666667   0.5714286), wk =   0.0317460
        k(   20) = (   0.0000000   0.6666667   0.7142857), wk =   0.0317460
        k(   21) = (   0.0000000   0.6666667   0.8571429), wk =   0.0317460
        k(   22) = (   0.3333333   0.0000000   0.0000000), wk =   0.0317460
        k(   23) = (   0.3333333   0.0000000   0.1428571), wk =   0.0317460
        k(   24) = (   0.3333333   0.0000000   0.2857143), wk =   0.0317460
        k(   25) = (   0.3333333   0.0000000   0.4285714), wk =   0.0317460
        k(   26) = (   0.3333333   0.0000000   0.5714286), wk =   0.0317460
        k(   27) = (   0.3333333   0.0000000   0.7142857), wk =   0.0317460
        k(   28) = (   0.3333333   0.0000000   0.8571429), wk =   0.0317460
        k(   29) = (   0.3333333   0.3333333   0.0000000), wk =   0.0317460
        k(   30) = (   0.3333333   0.3333333   0.1428571), wk =   0.0317460
        k(   31) = (   0.3333333   0.3333333   0.2857143), wk =   0.0317460
        k(   32) = (   0.3333333   0.3333333   0.4285714), wk =   0.0317460
        k(   33) = (   0.3333333   0.3333333   0.5714286), wk =   0.0317460
        k(   34) = (   0.3333333   0.3333333   0.7142857), wk =   0.0317460
        k(   35) = (   0.3333333   0.3333333   0.8571429), wk =   0.0317460
        k(   36) = (   0.3333333   0.6666667   0.0000000), wk =   0.0317460
        k(   37) = (   0.3333333   0.6666667   0.1428571), wk =   0.0317460
        k(   38) = (   0.3333333   0.6666667   0.2857143), wk =   0.0317460
        k(   39) = (   0.3333333   0.6666667   0.4285714), wk =   0.0317460
        k(   40) = (   0.3333333   0.6666667   0.5714286), wk =   0.0317460
        k(   41) = (   0.3333333   0.6666667   0.7142857), wk =   0.0317460
        k(   42) = (   0.3333333   0.6666667   0.8571429), wk =   0.0317460
        k(   43) = (   0.6666667   0.0000000   0.0000000), wk =   0.0317460
        k(   44) = (   0.6666667   0.0000000   0.1428571), wk =   0.0317460
        k(   45) = (   0.6666667   0.0000000   0.2857143), wk =   0.0317460
        k(   46) = (   0.6666667   0.0000000   0.4285714), wk =   0.0317460
        k(   47) = (   0.6666667   0.0000000   0.5714286), wk =   0.0317460
        k(   48) = (   0.6666667   0.0000000   0.7142857), wk =   0.0317460
        k(   49) = (   0.6666667   0.0000000   0.8571429), wk =   0.0317460
        k(   50) = (   0.6666667   0.3333333   0.0000000), wk =   0.0317460
        k(   51) = (   0.6666667   0.3333333   0.1428571), wk =   0.0317460
        k(   52) = (   0.6666667   0.3333333   0.2857143), wk =   0.0317460
        k(   53) = (   0.6666667   0.3333333   0.4285714), wk =   0.0317460
        k(   54) = (   0.6666667   0.3333333   0.5714286), wk =   0.0317460
        k(   55) = (   0.6666667   0.3333333   0.7142857), wk =   0.0317460
        k(   56) = (   0.6666667   0.3333333   0.8571429), wk =   0.0317460
        k(   57) = (   0.6666667   0.6666667   0.0000000), wk =   0.0317460
        k(   58) = (   0.6666667   0.6666667   0.1428571), wk =   0.0317460
        k(   59) = (   0.6666667   0.6666667   0.2857143), wk =   0.0317460
        k(   60) = (   0.6666667   0.6666667   0.4285714), wk =   0.0317460
        k(   61) = (   0.6666667   0.6666667   0.5714286), wk =   0.0317460
        k(   62) = (   0.6666667   0.6666667   0.7142857), wk =   0.0317460
        k(   63) = (   0.6666667   0.6666667   0.8571429), wk =   0.0317460

     Dense  grid:    12893 G-vectors     FFT dimensions: (  30,  30,  30)

     Estimated max dynamical RAM per process >      34.57MB

     Initial potential from superposition of free atoms

     starting charge   31.99557, renormalised to   32.00000
     Starting wfc are random

     total cpu time spent up to now is        1.5 secs

     per-process dynamical memory:    31.8 Mb

     Self-consistent Calculation

     iteration #  1     ecut=    20.00 Ry     beta=0.50
     Davidson diagonalization with overlap
     ethr =  1.00E-02,  avg # of iterations =  7.6

     Threshold (ethr) on eigenvalues was too large:
     Diagonalizing with lowered threshold

     Davidson diagonalization with overlap
     ethr =  7.64E-04,  avg # of iterations =  1.6

     total cpu time spent up to now is       16.1 secs

     total energy              =     -62.94681397 Ry
     Harris-Foulkes estimate   =     -62.99688781 Ry
     estimated scf accuracy    <       0.24611989 Ry

     iteration #  2     ecut=    20.00 Ry     beta=0.50
     Davidson diagonalization with overlap
     ethr =  7.69E-04,  avg # of iterations =  1.0

     total cpu time spent up to now is       19.3 secs

     total energy              =     -62.94551395 Ry
     Harris-Foulkes estimate   =     -62.95297288 Ry
     estimated scf accuracy    <       0.04560140 Ry

     iteration #  3     ecut=    20.00 Ry     beta=0.50
     Davidson diagonalization with overlap
     ethr =  1.43E-04,  avg # of iterations =  2.0

     total cpu time spent up to now is       22.9 secs

     total energy              =     -62.94963409 Ry
     Harris-Foulkes estimate   =     -62.94982715 Ry
     estimated scf accuracy    <       0.00085261 Ry

     iteration #  4     ecut=    20.00 Ry     beta=0.50
     Davidson diagonalization with overlap
     ethr =  2.66E-06,  avg # of iterations =  4.0

     total cpu time spent up to now is       29.5 secs

     total energy              =     -62.95043192 Ry
     Harris-Foulkes estimate   =     -62.95047428 Ry
     estimated scf accuracy    <       0.00010665 Ry

     iteration #  5     ecut=    20.00 Ry     beta=0.50
     Davidson diagonalization with overlap
     ethr =  3.33E-07,  avg # of iterations =  2.1

     total cpu time spent up to now is       33.6 secs

     total energy              =     -62.95044691 Ry
     Harris-Foulkes estimate   =     -62.95044676 Ry
     estimated scf accuracy    <       0.00000158 Ry

     iteration #  6     ecut=    20.00 Ry     beta=0.50
     Davidson diagonalization with overlap
     ethr =  4.94E-09,  avg # of iterations =  3.6

     total cpu time spent up to now is       39.6 secs

     total energy              =     -62.95044806 Ry
     Harris-Foulkes estimate   =     -62.95044799 Ry
     estimated scf accuracy    <       0.00000012 Ry

     iteration #  7     ecut=    20.00 Ry     beta=0.50
     Davidson diagonalization with overlap
     ethr =  3.82E-10,  avg # of iterations =  2.2

     total cpu time spent up to now is       43.4 secs

     total energy              =     -62.95044808 Ry
     Harris-Foulkes estimate   =     -62.95044808 Ry
     estimated scf accuracy    <       0.00000003 Ry

     iteration #  8     ecut=    20.00 Ry     beta=0.50
     Davidson diagonalization with overlap
     ethr =  8.48E-11,  avg # of iterations =  1.8

     total cpu time spent up to now is       46.7 secs

     End of self-consistent calculation

          k = 0.0000 0.0000 0.0000 (  1575 PWs)   bands (ev):

    -5.5829  -1.4242  -1.4242  -1.4240  -1.2842  -1.2840  -1.2840   3.5438
     3.5438   3.5440   3.6152   3.6152   3.6152   6.2762   6.5936   6.5936

          k = 0.0000 0.0000 0.1429 (  1599 PWs)   bands (ev):

    -5.4919  -2.4255  -1.3944  -1.3944  -1.2523  -1.2523  -0.1755   3.2964
     3.2964   3.3715   3.3715   3.6255   3.6978   5.8817   6.1639   6.2319

          k = 0.0000 0.0000 0.2857 (  1582 PWs)   bands (ev):

    -5.2196  -3.3613  -1.3236  -1.3235  -1.1762  -1.1762   1.0751   2.8449
     2.8449   2.9265   2.9265   3.8682   3.9438   4.8826   5.4540   5.5538

          k = 0.0000 0.0000 0.4286 (  1602 PWs)   bands (ev):

    -4.7695  -4.1472  -1.2621  -1.2621  -1.1097  -1.1097   2.3645   2.5395
     2.5395   2.6261   2.6261   3.6528   4.2649   4.3465   4.8033   4.8939

          k = 0.0000 0.0000 0.5714 (  1602 PWs)   bands (ev):

    -4.7695  -4.1472  -1.2621  -1.2621  -1.1097  -1.1097   2.3645   2.5395
     2.5395   2.6261   2.6261   3.6528   4.2649   4.3465   4.8033   4.8939

          k = 0.0000 0.0000 0.7143 (  1582 PWs)   bands (ev):

    -5.2196  -3.3613  -1.3236  -1.3235  -1.1762  -1.1762   1.0751   2.8449
     2.8449   2.9265   2.9265   3.8682   3.9438   4.8826   5.4540   5.5538

          k = 0.0000 0.0000 0.8571 (  1599 PWs)   bands (ev):

    -5.4919  -2.4255  -1.3944  -1.3944  -1.2523  -1.2523  -0.1755   3.2964
     3.2964   3.3715   3.3715   3.6255   3.6978   5.8817   6.1639   6.2319

          k = 0.0000 0.3333 0.0000 (  1594 PWs)   bands (ev):

    -5.0892  -3.6407  -1.2989  -1.2989  -1.1498  -1.1497   1.5025   2.7156
     2.7157   2.7992   2.7992   3.9835   4.0609   4.4852   5.2270   5.3248

          k = 0.0000 0.3333 0.1429 (  1586 PWs)   bands (ev):

    -4.9991  -3.5716  -2.1650  -1.5712  -0.9130  -0.2526   1.4075   2.1671
     2.6307   3.1384   3.5665   3.6688   3.8456   3.9986   4.9369   5.7806

          k = 0.0000 0.3333 0.2857 (  1602 PWs)   bands (ev):

    -4.7345  -3.3588  -3.0022  -2.0370  -0.5111   0.6343   1.0676   1.9513
     2.7442   2.9928   3.0388   3.8155   4.0450   4.2468   4.2669   6.0557

          k = 0.0000 0.3333 0.4286 (  1598 PWs)   bands (ev):

    -4.3005  -3.7289  -3.0199  -2.5291  -0.0517   0.5888   1.4697   2.0734
     2.1488   2.4627   3.0727   3.6154   4.2218   4.4699   4.6887   5.6612

          k = 0.0000 0.3333 0.5714 (  1598 PWs)   bands (ev):

    -4.3153  -3.7066  -2.9801  -2.5896   0.0871   0.4532   1.3324   2.0841
     2.2951   2.4702   3.0963   3.5836   4.3277   4.3724   4.8110   5.5143

          k = 0.0000 0.3333 0.7143 (  1602 PWs)   bands (ev):

    -4.7436  -3.3348  -2.9695  -2.1227  -0.3730   0.5133   0.9478   1.9857
     2.7559   3.0584   3.1451   3.9107   4.1454   4.1589   4.2294   5.8901

          k = 0.0000 0.3333 0.8571 (  1586 PWs)   bands (ev):

    -5.0034  -3.5603  -2.1171  -1.6813  -0.7783  -0.3486   1.3320   2.2252
     2.6250   3.2011   3.4843   3.6954   3.9969   4.0581   4.8941   5.6306

          k = 0.0000 0.6667 0.0000 (  1594 PWs)   bands (ev):

    -5.0892  -3.6407  -1.2989  -1.2989  -1.1498  -1.1497   1.5025   2.7156
     2.7157   2.7992   2.7992   3.9835   4.0609   4.4852   5.2270   5.3248

          k = 0.0000 0.6667 0.1429 (  1586 PWs)   bands (ev):

    -5.0034  -3.5603  -2.1171  -1.6813  -0.7783  -0.3486   1.3320   2.2252
     2.6250   3.2011   3.4843   3.6954   3.9969   4.0581   4.8941   5.6306

          k = 0.0000 0.6667 0.2857 (  1602 PWs)   bands (ev):

    -4.7436  -3.3348  -2.9695  -2.1227  -0.3730   0.5133   0.9478   1.9857
     2.7559   3.0584   3.1451   3.9107   4.1454   4.1589   4.2294   5.8901

          k = 0.0000 0.6667 0.4286 (  1598 PWs)   bands (ev):

    -4.3153  -3.7066  -2.9801  -2.5896   0.0871   0.4532   1.3324   2.0841
     2.2951   2.4702   3.0963   3.5836   4.3277   4.3724   4.8110   5.5143

          k = 0.0000 0.6667 0.5714 (  1598 PWs)   bands (ev):

    -4.3005  -3.7289  -3.0199  -2.5291  -0.0517   0.5888   1.4697   2.0734
     2.1488   2.4627   3.0727   3.6154   4.2218   4.4699   4.6887   5.6612

          k = 0.0000 0.6667 0.7143 (  1602 PWs)   bands (ev):

    -4.7345  -3.3588  -3.0022  -2.0370  -0.5111   0.6343   1.0676   1.9513
     2.7442   2.9928   3.0388   3.8155   4.0450   4.2468   4.2669   6.0557

          k = 0.0000 0.6667 0.8571 (  1586 PWs)   bands (ev):

    -4.9991  -3.5716  -2.1650  -1.5712  -0.9130  -0.2526   1.4075   2.1671
     2.6307   3.1384   3.5665   3.6688   3.8456   3.9986   4.9369   5.7806

          k = 0.3333 0.0000 0.0000 (  1594 PWs)   bands (ev):

    -5.0892  -3.6407  -1.2989  -1.2989  -1.1498  -1.1497   1.5025   2.7156
     2.7157   2.7992   2.7992   3.9835   4.0609   4.4852   5.2270   5.3248

          k = 0.3333 0.0000 0.1429 (  1586 PWs)   bands (ev):

    -4.9991  -3.5716  -2.1650  -1.5712  -0.9130  -0.2526   1.4075   2.1671
     2.6307   3.1384   3.5665   3.6688   3.8456   3.9986   4.9369   5.7806

          k = 0.3333 0.0000 0.2857 (  1602 PWs)   bands (ev):

    -4.7345  -3.3588  -3.0022  -2.0371  -0.5111   0.6343   1.0676   1.9513
     2.7442   2.9928   3.0388   3.8155   4.0450   4.2468   4.2669   6.0557

          k = 0.3333 0.0000 0.4286 (  1598 PWs)   bands (ev):

    -4.3005  -3.7289  -3.0199  -2.5291  -0.0517   0.5888   1.4697   2.0734
     2.1488   2.4627   3.0727   3.6154   4.2218   4.4699   4.6887   5.6612

          k = 0.3333 0.0000 0.5714 (  1598 PWs)   bands (ev):

    -4.3153  -3.7066  -2.9801  -2.5896   0.0871   0.4532   1.3324   2.0841
     2.2951   2.4702   3.0963   3.5836   4.3277   4.3724   4.8110   5.5143

          k = 0.3333 0.0000 0.7143 (  1602 PWs)   bands (ev):

    -4.7436  -3.3348  -2.9695  -2.1227  -0.3730   0.5133   0.9478   1.9857
     2.7559   3.0584   3.1451   3.9107   4.1454   4.1589   4.2294   5.8901

          k = 0.3333 0.0000 0.8571 (  1586 PWs)   bands (ev):

    -5.0034  -3.5603  -2.1171  -1.6813  -0.7783  -0.3486   1.3320   2.2252
     2.6250   3.2011   3.4843   3.6954   3.9969   4.0581   4.8941   5.6306

          k = 0.3333 0.3333 0.0000 (  1602 PWs)   bands (ev):

    -4.6083  -3.2585  -3.2585  -2.2015  -0.3644   0.9168   0.9168   1.9569
     2.7084   2.8313   2.8313   4.0395   4.0934   4.0934   4.3809   6.0007

          k = 0.3333 0.3333 0.1429 (  1596 PWs)   bands (ev):

    -4.5202  -3.2121  -3.2121  -2.4135  -0.3129   0.6024   0.6024   2.1010
     2.3096   3.0596   3.0596   4.2859   4.2859   4.4535   4.6760   5.8905

          k = 0.3333 0.3333 0.2857 (  1598 PWs)   bands (ev):

    -4.2702  -3.0944  -3.0944  -2.8713  -0.1998   0.0452   0.0452   1.2654
     3.2207   3.4649   3.4649   4.6449   4.6449   4.6532   5.4170   5.6264

          k = 0.3333 0.3333 0.4286 (  1592 PWs)   bands (ev):

    -3.8706  -3.4153  -2.9828  -2.9828  -0.3325  -0.3325   0.1383   0.5272
     3.7374   3.7374   4.2883   4.8504   4.8504   4.9586   5.2747   5.3371

          k = 0.3333 0.3333 0.5714 (  1592 PWs)   bands (ev):

    -3.9126  -3.3506  -2.9814  -2.9814  -0.3403  -0.3403  -0.0485   0.6869
     3.7977   3.7978   4.4499   4.7970   4.7970   4.9194   5.1644   5.3261

          k = 0.3333 0.3333 0.7143 (  1598 PWs)   bands (ev):

    -4.2953  -3.0920  -3.0920  -2.7817  -0.4134   0.0233   0.0233   1.4045
     3.3694   3.6146   3.6146   4.5127   4.5127   4.6277   5.2567   5.6807

          k = 0.3333 0.3333 0.8571 (  1596 PWs)   bands (ev):

    -4.5319  -3.2105  -3.2105  -2.3301  -0.4976   0.5734   0.5734   2.2165
     2.4228   3.1952   3.1952   4.1747   4.1747   4.4412   4.5529   5.9275

          k = 0.3333 0.6667 0.0000 (  1602 PWs)   bands (ev):

    -4.6191  -3.2297  -3.2297  -2.2783  -0.2262   0.7897   0.7897   1.9830
     2.8474   2.8474   2.8586   4.0038   4.1981   4.1981   4.2904   5.8395

          k = 0.3333 0.6667 0.1429 (  1596 PWs)   bands (ev):

    -4.5375  -3.1963  -3.1642  -2.4394  -0.2843   0.4161   0.5358   2.2567
     2.4023   3.1001   3.1818   4.3160   4.3174   4.3554   4.6358   5.7561

          k = 0.3333 0.6667 0.2857 (  1598 PWs)   bands (ev):

    -4.2966  -3.0891  -3.0214  -2.8719  -0.2139  -0.1562   0.0190   1.4105
     3.3426   3.5700   3.6202   4.5443   4.5677   4.6210   5.3505   5.5678

          k = 0.3333 0.6667 0.4286 (  1592 PWs)   bands (ev):

    -3.9103  -3.4110  -2.9854  -2.8860  -0.5462  -0.3367   0.1204   0.6774
     3.8726   3.8903   4.4187   4.6893   4.8263   4.8437   5.1306   5.3760

          k = 0.3333 0.6667 0.5714 (  1592 PWs)   bands (ev):

    -3.9103  -3.4110  -2.9854  -2.8860  -0.5462  -0.3367   0.1204   0.6774
     3.8726   3.8903   4.4187   4.6893   4.8263   4.8437   5.1306   5.3760

          k = 0.3333 0.6667 0.7143 (  1598 PWs)   bands (ev):

    -4.2966  -3.0891  -3.0214  -2.8719  -0.2139  -0.1562   0.0190   1.4105
     3.3426   3.5700   3.6202   4.5443   4.5677   4.6210   5.3505   5.5678

          k = 0.3333 0.6667 0.8571 (  1596 PWs)   bands (ev):

    -4.5375  -3.1963  -3.1642  -2.4394  -0.2843   0.4161   0.5358   2.2567
     2.4023   3.1001   3.1818   4.3160   4.3174   4.3554   4.6358   5.7561

          k = 0.6667 0.0000 0.0000 (  1594 PWs)   bands (ev):

    -5.0892  -3.6407  -1.2989  -1.2989  -1.1498  -1.1497   1.5025   2.7156
     2.7157   2.7992   2.7992   3.9835   4.0609   4.4852   5.2270   5.3248

          k = 0.6667 0.0000 0.1429 (  1586 PWs)   bands (ev):

    -5.0034  -3.5603  -2.1171  -1.6813  -0.7783  -0.3486   1.3320   2.2252
     2.6250   3.2011   3.4843   3.6954   3.9969   4.0581   4.8941   5.6306

          k = 0.6667 0.0000 0.2857 (  1602 PWs)   bands (ev):

    -4.7436  -3.3348  -2.9695  -2.1227  -0.3730   0.5133   0.9478   1.9857
     2.7559   3.0584   3.1451   3.9107   4.1454   4.1589   4.2294   5.8901

          k = 0.6667 0.0000 0.4286 (  1598 PWs)   bands (ev):

    -4.3153  -3.7066  -2.9801  -2.5896   0.0871   0.4532   1.3324   2.0841
     2.2951   2.4702   3.0963   3.5836   4.3277   4.3724   4.8110   5.5143

          k = 0.6667 0.0000 0.5714 (  1598 PWs)   bands (ev):

    -4.3005  -3.7289  -3.0199  -2.5291  -0.0517   0.5888   1.4697   2.0734
     2.1488   2.4627   3.0727   3.6154   4.2218   4.4699   4.6887   5.6612

          k = 0.6667 0.0000 0.7143 (  1602 PWs)   bands (ev):

    -4.7345  -3.3588  -3.0022  -2.0371  -0.5111   0.6343   1.0676   1.9513
     2.7442   2.9928   3.0388   3.8155   4.0450   4.2468   4.2669   6.0557

          k = 0.6667 0.0000 0.8571 (  1586 PWs)   bands (ev):

    -4.9991  -3.5716  -2.1650  -1.5712  -0.9130  -0.2526   1.4075   2.1671
     2.6307   3.1384   3.5665   3.6688   3.8456   3.9986   4.9369   5.7806

          k = 0.6667 0.3333 0.0000 (  1602 PWs)   bands (ev):

    -4.6191  -3.2297  -3.2297  -2.2783  -0.2262   0.7897   0.7897   1.9830
     2.8474   2.8474   2.8586   4.0038   4.1981   4.1981   4.2904   5.8395

          k = 0.6667 0.3333 0.1429 (  1596 PWs)   bands (ev):

    -4.5375  -3.1963  -3.1642  -2.4394  -0.2843   0.4161   0.5358   2.2567
     2.4023   3.1001   3.1818   4.3160   4.3174   4.3554   4.6358   5.7561

          k = 0.6667 0.3333 0.2857 (  1598 PWs)   bands (ev):

    -4.2966  -3.0891  -3.0214  -2.8719  -0.2139  -0.1562   0.0190   1.4105
     3.3426   3.5700   3.6202   4.5443   4.5677   4.6210   5.3505   5.5678

          k = 0.6667 0.3333 0.4286 (  1592 PWs)   bands (ev):

    -3.9103  -3.4110  -2.9854  -2.8860  -0.5462  -0.3367   0.1204   0.6774
     3.8726   3.8903   4.4187   4.6893   4.8263   4.8437   5.1306   5.3760

          k = 0.6667 0.3333 0.5714 (  1592 PWs)   bands (ev):

    -3.9103  -3.4110  -2.9854  -2.8860  -0.5462  -0.3367   0.1204   0.6774
     3.8726   3.8903   4.4187   4.6893   4.8263   4.8437   5.1306   5.3760

          k = 0.6667 0.3333 0.7143 (  1598 PWs)   bands (ev):

    -4.2966  -3.0891  -3.0214  -2.8719  -0.2139  -0.1562   0.0190   1.4105
     3.3426   3.5700   3.6202   4.5443   4.5677   4.6210   5.3505   5.5678

          k = 0.6667 0.3333 0.8571 (  1596 PWs)   bands (ev):

    -4.5375  -3.1963  -3.1642  -2.4394  -0.2843   0.4161   0.5358   2.2567
     2.4023   3.1001   3.1818   4.3160   4.3174   4.3554   4.6358   5.7561

          k = 0.6667 0.6667 0.0000 (  1602 PWs)   bands (ev):

    -4.6083  -3.2585  -3.2585  -2.2015  -0.3644   0.9168   0.9168   1.9569
     2.7084   2.8313   2.8313   4.0395   4.0934   4.0934   4.3809   6.0007

          k = 0.6667 0.6667 0.1429 (  1596 PWs)   bands (ev):

    -4.5319  -3.2105  -3.2105  -2.3301  -0.4976   0.5734   0.5734   2.2165
     2.4228   3.1952   3.1952   4.1747   4.1747   4.4412   4.5529   5.9275

          k = 0.6667 0.6667 0.2857 (  1598 PWs)   bands (ev):

    -4.2953  -3.0920  -3.0920  -2.7817  -0.4134   0.0233   0.0233   1.4045
     3.3694   3.6146   3.6146   4.5127   4.5127   4.6277   5.2567   5.6807

          k = 0.6667 0.6667 0.4286 (  1592 PWs)   bands (ev):

    -3.9126  -3.3506  -2.9814  -2.9814  -0.3403  -0.3403  -0.0485   0.6869
     3.7977   3.7978   4.4499   4.7970   4.7970   4.9194   5.1644   5.3261

          k = 0.6667 0.6667 0.5714 (  1592 PWs)   bands (ev):

    -3.8706  -3.4153  -2.9828  -2.9828  -0.3325  -0.3325   0.1383   0.5272
     3.7374   3.7374   4.2883   4.8504   4.8504   4.9586   5.2747   5.3371

          k = 0.6667 0.6667 0.7143 (  1598 PWs)   bands (ev):

    -4.2702  -3.0944  -3.0944  -2.8713  -0.1998   0.0452   0.0452   1.2654
     3.2207   3.4649   3.4649   4.6449   4.6449   4.6532   5.4170   5.6264

          k = 0.6667 0.6667 0.8571 (  1596 PWs)   bands (ev):

    -4.5202  -3.2121  -3.2121  -2.4135  -0.3129   0.6024   0.6024   2.1010
     2.3096   3.0596   3.0596   4.2859   4.2859   4.4535   4.6760   5.8905

     highest occupied level (ev):     6.5936

!    total energy              =     -62.95044808 Ry
     Harris-Foulkes estimate   =     -62.95044808 Ry
     estimated scf accuracy    <          5.3E-09 Ry

     The total energy is the sum of the following terms:

     one-electron contribution =      19.82842516 Ry
     hartree contribution      =       4.30437144 Ry
     xc contribution           =     -19.35670779 Ry
     ewald contribution        =     -67.72653689 Ry

     convergence has been achieved in   8 iterations

     Writing output data file pwscf.save

     init_run     :      4.48s CPU      1.50s WALL (       1 calls)
     electrons    :    135.92s CPU     45.21s WALL (       1 calls)

     Called by init_run:
     wfcinit      :      4.37s CPU      1.40s WALL (       1 calls)
     potinit      :      0.03s CPU      0.02s WALL (       1 calls)

     Called by electrons:
     c_bands      :    119.29s CPU     40.94s WALL (       9 calls)
     sum_band     :     16.39s CPU      4.11s WALL (       9 calls)
     v_of_rho     :      0.24s CPU      0.15s WALL (       9 calls)
     mix_rho      :      0.02s CPU      0.02s WALL (       9 calls)

     Called by c_bands:
     init_us_2    :      2.06s CPU      0.55s WALL (    1197 calls)
     cegterg      :    116.41s CPU     40.16s WALL (     567 calls)

     Called by sum_band:

     Called by *egterg:
     h_psi        :    107.94s CPU     30.34s WALL (    2267 calls)
     g_psi        :      0.24s CPU      0.24s WALL (    1637 calls)
     cdiaghg      :      1.87s CPU      1.41s WALL (    2141 calls)

     Called by h_psi:
     h_psi:pot    :    107.78s CPU     30.21s WALL (    2267 calls)
     h_psi:calbec :     10.90s CPU      3.09s WALL (    2267 calls)
     vloc_psi     :     92.99s CPU     23.99s WALL (    2267 calls)
     add_vuspsi   :      3.88s CPU      3.13s WALL (    2267 calls)

     General routines
     calbec       :     10.89s CPU      3.08s WALL (    2267 calls)
     fft          :      0.13s CPU      0.06s WALL (     100 calls)
     fftw         :     98.36s CPU     25.27s WALL (   66038 calls)
     davcio       :      0.00s CPU      0.01s WALL (      63 calls)


     PWSCF        :  2m20.47s CPU     0m47.36s WALL


   This run was terminated on:  23:43:57   2Mar2017            

=------------------------------------------------------------------------------=
   JOB DONE.
=------------------------------------------------------------------------------=
