 ANIMSTEPS   7
 CRYSTAL 
 PRIMVEC 
  6.3501265031  0.0000000000  0.0000000000
  0.0000000000  2.6458860429  0.0000000000
  0.0000000000  0.0000000000  2.6458860429
 PRIMCOORD   1
    3  1
 H   -2.4165936061    0.0000000000    0.0000000000   -0.0005062539    0.0000000000    0.0000000000
 H    0.0000000000    0.0000000000    0.0000000000    0.0000000000    0.0000000000    0.0000000000
 H    0.8243346657    0.0000000000    0.0000000000   -0.0000115387    0.0000000000    0.0000000000
 PRIMCOORD   2
    3  1
 H   -1.8670829435    0.0000000000    0.0000000000   -0.0025150305    0.0000000000    0.0000000000
 H    0.0000000000    0.0000000000    0.0000000000    0.0000000000    0.0000000000    0.0000000000
 H    0.8329087370    0.0000000000    0.0000000000   -0.0022496466    0.0000000000    0.0000000000
 PRIMCOORD   3
    3  1
 H   -1.3997281433    0.0000000000    0.0000000000   -0.0101554153    0.0000000000    0.0000000000
 H    0.0000000000    0.0000000000    0.0000000000    0.0000000000    0.0000000000    0.0000000000
 H    0.8777025083    0.0000000000    0.0000000000   -0.0009279065    0.0000000000    0.0000000000
 PRIMCOORD   4
    3  1
 H   -1.0486941306    0.0000000000    0.0000000000   -0.0012297901    0.0000000000    0.0000000000
 H    0.0000000000    0.0000000000    0.0000000000    0.0000000000    0.0000000000    0.0000000000
 H    1.0486819475    0.0000000000    0.0000000000    0.0012473490    0.0000000000    0.0000000000
 PRIMCOORD   5
    3  1
 H   -0.8777167977    0.0000000000    0.0000000000    0.0009310966    0.0000000000    0.0000000000
 H    0.0000000000    0.0000000000    0.0000000000    0.0000000000    0.0000000000    0.0000000000
 H    1.3997116364    0.0000000000    0.0000000000    0.0101644100    0.0000000000    0.0000000000
 PRIMCOORD   6
    3  1
 H   -0.8329076748    0.0000000000    0.0000000000    0.0022552888    0.0000000000    0.0000000000
 H    0.0000000000    0.0000000000    0.0000000000    0.0000000000    0.0000000000    0.0000000000
 H    1.8671080895    0.0000000000    0.0000000000    0.0025021961    0.0000000000    0.0000000000
 PRIMCOORD   7
    3  1
 H   -0.8243346657    0.0000000000    0.0000000000    0.0001403336    0.0000000000    0.0000000000
 H    0.0000000000    0.0000000000    0.0000000000    0.0000000000    0.0000000000    0.0000000000
 H    2.4165936061    0.0000000000    0.0000000000    0.0006831943    0.0000000000    0.0000000000
