 ANIMSTEPS   7
 CRYSTAL 
 PRIMVEC 
  6.3501265031  0.0000000000  0.0000000000
  0.0000000000  2.6458860429  0.0000000000
  0.0000000000  0.0000000000  2.6458860429
 PRIMCOORD   1
    3  1
 H   -2.4165936061    0.0000000000    0.0000000000   -0.0003707418    0.0000000000    0.0000000000
 H    0.0000000000    0.0000000000    0.0000000000    0.0000000000    0.0000000000    0.0000000000
 H    0.8243346657    0.0000000000    0.0000000000    0.0001126308    0.0000000000    0.0000000000
 PRIMCOORD   2
    3  1
 H   -1.8714286233    0.0000000000    0.0000000000   -0.0048265909    0.0000000000    0.0000000000
 H    0.0000000000    0.0000000000    0.0000000000    0.0000000000    0.0000000000    0.0000000000
 H    0.8349215369    0.0000000000    0.0000000000   -0.0011166706    0.0000000000    0.0000000000
 PRIMCOORD   3
    3  1
 H   -1.4065859742    0.0000000000    0.0000000000   -0.0086893889    0.0000000000    0.0000000000
 H    0.0000000000    0.0000000000    0.0000000000    0.0000000000    0.0000000000    0.0000000000
 H    0.8818384013    0.0000000000    0.0000000000   -0.0052679903    0.0000000000    0.0000000000
 PRIMCOORD   4
    3  1
 H   -1.0524649767    0.0000000000    0.0000000000    0.0005838707    0.0000000000    0.0000000000
 H    0.0000000000    0.0000000000    0.0000000000    0.0000000000    0.0000000000    0.0000000000
 H    1.0524643124    0.0000000000    0.0000000000   -0.0005838707    0.0000000000    0.0000000000
 PRIMCOORD   5
    3  1
 H   -0.8818385490    0.0000000000    0.0000000000    0.0052680014    0.0000000000    0.0000000000
 H    0.0000000000    0.0000000000    0.0000000000    0.0000000000    0.0000000000    0.0000000000
 H    1.4065853106    0.0000000000    0.0000000000    0.0086893860    0.0000000000    0.0000000000
 PRIMCOORD   6
    3  1
 H   -0.8349215547    0.0000000000    0.0000000000    0.0011166728    0.0000000000    0.0000000000
 H    0.0000000000    0.0000000000    0.0000000000    0.0000000000    0.0000000000    0.0000000000
 H    1.8714281947    0.0000000000    0.0000000000    0.0048265973    0.0000000000    0.0000000000
 PRIMCOORD   7
    3  1
 H   -0.8243346657    0.0000000000    0.0000000000   -0.0001127384    0.0000000000    0.0000000000
 H    0.0000000000    0.0000000000    0.0000000000    0.0000000000    0.0000000000    0.0000000000
 H    2.4165936061    0.0000000000    0.0000000000    0.0003713962    0.0000000000    0.0000000000
