<PP_INFO>
Generated using Andrea Dal Corso code (rrkj3)                                   
Author: Andrea Dal Corso   Generation date: unknown                             
Info:      Rh                                                                   
    1        The Pseudo was generated with a Scalar-Relativistic Calculation
  2.30000000000E+00    Local Potential cutoff radius
nl pn  l   occ               Rcut            Rcut US             E pseu
5P  2  1  0.00      2.55000000000      2.55000000000      0.00000000000
4D  3  2  7.00      2.15000000000      2.45000000000      0.00000000000
4D  3  2  0.00      2.15000000000      2.45000000000      0.00000000000
5S  1  0  2.00      2.30000000000      2.30000000000      0.00000000000
</PP_INFO>


<PP_HEADER>
   0                   Version Number
  Rh                   Element
   US                  Ultrasoft pseudopotential
    T                  Nonlinear Core Correction
 SLA  PW   PBE  PBE    PBE  Exchange-Correlation functional
    9.00000000000      Z valence
  -43.85464419000      Total energy
  0.0000000  0.0000000 Suggested cutoff for wfc and rho
    2                  Max angular momentum component
 1491                  Number of points in mesh
    2    3             Number of Wavefunctions, Number of Projectors
 Wavefunctions         nl  l   occ
                       4D  2  7.00
                       5S  0  2.00
</PP_HEADER>


<PP_MESH>
  <PP_R>
  2.02640436790E-05  2.04677007038E-05  2.06734045157E-05  2.08811756852E-05
  2.10910349898E-05  2.13030034154E-05  2.15171021591E-05  2.17333526310E-05
  2.19517764562E-05  2.21723954774E-05  2.23952317566E-05  2.26203075777E-05
  2.28476454483E-05  2.30772681026E-05  2.33091985028E-05  2.35434598424E-05
  2.37800755475E-05  2.40190692801E-05  2.42604649395E-05  2.45042866657E-05
  2.47505588410E-05  2.49993060928E-05  2.52505532960E-05  2.55043255756E-05
  2.57606483090E-05  2.60195471287E-05  2.62810479248E-05  2.65451768476E-05
  2.68119603102E-05  2.70814249912E-05  2.73535978372E-05  2.76285060658E-05
  2.79061771681E-05  2.81866389113E-05  2.84699193419E-05  2.87560467881E-05
  2.90450498630E-05  2.93369574671E-05  2.96317987914E-05  2.99296033203E-05
  3.02304008344E-05  3.05342214138E-05  3.08410954408E-05  3.11510536030E-05
  3.14641268966E-05  3.17803466291E-05  3.20997444227E-05  3.24223522175E-05
  3.27482022745E-05  3.30773271791E-05  3.34097598439E-05  3.37455335126E-05
  3.40846817628E-05  3.44272385095E-05  3.47732380088E-05  3.51227148608E-05
  3.54757040136E-05  3.58322407664E-05  3.61923607731E-05  3.65561000460E-05
  3.69234949594E-05  3.72945822531E-05  3.76693990361E-05  3.80479827903E-05
  3.84303713746E-05  3.88166030280E-05  3.92067163741E-05  3.96007504245E-05
  3.99987445829E-05  4.04007386491E-05  4.08067728229E-05  4.12168877079E-05
  4.16311243161E-05  4.20495240713E-05  4.24721288141E-05  4.28989808051E-05
  4.33301227299E-05  4.37655977031E-05  4.42054492726E-05  4.46497214238E-05
  4.50984585843E-05  4.55517056284E-05  4.60095078809E-05  4.64719111226E-05
  4.69389615941E-05  4.74107060008E-05  4.78871915177E-05  4.83684657937E-05
  4.88545769565E-05  4.93455736177E-05  4.98415048775E-05  5.03424203292E-05
  5.08483700649E-05  5.13594046800E-05  5.18755752784E-05  5.23969334776E-05
  5.29235314137E-05  5.34554217471E-05  5.39926576672E-05  5.45352928981E-05
  5.50833817037E-05  5.56369788934E-05  5.61961398273E-05  5.67609204221E-05
  5.73313771562E-05  5.79075670757E-05  5.84895478003E-05  5.90773775284E-05
  5.96711150434E-05  6.02708197197E-05  6.08765515282E-05  6.14883710426E-05
  6.21063394453E-05  6.27305185337E-05  6.33609707262E-05  6.39977590686E-05
  6.46409472403E-05  6.52905995605E-05  6.59467809951E-05  6.66095571628E-05
  6.72789943417E-05  6.79551594761E-05  6.86381201830E-05  6.93279447592E-05
  7.00247021877E-05  7.07284621447E-05  7.14392950068E-05  7.21572718580E-05
  7.28824644965E-05  7.36149454422E-05  7.43547879438E-05  7.51020659861E-05
  7.58568542977E-05  7.66192283578E-05  7.73892644047E-05  7.81670394425E-05
  7.89526312494E-05  7.97461183852E-05  8.05475801992E-05  8.13570968385E-05
  8.21747492552E-05  8.30006192153E-05  8.38347893065E-05  8.46773429465E-05
  8.55283643913E-05  8.63879387439E-05  8.72561519623E-05  8.81330908687E-05
  8.90188431576E-05  8.99134974049E-05  9.08171430770E-05  9.17298705390E-05
  9.26517710645E-05  9.35829368444E-05  9.45234609959E-05  9.54734375723E-05
  9.64329615720E-05  9.74021289482E-05  9.83810366185E-05  9.93697824744E-05
  1.00368465391E-04  1.01377185239E-04  1.02396042889E-04  1.03425140229E-04
  1.04464580169E-04  1.05514466654E-04  1.06574904673E-04  1.07646000272E-04
  1.08727860561E-04  1.09820593726E-04  1.10924309042E-04  1.12039116882E-04
  1.13165128727E-04  1.14302457178E-04  1.15451215971E-04  1.16611519982E-04
  1.17783485242E-04  1.18967228948E-04  1.20162869476E-04  1.21370526392E-04
  1.22590320461E-04  1.23822373665E-04  1.25066809209E-04  1.26323751538E-04
  1.27593326348E-04  1.28875660596E-04  1.30170882519E-04  1.31479121637E-04
  1.32800508778E-04  1.34135176080E-04  1.35483257011E-04  1.36844886382E-04
  1.38220200354E-04  1.39609336462E-04  1.41012433620E-04  1.42429632139E-04
  1.43861073740E-04  1.45306901568E-04  1.46767260207E-04  1.48242295695E-04
  1.49732155535E-04  1.51236988716E-04  1.52756945722E-04  1.54292178550E-04
  1.55842840724E-04  1.57409087312E-04  1.58991074940E-04  1.60588961808E-04
  1.62202907706E-04  1.63833074030E-04  1.65479623798E-04  1.67142721667E-04
  1.68822533946E-04  1.70519228620E-04  1.72232975359E-04  1.73963945538E-04
  1.75712312258E-04  1.77478250355E-04  1.79261936424E-04  1.81063548837E-04
  1.82883267756E-04  1.84721275154E-04  1.86577754833E-04  1.88452892443E-04
  1.90346875500E-04  1.92259893403E-04  1.94192137455E-04  1.96143800883E-04
  1.98115078854E-04  2.00106168499E-04  2.02117268927E-04  2.04148581250E-04
  2.06200308601E-04  2.08272656156E-04  2.10365831149E-04  2.12480042901E-04
  2.14615502834E-04  2.16772424497E-04  2.18951023582E-04  2.21151517952E-04
  2.23374127659E-04  2.25619074964E-04  2.27886584365E-04  2.30176882614E-04
  2.32490198743E-04  2.34826764086E-04  2.37186812301E-04  2.39570579394E-04
  2.41978303746E-04  2.44410226129E-04  2.46866589739E-04  2.49347640213E-04
  2.51853625659E-04  2.54384796678E-04  2.56941406388E-04  2.59523710453E-04
  2.62131967106E-04  2.64766437173E-04  2.67427384105E-04  2.70115073998E-04
  2.72829775624E-04  2.75571760454E-04  2.78341302691E-04  2.81138679289E-04
  2.83964169990E-04  2.86818057344E-04  2.89700626743E-04  2.92612166446E-04
  2.95552967610E-04  2.98523324317E-04  3.01523533604E-04  3.04553895497E-04
  3.07614713033E-04  3.10706292296E-04  3.13828942448E-04  3.16982975756E-04
  3.20168707625E-04  3.23386456631E-04  3.26636544553E-04  3.29919296402E-04
  3.33235040455E-04  3.36584108290E-04  3.39966834816E-04  3.43383558309E-04
  3.46834620444E-04  3.50320366330E-04  3.53841144545E-04  3.57397307169E-04
  3.60989209821E-04  3.64617211695E-04  3.68281675595E-04  3.71982967968E-04
  3.75721458949E-04  3.79497522389E-04  3.83311535897E-04  3.87163880878E-04
  3.91054942569E-04  3.94985110081E-04  3.98954776433E-04  4.02964338596E-04
  4.07014197527E-04  4.11104758218E-04  4.15236429727E-04  4.19409625226E-04
  4.23624762036E-04  4.27882261675E-04  4.32182549897E-04  4.36526056735E-04
  4.40913216542E-04  4.45344468037E-04  4.49820254351E-04  4.54341023065E-04
  4.58907226260E-04  4.63519320560E-04  4.68177767179E-04  4.72883031964E-04
  4.77635585446E-04  4.82435902886E-04  4.87284464317E-04  4.92181754601E-04
  4.97128263470E-04  5.02124485580E-04  5.07170920558E-04  5.12268073049E-04
  5.17416452775E-04  5.22616574578E-04  5.27868958473E-04  5.33174129705E-04
  5.38532618793E-04  5.43944961592E-04  5.49411699341E-04  5.54933378717E-04
  5.60510551894E-04  5.66143776593E-04  5.71833616141E-04  5.77580639528E-04
  5.83385421460E-04  5.89248542420E-04  5.95170588725E-04  6.01152152586E-04
  6.07193832162E-04  6.13296231628E-04  6.19459961228E-04  6.25685637340E-04
  6.31973882537E-04  6.38325325650E-04  6.44740601827E-04  6.51220352601E-04
  6.57765225953E-04  6.64375876376E-04  6.71052964940E-04  6.77797159360E-04
  6.84609134061E-04  6.91489570246E-04  6.98439155964E-04  7.05458586179E-04
  7.12548562841E-04  7.19709794953E-04  7.26942998645E-04  7.34248897242E-04
  7.41628221341E-04  7.49081708879E-04  7.56610105213E-04  7.64214163188E-04
  7.71894643216E-04  7.79652313352E-04  7.87487949369E-04  7.95402334837E-04
  8.03396261201E-04  8.11470527861E-04  8.19625942250E-04  8.27863319916E-04
  8.36183484604E-04  8.44587268337E-04  8.53075511501E-04  8.61649062927E-04
  8.70308779977E-04  8.79055528631E-04  8.87890183570E-04  8.96813628267E-04
  9.05826755075E-04  9.14930465313E-04  9.24125669359E-04  9.33413286743E-04
  9.42794246234E-04  9.52269485934E-04  9.61839953377E-04  9.71506605617E-04
  9.81270409327E-04  9.91132340895E-04  1.00109338652E-03  1.01115454232E-03
  1.02131681442E-03  1.03158121905E-03  1.04194878267E-03  1.05242054203E-03
  1.06299754432E-03  1.07368084725E-03  1.08447151916E-03  1.09537063912E-03
  1.10637929706E-03  1.11749859386E-03  1.12872964144E-03  1.14007356293E-03
  1.15153149273E-03  1.16310457663E-03  1.17479397196E-03  1.18660084767E-03
  1.19852638445E-03  1.21057177487E-03  1.22273822348E-03  1.23502694692E-03
  1.24743917409E-03  1.25997614622E-03  1.27263911701E-03  1.28542935277E-03
  1.29834813254E-03  1.31139674821E-03  1.32457650464E-03  1.33788871983E-03
  1.35133472500E-03  1.36491586478E-03  1.37863349727E-03  1.39248899427E-03
  1.40648374133E-03  1.42061913793E-03  1.43489659763E-03  1.44931754818E-03
  1.46388343170E-03  1.47859570478E-03  1.49345583866E-03  1.50846531937E-03
  1.52362564787E-03  1.53893834021E-03  1.55440492766E-03  1.57002695690E-03
  1.58580599014E-03  1.60174360531E-03  1.61784139617E-03  1.63410097251E-03
  1.65052396032E-03  1.66711200190E-03  1.68386675606E-03  1.70078989831E-03
  1.71788312096E-03  1.73514813336E-03  1.75258666201E-03  1.77020045080E-03
  1.78799126110E-03  1.80596087202E-03  1.82411108053E-03  1.84244370167E-03
  1.86096056872E-03  1.87966353337E-03  1.89855446594E-03  1.91763525554E-03
  1.93690781027E-03  1.95637405739E-03  1.97603594354E-03  1.99589543494E-03
  2.01595451754E-03  2.03621519728E-03  2.05667950023E-03  2.07734947285E-03
  2.09822718214E-03  2.11931471590E-03  2.14061418290E-03  2.16212771310E-03
  2.18385745787E-03  2.20580559021E-03  2.22797430495E-03  2.25036581898E-03
  2.27298237146E-03  2.29582622407E-03  2.31889966122E-03  2.34220499026E-03
  2.36574454176E-03  2.38952066968E-03  2.41353575167E-03  2.43779218923E-03
  2.46229240805E-03  2.48703885816E-03  2.51203401423E-03  2.53728037580E-03
  2.56278046751E-03  2.58853683941E-03  2.61455206715E-03  2.64082875228E-03
  2.66736952248E-03  2.69417703185E-03  2.72125396118E-03  2.74860301817E-03
  2.77622693775E-03  2.80412848233E-03  2.83231044211E-03  2.86077563528E-03
  2.88952690841E-03  2.91856713663E-03  2.94789922400E-03  2.97752610375E-03
  3.00745073859E-03  3.03767612101E-03  3.06820527358E-03  3.09904124922E-03
  3.13018713158E-03  3.16164603526E-03  3.19342110617E-03  3.22551552186E-03
  3.25793249179E-03  3.29067525768E-03  3.32374709384E-03  3.35715130747E-03
  3.39089123904E-03  3.42497026256E-03  3.45939178596E-03  3.49415925141E-03
  3.52927613571E-03  3.56474595056E-03  3.60057224298E-03  3.63675859562E-03
  3.67330862715E-03  3.71022599260E-03  3.74751438375E-03  3.78517752945E-03
  3.82321919607E-03  3.86164318779E-03  3.90045334704E-03  3.93965355489E-03
  3.97924773137E-03  4.01923983594E-03  4.05963386784E-03  4.10043386651E-03
  4.14164391199E-03  4.18326812531E-03  4.22531066892E-03  4.26777574713E-03
  4.31066760646E-03  4.35399053615E-03  4.39774886852E-03  4.44194697945E-03
  4.48658928877E-03  4.53168026076E-03  4.57722440455E-03  4.62322627460E-03
  4.66969047113E-03  4.71662164059E-03  4.76402447616E-03  4.81190371813E-03
  4.86026415449E-03  4.90911062132E-03  4.95844800330E-03  5.00828123421E-03
  5.05861529742E-03  5.10945522637E-03  5.16080610511E-03  5.21267306875E-03
  5.26506130405E-03  5.31797604986E-03  5.37142259771E-03  5.42540629230E-03
  5.47993253204E-03  5.53500676959E-03  5.59063451244E-03  5.64682132340E-03
  5.70357282119E-03  5.76089468102E-03  5.81879263512E-03  5.87727247333E-03
  5.93634004369E-03  5.99600125299E-03  6.05626206742E-03  6.11712851311E-03
  6.17860667674E-03  6.24070270619E-03  6.30342281111E-03  6.36677326356E-03
  6.43076039865E-03  6.49539061513E-03  6.56067037609E-03  6.62660620955E-03
  6.69320470916E-03  6.76047253482E-03  6.82841641336E-03  6.89704313923E-03
  6.96635957517E-03  7.03637265287E-03  7.10708937370E-03  7.17851680938E-03
  7.25066210273E-03  7.32353246834E-03  7.39713519329E-03  7.47147763793E-03
  7.54656723655E-03  7.62241149819E-03  7.69901800733E-03  7.77639442469E-03
  7.85454848797E-03  7.93348801265E-03  8.01322089274E-03  8.09375510159E-03
  8.17509869270E-03  8.25725980049E-03  8.34024664114E-03  8.42406751341E-03
  8.50873079945E-03  8.59424496566E-03  8.68061856352E-03  8.76786023048E-03
  8.85597869077E-03  8.94498275630E-03  9.03488132757E-03  9.12568339450E-03
  9.21739803737E-03  9.31003442773E-03  9.40360182928E-03  9.49810959886E-03
  9.59356718731E-03  9.68998414048E-03  9.78737010013E-03  9.88573480495E-03
  9.98508809149E-03  1.00854398952E-02  1.01868002512E-02  1.02891792958E-02
  1.03925872669E-02  1.04970345054E-02  1.06025314560E-02  1.07090886687E-02
  1.08167167991E-02  1.09254266102E-02  1.10352289731E-02  1.11461348681E-02
  1.12581553859E-02  1.13713017286E-02  1.14855852109E-02  1.16010172614E-02
  1.17176094232E-02  1.18353733557E-02  1.19543208354E-02  1.20744637572E-02
  1.21958141354E-02  1.23183841052E-02  1.24421859237E-02  1.25672319711E-02
  1.26935347522E-02  1.28211068973E-02  1.29499611639E-02  1.30801104373E-02
  1.32115677327E-02  1.33443461958E-02  1.34784591047E-02  1.36139198708E-02
  1.37507420401E-02  1.38889392952E-02  1.40285254557E-02  1.41695144805E-02
  1.43119204685E-02  1.44557576605E-02  1.46010404403E-02  1.47477833364E-02
  1.48960010230E-02  1.50457083222E-02  1.51969202047E-02  1.53496517919E-02
  1.55039183571E-02  1.56597353271E-02  1.58171182836E-02  1.59760829652E-02
  1.61366452683E-02  1.62988212494E-02  1.64626271263E-02  1.66280792795E-02
  1.67951942546E-02  1.69639887630E-02  1.71344796845E-02  1.73066840683E-02
  1.74806191348E-02  1.76563022779E-02  1.78337510658E-02  1.80129832438E-02
  1.81940167351E-02  1.83768696432E-02  1.85615602536E-02  1.87481070355E-02
  1.89365286437E-02  1.91268439206E-02  1.93190718978E-02  1.95132317982E-02
  1.97093430382E-02  1.99074252288E-02  2.01074981786E-02  2.03095818949E-02
  2.05136965864E-02  2.07198626646E-02  2.09281007463E-02  2.11384316556E-02
  2.13508764256E-02  2.15654563011E-02  2.17821927402E-02  2.20011074166E-02
  2.22222222222E-02  2.24455592685E-02  2.26711408895E-02  2.28989896434E-02
  2.31291283154E-02  2.33615799195E-02  2.35963677010E-02  2.38335151390E-02
  2.40730459483E-02  2.43149840823E-02  2.45593537350E-02  2.48061793435E-02
  2.50554855907E-02  2.53072974072E-02  2.55616399746E-02  2.58185387273E-02
  2.60780193554E-02  2.63401078071E-02  2.66048302916E-02  2.68722132813E-02
  2.71422835147E-02  2.74150679990E-02  2.76905940131E-02  2.79688891095E-02
  2.82499811183E-02  2.85338981486E-02  2.88206685926E-02  2.91103211274E-02
  2.94028847186E-02  2.96983886228E-02  2.99968623906E-02  3.02983358696E-02
  3.06028392075E-02  3.09104028548E-02  3.12210575681E-02  3.15348344132E-02
  3.18517647680E-02  3.21718803259E-02  3.24952130985E-02  3.28217954196E-02
  3.31516599476E-02  3.34848396692E-02  3.38213679026E-02  3.41612783011E-02
  3.45046048558E-02  3.48513818998E-02  3.52016441110E-02  3.55554265159E-02
  3.59127644932E-02  3.62736937768E-02  3.66382504600E-02  3.70064709988E-02
  3.73783922155E-02  3.77540513026E-02  3.81334858263E-02  3.85167337304E-02
  3.89038333399E-02  3.92948233652E-02  3.96897429056E-02  4.00886314533E-02
  4.04915288976E-02  4.08984755285E-02  4.13095120410E-02  4.17246795392E-02
  4.21440195401E-02  4.25675739781E-02  4.29953852089E-02  4.34274960141E-02
  4.38639496051E-02  4.43047896276E-02  4.47500601660E-02  4.51998057477E-02
  4.56540713476E-02  4.61129023928E-02  4.65763447665E-02  4.70444448136E-02
  4.75172493444E-02  4.79948056397E-02  4.84771614555E-02  4.89643650279E-02
  4.94564650776E-02  4.99535108150E-02  5.04555519452E-02  5.09626386725E-02
  5.14748217062E-02  5.19921522650E-02  5.25146820824E-02  5.30424634117E-02
  5.35755490315E-02  5.41139922509E-02  5.46578469146E-02  5.52071674086E-02
  5.57620086653E-02  5.63224261693E-02  5.68884759629E-02  5.74602146515E-02
  5.80376994094E-02  5.86209879856E-02  5.92101387095E-02  5.98052104967E-02
  6.04062628546E-02  6.10133558893E-02  6.16265503103E-02  6.22459074378E-02
  6.28714892078E-02  6.35033581792E-02  6.41415775393E-02  6.47862111106E-02
  6.54373233570E-02  6.60949793903E-02  6.67592449766E-02  6.74301865430E-02
  6.81078711843E-02  6.87923666694E-02  6.94837414486E-02  7.01820646598E-02
  7.08874061359E-02  7.15998364117E-02  7.23194267309E-02  7.30462490530E-02
  7.37803760608E-02  7.45218811678E-02  7.52708385249E-02  7.60273230287E-02
  7.67914103281E-02  7.75631768325E-02  7.83426997192E-02  7.91300569412E-02
  7.99253272349E-02  8.07285901278E-02  8.15399259471E-02  8.23594158269E-02
  8.31871417169E-02  8.40231863904E-02  8.48676334526E-02  8.57205673488E-02
  8.65820733732E-02  8.74522376771E-02  8.83311472777E-02  8.92188900665E-02
  9.01155548188E-02  9.10212312016E-02  9.19360097834E-02  9.28599820427E-02
  9.37932403777E-02  9.47358781149E-02  9.56879895188E-02  9.66496698014E-02
  9.76210151315E-02  9.86021226445E-02  9.95930904520E-02  1.00594017651E-01
  1.01605004336E-01  1.02626151607E-01  1.03657561578E-01  1.04699337391E-01
  1.05751583225E-01  1.06814404306E-01  1.07887906916E-01  1.08972198407E-01
  1.10067387209E-01  1.11173582841E-01  1.12290895924E-01  1.13419438190E-01
  1.14559322494E-01  1.15710662826E-01  1.16873574321E-01  1.18048173271E-01
  1.19234577136E-01  1.20432904558E-01  1.21643275372E-01  1.22865810614E-01
  1.24100632539E-01  1.25347864632E-01  1.26607631615E-01  1.27880059467E-01
  1.29165275431E-01  1.30463408031E-01  1.31774587080E-01  1.33098943697E-01
  1.34436610320E-01  1.35787720716E-01  1.37152409997E-01  1.38530814634E-01
  1.39923072467E-01  1.41329322724E-01  1.42749706032E-01  1.44184364429E-01
  1.45633441382E-01  1.47097081801E-01  1.48575432051E-01  1.50068639967E-01
  1.51576854873E-01  1.53100227591E-01  1.54638910459E-01  1.56193057346E-01
  1.57762823670E-01  1.59348366408E-01  1.60949844115E-01  1.62567416940E-01
  1.64201246643E-01  1.65851496607E-01  1.67518331859E-01  1.69201919084E-01
  1.70902426642E-01  1.72620024585E-01  1.74354884674E-01  1.76107180397E-01
  1.77877086984E-01  1.79664781429E-01  1.81470442502E-01  1.83294250769E-01
  1.85136388615E-01  1.86997040254E-01  1.88876391753E-01  1.90774631048E-01
  1.92691947966E-01  1.94628534239E-01  1.96584583527E-01  1.98560291438E-01
  2.00555855543E-01  2.02571475401E-01  2.04607352575E-01  2.06663690655E-01
  2.08740695277E-01  2.10838574141E-01  2.12957537039E-01  2.15097795868E-01
  2.17259564656E-01  2.19443059582E-01  2.21648498996E-01  2.23876103445E-01
  2.26126095691E-01  2.28398700734E-01  2.30694145838E-01  2.33012660550E-01
  2.35354476721E-01  2.37719828536E-01  2.40108952532E-01  2.42522087623E-01
  2.44959475125E-01  2.47421358779E-01  2.49907984775E-01  2.52419601778E-01
  2.54956460951E-01  2.57518815983E-01  2.60106923111E-01  2.62721041148E-01
  2.65361431508E-01  2.68028358232E-01  2.70722088016E-01  2.73442890234E-01
  2.76191036968E-01  2.78966803037E-01  2.81770466019E-01  2.84602306281E-01
  2.87462607012E-01  2.90351654243E-01  2.93269736881E-01  2.96217146738E-01
  2.99194178556E-01  3.02201130041E-01  3.05238301891E-01  3.08305997825E-01
  3.11404524616E-01  3.14534192119E-01  3.17695313304E-01  3.20888204285E-01
  3.24113184353E-01  3.27370576010E-01  3.30660704997E-01  3.33983900331E-01
  3.37340494332E-01  3.40730822665E-01  3.44155224363E-01  3.47614041871E-01
  3.51107621072E-01  3.54636311329E-01  3.58200465512E-01  3.61800440040E-01
  3.65436594913E-01  3.69109293751E-01  3.72818903825E-01  3.76565796101E-01
  3.80350345270E-01  3.84172929790E-01  3.88033931924E-01  3.91933737774E-01
  3.95872737325E-01  3.99851324479E-01  4.03869897099E-01  4.07928857045E-01
  4.12028610217E-01  4.16169566593E-01  4.20352140272E-01  4.24576749516E-01
  4.28843816789E-01  4.33153768801E-01  4.37507036550E-01  4.41904055368E-01
  4.46345264960E-01  4.50831109450E-01  4.55362037427E-01  4.59938501986E-01
  4.64560960780E-01  4.69229876056E-01  4.73945714712E-01  4.78708948333E-01
  4.83520053249E-01  4.88379510573E-01  4.93287806254E-01  4.98245431128E-01
  5.03252880959E-01  5.08310656499E-01  5.13419263527E-01  5.18579212910E-01
  5.23791020646E-01  5.29055207921E-01  5.34372301157E-01  5.39742832069E-01
  5.45167337714E-01  5.50646360546E-01  5.56180448474E-01  5.61770154910E-01
  5.67416038830E-01  5.73118664827E-01  5.78878603167E-01  5.84696429850E-01
  5.90572726664E-01  5.96508081242E-01  6.02503087126E-01  6.08558343820E-01
  6.14674456856E-01  6.20852037850E-01  6.27091704565E-01  6.33394080973E-01
  6.39759797317E-01  6.46189490173E-01  6.52683802518E-01  6.59243383786E-01
  6.65868889942E-01  6.72560983542E-01  6.79320333801E-01  6.86147616659E-01
  6.93043514851E-01  7.00008717972E-01  7.07043922548E-01  7.14149832106E-01
  7.21327157241E-01  7.28576615694E-01  7.35898932415E-01  7.43294839643E-01
  7.50765076974E-01  7.58310391439E-01  7.65931537575E-01  7.73629277502E-01
  7.81404381002E-01  7.89257625592E-01  7.97189796601E-01  8.05201687255E-01
  8.13294098748E-01  8.21467840329E-01  8.29723729379E-01  8.38062591493E-01
  8.46485260564E-01  8.54992578867E-01  8.63585397141E-01  8.72264574673E-01
  8.81030979391E-01  8.89885487940E-01  8.98828985779E-01  9.07862367266E-01
  9.16986535747E-01  9.26202403645E-01  9.35510892555E-01  9.44912933335E-01
  9.54409466195E-01  9.64001440797E-01  9.73689816346E-01  9.83475561689E-01
  9.93359655407E-01  1.00334308592E+00  1.01342685157E+00  1.02361196076E+00
  1.03389943200E+00  1.04429029404E+00  1.05478558597E+00  1.06538635735E+00
  1.07609366825E+00  1.08690858942E+00  1.09783220235E+00  1.10886559941E+00
  1.12000988396E+00  1.13126617043E+00  1.14263558446E+00  1.15411926300E+00
  1.16571835442E+00  1.17743401866E+00  1.18926742728E+00  1.20121976363E+00
  1.21329222296E+00  1.22548601252E+00  1.23780235171E+00  1.25024247216E+00
  1.26280761790E+00  1.27549904545E+00  1.28831802398E+00  1.30126583538E+00
  1.31434377444E+00  1.32755314898E+00  1.34089527994E+00  1.35437150155E+00
  1.36798316143E+00  1.38173162077E+00  1.39561825443E+00  1.40964445107E+00
  1.42381161333E+00  1.43812115794E+00  1.45257451587E+00  1.46717313245E+00
  1.48191846758E+00  1.49681199578E+00  1.51185520643E+00  1.52704960386E+00
  1.54239670753E+00  1.55789805215E+00  1.57355518787E+00  1.58936968043E+00
  1.60534311127E+00  1.62147707777E+00  1.63777319332E+00  1.65423308756E+00
  1.67085840649E+00  1.68765081265E+00  1.70461198530E+00  1.72174362056E+00
  1.73904743162E+00  1.75652514888E+00  1.77417852011E+00  1.79200931068E+00
  1.81001930367E+00  1.82821030009E+00  1.84658411907E+00  1.86514259801E+00
  1.88388759275E+00  1.90282097783E+00  1.92194464659E+00  1.94126051141E+00
  1.96077050390E+00  1.98047657508E+00  2.00038069557E+00  2.02048485579E+00
  2.04079106618E+00  2.06130135738E+00  2.08201778043E+00  2.10294240700E+00
  2.12407732956E+00  2.14542466162E+00  2.16698653793E+00  2.18876511471E+00
  2.21076256982E+00  2.23298110303E+00  2.25542293621E+00  2.27809031357E+00
  2.30098550185E+00  2.32411079060E+00  2.34746849237E+00  2.37106094294E+00
  2.39489050159E+00  2.41895955128E+00  2.44327049894E+00  2.46782577568E+00
  2.49262783706E+00  2.51767916330E+00  2.54298225956E+00  2.56853965616E+00
  2.59435390887E+00  2.62042759913E+00  2.64676333433E+00  2.67336374807E+00
  2.70023150042E+00  2.72736927816E+00  2.75477979511E+00  2.78246579233E+00
  2.81043003845E+00  2.83867532991E+00  2.86720449128E+00  2.89602037548E+00
  2.92512586413E+00  2.95452386781E+00  2.98421732633E+00  3.01420920908E+00
  3.04450251525E+00  3.07510027422E+00  3.10600554578E+00  3.13722142048E+00
  3.16875101993E+00  3.20059749713E+00  3.23276403675E+00  3.26525385546E+00
  3.29807020228E+00  3.33121635887E+00  3.36469563987E+00  3.39851139324E+00
  3.43266700058E+00  3.46716587748E+00  3.50201147385E+00  3.53720727430E+00
  3.57275679841E+00  3.60866360119E+00  3.64493127333E+00  3.68156344164E+00
  3.71856376936E+00  3.75593595655E+00  3.79368374047E+00  3.83181089593E+00
  3.87032123567E+00  3.90921861076E+00  3.94850691096E+00  3.98819006515E+00
  4.02827204167E+00  4.06875684875E+00  4.10964853490E+00  4.15095118934E+00
  4.19266894235E+00  4.23480596575E+00  4.27736647327E+00  4.32035472101E+00
  4.36377500782E+00  4.40763167576E+00  4.45192911055E+00  4.49667174196E+00
  4.54186404429E+00  4.58751053681E+00  4.63361578420E+00  4.68018439704E+00
  4.72722103221E+00  4.77473039343E+00  4.82271723167E+00  4.87118634564E+00
  4.92014258232E+00  4.96959083735E+00  5.01953605560E+00  5.06998323164E+00
  5.12093741024E+00  5.17240368684E+00  5.22438720812E+00  5.27689317247E+00
  5.32992683054E+00  5.38349348573E+00  5.43759849476E+00  5.49224726817E+00
  5.54744527088E+00  5.60319802274E+00  5.65951109908E+00  5.71639013124E+00
  5.77384080718E+00  5.83186887201E+00  5.89048012858E+00  5.94968043808E+00
  6.00947572058E+00  6.06987195566E+00  6.13087518300E+00  6.19249150296E+00
  6.25472707723E+00  6.31758812942E+00  6.38108094569E+00  6.44521187537E+00
  6.50998733161E+00  6.57541379201E+00  6.64149779927E+00  6.70824596184E+00
  6.77566495460E+00  6.84376151950E+00  6.91254246625E+00  6.98201467302E+00
  7.05218508706E+00  7.12306072550E+00  7.19464867594E+00  7.26695609724E+00
  7.33999022021E+00  7.41375834832E+00  7.48826785845E+00  7.56352620159E+00
  7.63954090367E+00  7.71631956619E+00  7.79386986711E+00  7.87219956151E+00
  7.95131648242E+00  8.03122854161E+00  8.11194373034E+00  8.19347012021E+00
  8.27581586392E+00  8.35898919611E+00  8.44299843418E+00  8.52785197914E+00
  8.61355831640E+00  8.70012601666E+00  8.78756373678E+00  8.87588022060E+00
  8.96508429984E+00  9.05518489498E+00  9.14619101615E+00  9.23811176404E+00
  9.33095633081E+00  9.42473400099E+00  9.51945415243E+00  9.61512625721E+00
  9.71175988263E+00  9.80936469213E+00  9.90795044628E+00  1.00075270037E+01
  1.01081043222E+01  1.02096924596E+01  1.03123015747E+01  1.04159419285E+01
  1.05206238852E+01  1.06263579131E+01  1.07331545856E+01  1.08410245825E+01
  1.09499786910E+01  1.10600278064E+01  1.11711829338E+01  1.12834551888E+01
  1.13968557987E+01  1.15113961037E+01  1.16270875580E+01  1.17439417306E+01
  1.18619703072E+01  1.19811850908E+01  1.21015980028E+01  1.22232210847E+01
  1.23460664989E+01  1.24701465301E+01  1.25954735863E+01  1.27220602003E+01
  1.28499190310E+01  1.29790628643E+01  1.31095046146E+01  1.32412573264E+01
  1.33743341749E+01  1.35087484680E+01  1.36445136472E+01  1.37816432892E+01
  1.39201511069E+01  1.40600509514E+01  1.42013568127E+01  1.43440828214E+01
  1.44882432505E+01  1.46338525159E+01  1.47809251788E+01  1.49294759465E+01
  1.50795196742E+01  1.52310713665E+01  1.53841461786E+01  1.55387594181E+01
  1.56949265466E+01  1.58526631807E+01  1.60119850944E+01  1.61729082200E+01
  1.63354486498E+01  1.64996226381E+01  1.66654466025E+01  1.68329371254E+01
  1.70021109560E+01  1.71729850119E+01  1.73455763806E+01  1.75199023214E+01
  1.76959802670E+01  1.78738278254E+01  1.80534627815E+01  1.82349030989E+01
  1.84181669218E+01  1.86032725768E+01  1.87902385745E+01  1.89790836117E+01
  1.91698265731E+01  1.93624865331E+01  1.95570827580E+01  1.97536347073E+01
  1.99521620367E+01  2.01526845988E+01  2.03552224462E+01  2.05597958329E+01
  2.07664252162E+01  2.09751312594E+01  2.11859348331E+01  2.13988570180E+01
  2.16139191065E+01  2.18311426049E+01  2.20505492357E+01  2.22721609398E+01
  2.24959998786E+01  2.27220884361E+01  2.29504492213E+01  2.31811050707E+01
  2.34140790498E+01  2.36493944564E+01  2.38870748221E+01  2.41271439152E+01
  2.43696257429E+01  2.46145445533E+01  2.48619248388E+01  2.51117913375E+01
  2.53641690362E+01  2.56190831730E+01  2.58765592394E+01  2.61366229833E+01
  2.63993004113E+01  2.66646177914E+01  2.69326016554E+01  2.72032788020E+01
  2.74766762992E+01  2.77528214870E+01  2.80317419800E+01  2.83134656705E+01
  2.85980207312E+01  2.88854356179E+01  2.91757390721E+01  2.94689601246E+01
  2.97651280977E+01  3.00642726083E+01  3.03664235713E+01  3.06716112019E+01
  3.09798660193E+01  3.12912188490E+01  3.16057008267E+01  3.19233434008E+01
  3.22441783359E+01  3.25682377156E+01  3.28955539463E+01  3.32261597598E+01
  3.35600882170E+01  3.38973727109E+01  3.42380469704E+01  3.45821450630E+01
  3.49297013991E+01  3.52807507343E+01  3.56353281741E+01  3.59934691763E+01
  3.63552095555E+01  3.67205854859E+01  3.70896335054E+01  3.74623905193E+01
  3.78388938034E+01  3.82191810084E+01  3.86032901633E+01  3.89912596794E+01
  3.93831283540E+01  3.97789353743E+01  4.01787203212E+01  4.05825231737E+01
  4.09903843123E+01  4.14023445235E+01  4.18184450036E+01  4.22387273631E+01
  4.26632336305E+01  4.30920062569E+01  4.35250881197E+01  4.39625225277E+01
  4.44043532245E+01  4.48506243937E+01  4.53013806627E+01  4.57566671075E+01
  4.62165292571E+01  4.66810130982E+01  4.71501650795E+01  4.76240321166E+01
  4.81026615966E+01  4.85861013828E+01  4.90743998197E+01  4.95676057375E+01
  5.00657684571E+01  5.05689377953E+01  5.10771640694E+01  5.15904981025E+01
  5.21089912284E+01  5.26326952968E+01  5.31616626786E+01  5.36959462710E+01
  5.42355995028E+01  5.47806763397E+01  5.53312312899E+01  5.58873194093E+01