
     Program PWSCF v.6.7MaX starts on 13Jan2021 at 14:32:49 

     This program is part of the open-source Quantum ESPRESSO suite
     for quantum simulation of materials; please cite
         "P. Giannozzi et al., J. Phys.:Condens. Matter 21 395502 (2009);
         "P. Giannozzi et al., J. Phys.:Condens. Matter 29 465901 (2017);
          URL http://www.quantum-espresso.org", 
     in publications or presentations arising from this work. More details at
     http://www.quantum-espresso.org/quote

     Parallel version (MPI), running on    12 processors

     MPI processes distributed on     1 nodes
     R & G space division:  proc/nbgrp/npool/nimage =      12
 WARNING: VELOCITIES FROM INPUT FILE WILL BE IGNORED
 Using CP units for velocities
     Message from routine scan_end:
     No INFO block end statement, possibly corrupted file
 After first step from input file, I will read from the CPV trajectory traj
 SKIPPING STEP FROM INPUT FILE
 STEP       953008   92.0659424800000     

     Subspace diagonalization in iterative solution of the eigenvalue problem:
     a serial algorithm will be used

 
     Parallelization info
     --------------------
     sticks:   dense  smooth     PW     G-vecs:    dense   smooth      PW
     Min        1594    1594    397               166158   166158   20754
     Max        1596    1596    400               166168   166168   20760
     Sum       19149   19149   4785              1993993  1993993  249087
 


     bravais-lattice index     =            1
     lattice parameter (alat)  =      29.3220  a.u.
     unit-cell volume          =   25210.5465 (a.u.)^3
     number of atoms/cell      =          375
     number of atomic types    =            2
     number of electrons       =      1000.00
     number of Kohn-Sham states=          500
     kinetic-energy cutoff     =      70.0000  Ry
     charge density cutoff     =     280.0000  Ry
     scf convergence threshold =      1.0E-11
     mixing beta               =       0.7000
     number of iterations used =            8  plain     mixing
     energy convergence thresh.=      0.0E+00
     force convergence thresh. =      0.0E+00
     Exchange-correlation=  SLA  PW   PBX  PBC
                           (   1   4   3   4   0   0   0)
     nstep                     =           50


     celldm(1)=  29.322034  celldm(2)=   0.000000  celldm(3)=   0.000000
     celldm(4)=   0.000000  celldm(5)=   0.000000  celldm(6)=   0.000000

     crystal axes: (cart. coord. in units of alat)
               a(1) = (   1.000000   0.000000   0.000000 )  
               a(2) = (   0.000000   1.000000   0.000000 )  
               a(3) = (   0.000000   0.000000   1.000000 )  

     reciprocal axes: (cart. coord. in units 2 pi/alat)
               b(1) = (  1.000000  0.000000  0.000000 )  
               b(2) = (  0.000000  1.000000  0.000000 )  
               b(3) = (  0.000000  0.000000  1.000000 )  


     PseudoPot. # 1 for H  read from file:
     ../pseudo/H_HSCV_PBE-1.0.upf
     MD5 check sum: 9381039c3e76055a91507fe4cf572eb6
     Pseudo is Norm-conserving, Zval =  1.0
     Generated by new atomic code, or converted to UPF format
     Using radial grid of 2000 points,  0 beta functions with: 

     PseudoPot. # 2 for O  read from file:
     ../pseudo/O_HSCV_PBE-1.0.upf
     MD5 check sum: d1ac96ff7cc4673fd84f2420bd578511
     Pseudo is Norm-conserving, Zval =  6.0
     Generated by new atomic code, or converted to UPF format
     Using radial grid of 2000 points,  1 beta functions with: 
                l(1) =   0

     atomic species   valence    mass     pseudopotential
        H              1.00     1.00000     H ( 1.00)
        O              6.00    16.00000     O ( 1.00)

     No symmetry found



   Cartesian axes

     site n.     atom                  positions (alat units)
         1           H   tau(   1) = (   0.6131426   0.6454365   0.3043490  )
         2           H   tau(   2) = (   0.6894642   1.8044522   0.6674643  )
         3           H   tau(   3) = (   0.0208298  -0.5107899   0.4001688  )
         4           H   tau(   4) = (   0.5975841   0.5780845  -0.8735436  )
         5           H   tau(   5) = (   0.6111357   1.7627276   0.7113587  )
         6           H   tau(   6) = (   0.0954797   0.8099393  -0.3097134  )
         7           H   tau(   7) = (   1.2458665  -0.2858545  -0.0675799  )
         8           H   tau(   8) = (   0.8600780  -0.9248047  -0.3516261  )
         9           H   tau(   9) = (   1.2864356  -0.3315598   0.0129049  )
        10           H   tau(  10) = (  -0.5422800  -0.9248829   0.0602969  )
        11           H   tau(  11) = (   0.7732746   0.8754508  -0.0410538  )
        12           H   tau(  12) = (   0.6231179   0.3976597   1.1449783  )
        13           H   tau(  13) = (   0.1010222  -0.4500429   0.3900729  )
        14           H   tau(  14) = (   0.5380720   0.5823792  -0.9569601  )
        15           H   tau(  15) = (   0.2471332  -0.5635776  -1.5670735  )
        16           H   tau(  16) = (   0.1509033   0.8333787  -0.3891301  )
        17           H   tau(  17) = (   0.3980066   0.9366882   0.1038810  )
        18           H   tau(  18) = (   0.3190923   0.9935043   0.0891571  )
        19           H   tau(  19) = (   1.4075934   0.0757430   1.3023743  )
        20           H   tau(  20) = (   0.5027457  -0.3663566   0.4327238  )
        21           H   tau(  21) = (  -0.4877579  -0.8601726   0.0130269  )
        22           H   tau(  22) = (   0.6656965   0.8822014   0.2791387  )
        23           H   tau(  23) = (   0.3449982  -0.5498005  -1.5424132  )
        24           H   tau(  24) = (  -0.5802698   0.8215517  -0.6436230  )
        25           H   tau(  25) = (  -0.5741957   0.9219024  -0.6189805  )
        26           H   tau(  26) = (   0.5420016  -0.4594167   0.3983097  )
        27           H   tau(  27) = (   0.6778694   0.8819917  -0.0739436  )
        28           H   tau(  28) = (   1.2251997  -0.2437009   0.7787609  )
        29           H   tau(  29) = (  -0.6576244  -0.2343707  -0.7631803  )
        30           H   tau(  30) = (  -0.7045560  -0.1510495  -0.7389926  )
        31           H   tau(  31) = (  -0.1306764   0.1255358   1.0187192  )
        32           H   tau(  32) = (   0.5284428  -0.1260503  -0.9145776  )
        33           H   tau(  33) = (  -0.8066208   1.0446864  -0.2312109  )
        34           H   tau(  34) = (  -0.0774902   0.2107361   1.0304514  )
        35           H   tau(  35) = (   0.2340252   0.7940178   1.0453780  )
        36           H   tau(  36) = (  -0.1008134  -0.5346545   1.8381642  )
        37           H   tau(  37) = (  -0.8516849  -0.1300285   0.2714456  )
        38           H   tau(  38) = (  -0.5430577  -0.3790188  -0.1811998  )
        39           H   tau(  39) = (   0.4744788  -0.2116727  -0.8963834  )
        40           H   tau(  40) = (  -0.1312589  -0.4563278   1.9045341  )
        41           H   tau(  41) = (   1.3572746   0.0383678   1.2276020  )
        42           H   tau(  42) = (  -0.1799378   0.6177692  -0.7115540  )
        43           H   tau(  43) = (  -0.2662207   0.6370522  -0.7543299  )
        44           H   tau(  44) = (  -0.1497436   0.4716584   1.3492730  )
        45           H   tau(  45) = (  -0.9050654  -0.2029417   0.2227655  )
        46           H   tau(  46) = (   0.1813641   0.8389681   1.1216319  )
        47           H   tau(  47) = (   0.8079047  -0.7478732   0.8116874  )
        48           H   tau(  48) = (  -0.4648603   0.4907290   1.1711641  )
        49           H   tau(  49) = (   1.5903224   1.4975949   0.9660179  )
        50           H   tau(  50) = (   0.2872746   0.2405709   1.5703039  )
        51           H   tau(  51) = (   1.5285305   1.5409918   0.8976502  )
        52           H   tau(  52) = (  -0.4857205   0.3869539   1.2074806  )
        53           H   tau(  53) = (   0.1952080   0.2231527   0.9502849  )
        54           H   tau(  54) = (   0.0369383   0.3647874   0.7538249  )
        55           H   tau(  55) = (  -0.0236389   0.3174529   0.8105336  )
        56           H   tau(  56) = (   0.1958599   0.2946451   1.5818719  )
        57           H   tau(  57) = (  -0.0770468  -0.1513144   1.0022928  )
        58           H   tau(  58) = (   0.0423609  -1.3012244   0.4733635  )
        59           H   tau(  59) = (  -0.3320492   1.1105835   0.7270044  )
        60           H   tau(  60) = (   0.5566252  -0.0412265   0.8921136  )
        61           H   tau(  61) = (  -0.4157177   1.0841069   0.6779888  )
        62           H   tau(  62) = (   0.2575366   0.2406859   0.7234870  )
        63           H   tau(  63) = (   0.1124197   0.2143886   0.9009161  )
        64           H   tau(  64) = (   0.6094701   0.0068752   0.8278598  )
        65           H   tau(  65) = (   0.4381605  -0.1275317   0.9244236  )
        66           H   tau(  66) = (   0.3806340   0.5716211  -0.0584386  )
        67           H   tau(  67) = (   0.0904514   1.0746261   0.1328971  )
        68           H   tau(  68) = (  -1.1915330  -0.2762776  -0.2712615  )
        69           H   tau(  69) = (   1.6732387   1.5080895   0.7079480  )
        70           H   tau(  70) = (   0.1524539   0.9934779   0.3398130  )
        71           H   tau(  71) = (   0.9546142  -0.2353355   0.3725488  )
        72           H   tau(  72) = (   0.5044819   1.3081217   0.4790164  )
        73           H   tau(  73) = (   0.2554515   1.0193832   0.3150606  )
        74           H   tau(  74) = (   0.3455844   0.5280830   0.0293969  )
        75           H   tau(  75) = (   0.0069546   1.0575140   0.0090629  )
        76           H   tau(  76) = (   1.6632226   1.6003538   0.6708910  )
        77           H   tau(  77) = (   0.4599480   0.2486643   0.0687296  )
        78           H   tau(  78) = (  -1.1974585  -0.2423632  -0.1826449  )
        79           H   tau(  79) = (   0.0543400   0.9702364  -0.0035468  )
        80           H   tau(  80) = (  -0.1277979   1.3566479   1.1087842  )
        81           H   tau(  81) = (   1.1753697   2.0182947  -0.5211844  )
        82           H   tau(  82) = (   0.0606932   1.0805298   0.4214651  )
        83           H   tau(  83) = (   0.1405448   1.0370137   0.2203482  )
        84           H   tau(  84) = (   0.2399230  -0.2297707  -0.4912874  )
        85           H   tau(  85) = (   1.0630860  -0.2197817   0.3708058  )
        86           H   tau(  86) = (   0.3820168   0.0948892  -0.1594588  )
        87           H   tau(  87) = (  -0.2084723   1.4220767   1.0785462  )
        88           H   tau(  88) = (   0.0298345   0.1325378  -0.1994907  )
        89           H   tau(  89) = (  -0.1997435   0.6527183  -0.0288149  )
        90           H   tau(  90) = (   0.2922840   0.0606786  -0.1393975  )
        91           H   tau(  91) = (  -0.0280703   0.1745367  -0.1243782  )
        92           H   tau(  92) = (   0.5072571   0.7936873   0.4548600  )
        93           H   tau(  93) = (   0.6655080   1.4992557  -0.1460849  )
        94           H   tau(  94) = (   0.7596927   1.4707616  -0.1743913  )
        95           H   tau(  95) = (  -0.7919040   1.1415859  -0.2027453  )
        96           H   tau(  96) = (   0.3012960   1.0860127   0.4996054  )
        97           H   tau(  97) = (   1.1586740   1.2326016   0.3735218  )
        98           H   tau(  98) = (   0.5932549   0.7317292   0.4816349  )
        99           H   tau(  99) = (  -0.0966652   0.2473730   0.4309127  )
       100           H   tau( 100) = (   1.1041991   1.1907041   0.2921288  )
       101           H   tau( 101) = (   0.0493646   0.9808508   0.4501059  )
       102           H   tau( 102) = (   0.1455032   0.5157388   1.7020236  )
       103           H   tau( 103) = (  -0.7174555   0.2479970   0.2985874  )
       104           H   tau( 104) = (   0.0645606   0.5185039   1.6505117  )
       105           H   tau( 105) = (   0.3297773   0.5023811  -0.6964332  )
       106           H   tau( 106) = (  -0.1436503   0.1727535   0.4880753  )
       107           H   tau( 107) = (   0.3655819   1.1521652   0.4516672  )
       108           H   tau( 108) = (  -0.5515078   0.3273006   0.3387073  )
       109           H   tau( 109) = (  -0.1500201   1.4230515   1.2548906  )
       110           H   tau( 110) = (  -0.5350728   0.2615447   0.2583369  )
       111           H   tau( 111) = (  -0.0065601   0.7564089   0.1054382  )
       112           H   tau( 112) = (   0.5373997   1.3824385   1.4204457  )
       113           H   tau( 113) = (  -0.5655605   0.7392521   0.7101609  )
       114           H   tau( 114) = (  -0.5809273   1.0908658   1.5718919  )
       115           H   tau( 115) = (  -0.5004357   1.1683633   0.7824940  )
       116           H   tau( 116) = (   0.2912771  -0.3926431   0.3304074  )
       117           H   tau( 117) = (  -0.5810404   1.0203596   1.6431611  )
       118           H   tau( 118) = (  -0.5801132   0.7686335   0.8026190  )
       119           H   tau( 119) = (  -0.5579182   1.1334722   0.7088219  )
       120           H   tau( 120) = (   0.8786502   0.5973288   0.1494778  )
       121           H   tau( 121) = (   0.0382504   0.6960940   0.1743632  )
       122           H   tau( 122) = (   0.9089682   0.5103080   0.1018038  )
       123           H   tau( 123) = (   0.4382070   0.3063128   0.9994316  )
       124           H   tau( 124) = (   0.4213770   0.9572647   0.8842698  )
       125           H   tau( 125) = (   0.2284123  -0.3191329   0.3310161  )
       126           H   tau( 126) = (   0.0511277  -0.3983641   0.5032083  )
       127           H   tau( 127) = (   1.1735911   1.6651869   0.5480871  )
       128           H   tau( 128) = (   0.5727849   0.8592782   0.3036045  )
       129           H   tau( 129) = (   1.8136860  -0.8383331  -0.3458799  )
       130           H   tau( 130) = (   1.6346438   0.3511296  -0.2081495  )
       131           H   tau( 131) = (   1.9459187   0.3576343  -0.6355165  )
       132           H   tau( 132) = (   1.6078818   0.7228964   0.2451159  )
       133           H   tau( 133) = (  -0.0261351   0.6159294   0.7294258  )
       134           H   tau( 134) = (   0.6510196  -0.0679104   0.1399309  )
       135           H   tau( 135) = (  -0.2640746   0.7512117   0.4260799  )
       136           H   tau( 136) = (   0.0019221   0.1087698   0.6650576  )
       137           H   tau( 137) = (   0.0490049   0.0209183   0.6778604  )
       138           H   tau( 138) = (  -0.2262440  -1.0753149  -0.3293188  )
       139           H   tau( 139) = (   0.9095214  -0.0432378   0.5007456  )
       140           H   tau( 140) = (   0.6632907  -0.0884097   0.0457157  )
       141           H   tau( 141) = (   0.9489040  -0.0058177   0.5891431  )
       142           H   tau( 142) = (   0.3479654   0.3976015   0.1010115  )
       143           H   tau( 143) = (   0.2887464  -0.6653217   0.8045842  )
       144           H   tau( 144) = (   0.3459774   0.4745658   0.1634970  )
       145           H   tau( 145) = (  -0.2543566   0.6915761   0.5055828  )
       146           H   tau( 146) = (  -0.0119474   0.6413100   0.6251916  )
       147           H   tau( 147) = (   0.6810979   0.6346462   0.9575312  )
       148           H   tau( 148) = (   0.9362958   0.2028977   0.1755706  )
       149           H   tau( 149) = (   0.8221702   0.7399507  -0.7162983  )
       150           H   tau( 150) = (   0.6256119   0.0995225   0.9363023  )
       151           H   tau( 151) = (   0.1746255   0.9299959   0.6889732  )
       152           H   tau( 152) = (   0.9956238   0.2554315   0.1185733  )
       153           H   tau( 153) = (   1.1000034  -0.5920338   0.5564323  )
       154           H   tau( 154) = (   0.1950376   0.9991098   0.6242768  )
       155           H   tau( 155) = (   0.6971729   0.1616251   0.8994616  )
       156           H   tau( 156) = (   1.1166383   0.5106590   0.0155056  )
       157           H   tau( 157) = (   1.2104478  -0.3346414   0.8017305  )
       158           H   tau( 158) = (   0.1301011   0.5816677   0.2436016  )
       159           H   tau( 159) = (   0.8419154  -0.7940920   0.9068646  )
       160           H   tau( 160) = (   0.8395215   0.8469330  -0.7122166  )
       161           H   tau( 161) = (   0.9603307  -0.6144456   0.9394882  )
       162           H   tau( 162) = (   0.5250409   0.3090764  -0.1272215  )
       163           H   tau( 163) = (   1.0551066  -0.6470529   0.4930701  )
       164           H   tau( 164) = (   0.4362800   0.3369911  -0.1566742  )
       165           H   tau( 165) = (   0.7393389   1.0870330  -0.9117955  )
       166           H   tau( 166) = (   1.0349396  -0.6799227   0.9463036  )
       167           H   tau( 167) = (   0.8035459   1.0911543  -0.8318985  )
       168           H   tau( 168) = (   0.7732594  -0.4415573   0.6086807  )
       169           H   tau( 169) = (   0.5942343  -0.8001575   1.2286809  )
       170           H   tau( 170) = (   1.6380884   0.3426611   1.5730921  )
       171           H   tau( 171) = (   1.1391125   0.2508469   1.1306795  )
       172           H   tau( 172) = (   0.9373884   0.6416566   0.8732504  )
       173           H   tau( 173) = (   0.4055937   1.4959858   0.6543593  )
       174           H   tau( 174) = (   1.0376116   0.6061075   0.8848076  )
       175           H   tau( 175) = (   0.2999620  -0.6050349   0.6176558  )
       176           H   tau( 176) = (   0.7499285   0.9485534   1.3973860  )
       177           H   tau( 177) = (   1.1132749   0.2539608   1.0321698  )
       178           H   tau( 178) = (   0.9131387  -0.0677170   1.0429871  )
       179           H   tau( 179) = (   1.3324599   0.2034254   0.7615467  )
       180           H   tau( 180) = (   0.2431079  -0.5249149   0.6116497  )
       181           H   tau( 181) = (   0.9460457   0.8970931   1.2604976  )
       182           H   tau( 182) = (   0.8871198   0.9053134   1.1774482  )
       183           H   tau( 183) = (   0.4988850   1.5137034   0.6813646  )
       184           H   tau( 184) = (   0.8680273  -0.3945844   0.6185402  )
       185           H   tau( 185) = (   0.1067285   0.5167430   0.1736439  )
       186           H   tau( 186) = (   1.3809553  -0.3120764   1.1063467  )
       187           H   tau( 187) = (   0.7554017   1.0232347   1.3394037  )
       188           H   tau( 188) = (   0.7002704   0.7268493   0.9924037  )
       189           H   tau( 189) = (   1.4423909  -0.3404853   1.1755037  )
       190           H   tau( 190) = (   1.0610485   0.8127333   0.9394918  )
       191           H   tau( 191) = (   0.0273763   1.2523124   0.6683216  )
       192           H   tau( 192) = (  -0.2971962  -0.0375591  -0.3977263  )
       193           H   tau( 193) = (   0.6069176   2.4518340   0.3122442  )
       194           H   tau( 194) = (   1.5033443   1.3622852   0.6465412  )
       195           H   tau( 195) = (   1.6805684   0.0795712   0.5270556  )
       196           H   tau( 196) = (   0.9958140   0.7398865   0.9183119  )
       197           H   tau( 197) = (   1.1676837   0.9403915   0.8867415  )
       198           H   tau( 198) = (   1.2229398   0.5014150  -0.1850745  )
       199           H   tau( 199) = (   0.2437130  -0.1687361  -0.5786737  )
       200           H   tau( 200) = (   0.7058802   0.2474977   0.2555374  )
       201           H   tau( 201) = (   1.5880987   0.0462427   0.5472861  )
       202           H   tau( 202) = (   0.0104402   1.2188748   0.5758185  )
       203           H   tau( 203) = (   0.6736308   2.4954921   0.3813179  )
       204           H   tau( 204) = (   1.1523361   0.5444648  -0.1283229  )
       205           H   tau( 205) = (   0.6771686   0.2798151   0.1661977  )
       206           H   tau( 206) = (   1.5113268   1.2633184   0.6381217  )
       207           H   tau( 207) = (   1.6367556   0.2573755  -0.1678186  )
       208           H   tau( 208) = (   1.1933231   0.8990810   0.9845012  )
       209           H   tau( 209) = (   1.2475400   1.9482580  -0.4954513  )
       210           H   tau( 210) = (   2.0227225   0.2945244  -0.6252887  )
       211           H   tau( 211) = (   1.6134551   1.3388272   1.0700176  )
       212           H   tau( 212) = (   0.3222478  -0.5869974   0.7445183  )
       213           H   tau( 213) = (   0.3675728   0.7280088   0.5773577  )
       214           H   tau( 214) = (  -0.1172165   0.6213428   0.0184895  )
       215           H   tau( 215) = (   0.8640294   1.3231056   0.6838336  )
       216           H   tau( 216) = (   0.7506941   0.4835186   0.4754873  )
       217           H   tau( 217) = (   0.7791203   1.3255336   0.6259447  )
       218           H   tau( 218) = (   0.2204823   0.1512127   1.1639740  )
       219           H   tau( 219) = (   0.4677219   0.7551668   0.5673489  )
       220           H   tau( 220) = (   0.2840284   0.2101341   1.1218579  )
       221           H   tau( 221) = (   1.4132366   0.5602210  -0.7032584  )
       222           H   tau( 222) = (   0.3050572   0.3113754   0.3803334  )
       223           H   tau( 223) = (   1.9747034   0.9312009  -0.1535463  )
       224           H   tau( 224) = (   0.2132167   1.4502951   0.1166198  )
       225           H   tau( 225) = (   0.1293424   1.3959667   0.0941713  )
       226           H   tau( 226) = (   1.9679496   1.0190862  -0.2024630  )
       227           H   tau( 227) = (   0.9774645   0.5801984   0.2829948  )
       228           H   tau( 228) = (   0.8015775   0.5607411   0.4839614  )
       229           H   tau( 229) = (   1.1300814   1.6026316  -0.0213179  )
       230           H   tau( 230) = (   0.9536964   0.6539298   0.3486819  )
       231           H   tau( 231) = (   0.4437987  -0.4807167  -0.2059453  )
       232           H   tau( 232) = (   1.3759764   0.8702091   1.6611687  )
       233           H   tau( 233) = (   1.4118571   0.9047810   1.7475104  )
       234           H   tau( 234) = (   0.7400315   0.9590728   1.8087130  )
       235           H   tau( 235) = (   1.2415994   1.6522766   0.4626392  )
       236           H   tau( 236) = (   0.7713101   1.2590203   1.3953733  )
       237           H   tau( 237) = (   0.9164596   1.0591706   1.2578050  )
       238           H   tau( 238) = (  -0.1908236   0.8534599   0.4356775  )
       239           H   tau( 239) = (   0.5474054   1.1178557   0.3329231  )
       240           H   tau( 240) = (   1.9346408   0.8041544   2.7247773  )
       241           H   tau( 241) = (   0.3454890   1.2220463   0.9965316  )
       242           H   tau( 242) = (   0.3171517   1.1241753   0.9717842  )
       243           H   tau( 243) = (   0.7637740   1.3550071   1.3514383  )
       244           H   tau( 244) = (   0.6120485   1.0502819   0.3907545  )
       245           H   tau( 245) = (   0.8982598   1.1391426   1.3255407  )
       246           H   tau( 246) = (   1.9871626   0.8499213   2.6407919  )
       247           H   tau( 247) = (   0.8375834   0.9801319   1.8213740  )
       248           H   tau( 248) = (   0.5313571   0.1499731   1.1834828  )
       249           H   tau( 249) = (   1.6837278   0.3169225   1.4797972  )
       250           H   tau( 250) = (  -0.2265718   0.8921373   0.5263279  )
       251           O   tau( 251) = (   0.4914952  -0.4211915   0.4035853  )
       252           O   tau( 252) = (   0.8219356  -0.8855558  -0.3848636  )
       253           O   tau( 253) = (   0.5386453   0.5751766  -0.8937482  )
       254           O   tau( 254) = (   1.2414724  -0.2898847  -0.0036009  )
       255           O   tau( 255) = (   0.1546555   0.8292323  -0.3260821  )
       256           O   tau( 256) = (   0.3792123   0.9976278   0.1072258  )
       257           O   tau( 257) = (  -0.4989924  -0.8762859   0.0732232  )
       258           O   tau( 258) = (   0.6661407   1.7447242   0.6885134  )
       259           O   tau( 259) = (   0.0724593  -0.4904837   0.4300068  )
       260           O   tau( 260) = (   0.3070992  -0.5767163  -1.5855122  )
       261           O   tau( 261) = (   0.7175273   0.8458579  -0.0392886  )
       262           O   tau( 262) = (   0.6170500   0.8427512   0.2633987  )
       263           O   tau( 263) = (   1.3624802   0.0357965   1.2908190  )
       264           O   tau( 264) = (   0.1330580   0.0841498   0.1763759  )
       265           O   tau( 265) = (  -0.0852424   0.1644053   0.9892611  )
       266           O   tau( 266) = (  -0.1504275  -0.5125796   1.8701440  )
       267           O   tau( 267) = (  -0.6867482  -0.2048809  -0.7129617  )
       268           O   tau( 268) = (  -0.8725928  -0.1910629   0.2772573  )
       269           O   tau( 269) = (  -0.2062149   0.6509906  -0.7539474  )
       270           O   tau( 270) = (   1.2445211  -0.2860841   0.8192708  )
       271           O   tau( 271) = (   0.4681111  -0.1509457  -0.9180154  )
       272           O   tau( 272) = (   0.2303452   0.8489684   1.0865747  )
       273           O   tau( 273) = (  -0.8037496   1.0799670  -0.1796175  )
       274           O   tau( 274) = (  -0.1497830   0.4118144   1.3207354  )
       275           O   tau( 275) = (  -0.4555812   0.4414457   1.2131119  )
       276           O   tau( 276) = (  -0.0240583   0.3576435   0.7618835  )
       277           O   tau( 277) = (   0.2546827   0.2797382   1.6092905  )
       278           O   tau( 278) = (  -0.1227609  -0.1194899   1.0407200  )
       279           O   tau( 279) = (  -0.3869614   1.0817315   0.7330771  )
       280           O   tau( 280) = (   1.5868188   1.5454207   0.9255678  )
       281           O   tau( 281) = (   0.2722856   0.2095199   0.7774003  )
       282           O   tau( 282) = (   0.4616953  -0.0937721   0.8780633  )
       283           O   tau( 283) = (   0.7154947   0.9728803   1.3428907  )
       284           O   tau( 284) = (   0.6179300  -0.0166382   0.8848711  )
       285           O   tau( 285) = (   0.0266340   1.0076492   0.0413683  )
       286           O   tau( 286) = (  -1.1513260  -0.2607718  -0.2247316  )
       287           O   tau( 287) = (   0.2052700   0.9790437   0.3105489  )
       288           O   tau( 288) = (  -0.5430095   0.8667031  -0.6156175  )
       289           O   tau( 289) = (   1.2321817   2.0064189  -0.4900570  )
       290           O   tau( 290) = (   1.6587999   1.5401209   0.6550321  )
       291           O   tau( 291) = (   0.0787081   1.0198416   0.4144708  )
       292           O   tau( 292) = (   0.3667454   0.5800842   0.0030258  )
       293           O   tau( 293) = (   0.3438231   1.1342381   0.5079990  )
       294           O   tau( 294) = (   0.6941419   1.4639838  -0.1898396  )
       295           O   tau( 295) = (  -0.1233325   0.1902974   0.4289252  )
       296           O   tau( 296) = (   0.5269270   0.7394481   0.4880487  )
       297           O   tau( 297) = (   0.0217129   0.1858816  -0.1697225  )
       298           O   tau( 298) = (  -0.1615064   1.4158019   1.1158088  )
       299           O   tau( 299) = (   1.1018392   1.2086611   0.3545420  )
       300           O   tau( 300) = (  -0.7101450   0.2502980   0.3605434  )
       301           O   tau( 301) = (   0.1238951   0.5050314   1.6419922  )
       302           O   tau( 302) = (   0.3566049   0.0592812  -0.1151930  )
       303           O   tau( 303) = (  -0.1401954   0.6337540  -0.0438224  )
       304           O   tau( 304) = (   0.2364878  -0.3779230   0.3611251  )
       305           O   tau( 305) = (   0.9170526   0.5772017   0.1075043  )
       306           O   tau( 306) = (  -0.5375137   0.7399677   0.7709990  )
       307           O   tau( 307) = (  -0.5570646   0.3231594   0.2757009  )
       308           O   tau( 308) = (   0.4273796   0.3052576   1.0648650  )
       309           O   tau( 309) = (  -0.5467011   1.0705460   1.6256126  )
       310           O   tau( 310) = (   0.0559617  -0.3419922   0.5284829  )
       311           O   tau( 311) = (  -0.5585975   1.1634804   0.7641711  )
       312           O   tau( 312) = (   0.0238292   0.7550012   0.1595168  )
       313           O   tau( 313) = (   1.0162972  -0.2570538   1.3924083  )
       314           O   tau( 314) = (   0.4842795   1.3535499   1.4422461  )
       315           O   tau( 315) = (   0.1375296   0.2430953   0.9516816  )
       316           O   tau( 316) = (   1.6571234   0.3741001   1.0965850  )
       317           O   tau( 317) = (   1.9749518   0.3232216  -0.5897321  )
       318           O   tau( 318) = (  -0.0393570   0.6019642   0.6658579  )
       319           O   tau( 319) = (   1.6218330   0.6597410   0.2451225  )
       320           O   tau( 320) = (   0.6211373  -0.0628279   0.0839500  )
       321           O   tau( 321) = (  -0.0108166   0.0491992   0.6798611  )
       322           O   tau( 322) = (   1.1852225  -0.4487269  -0.1839949  )
       323           O   tau( 323) = (   0.9605631  -0.0428870   0.5401838  )
       324           O   tau( 324) = (  -0.2997672   0.7192819   0.4663269  )
       325           O   tau( 325) = (   0.8424815   0.7884262  -0.6778165  )
       326           O   tau( 326) = (   1.1030952  -0.6470755   0.5373794  )
       327           O   tau( 327) = (   0.9292538   0.2484825   0.1286853  )
       328           O   tau( 328) = (   0.9712936  -0.6733644   0.9598520  )
       329           O   tau( 329) = (   0.6942296   0.6648695   1.0098892  )
       330           O   tau( 330) = (   1.1029862   0.5500982  -0.0369988  )
       331           O   tau( 331) = (   0.1662849   0.9942963   0.6797053  )
       332           O   tau( 332) = (   0.4654903   0.3187474  -0.1029273  )
       333           O   tau( 333) = (   0.6389640   0.1615726   0.9269951  )
       334           O   tau( 334) = (   0.0835629   0.5495930   0.2208280  )
       335           O   tau( 335) = (   0.7975689   1.0740190  -0.8987504  )
       336           O   tau( 336) = (   0.7992728  -0.7893462   0.8613973  )
       337           O   tau( 337) = (   0.4479626  -0.4378191  -0.1604031  )
       338           O   tau( 338) = (   1.0962174   0.2787219   1.0936721  )
       339           O   tau( 339) = (   0.9013602   0.9319669   1.2328819  )
       340           O   tau( 340) = (   1.6900223   0.3283763   1.5453372  )
       341           O   tau( 341) = (   1.0001357   0.6458694   0.8498775  )
       342           O   tau( 342) = (   0.3056731  -0.5408446   0.6113711  )
       343           O   tau( 343) = (   0.4532487   1.4748170   0.6916503  )
       344           O   tau( 344) = (   0.3104051   0.4426189   1.1206059  )
       345           O   tau( 345) = (   1.3987531  -0.2993022   1.1627022  )
       346           O   tau( 346) = (   0.8134751  -0.4012916   0.5788335  )
       347           O   tau( 347) = (   0.2503848  -0.1679915  -0.5153196  )
       348           O   tau( 348) = (   1.0100370   0.7863738   0.9632915  )
       349           O   tau( 349) = (   0.6127881   2.4683466   0.3739190  )
       350           O   tau( 350) = (   1.6498887   0.0301746   0.5424435  )
       351           O   tau( 351) = (  -0.2652334  -0.0908402  -0.3772881  )
       352           O   tau( 352) = (   0.0262504   1.1991651   0.6352216  )
       353           O   tau( 353) = (   0.6878209   0.2244854   0.1962963  )
       354           O   tau( 354) = (   0.3080684  -0.6059342   0.8015570  )
       355           O   tau( 355) = (   1.6083999   0.2927412  -0.2164547  )
       356           O   tau( 356) = (   1.5262413   1.3151312   0.6065784  )
       357           O   tau( 357) = (   1.1560214   0.8957002   0.9250052  )
       358           O   tau( 358) = (   0.1460242   1.4607442   0.0980633  )
       359           O   tau( 359) = (   0.9372514   0.5950230   0.3270961  )
       360           O   tau( 360) = (   1.3636117   0.5392397  -0.7372763  )
       361           O   tau( 361) = (   1.3670786   0.9109641   1.7085754  )
       362           O   tau( 362) = (   0.2511596   0.2045518   1.1721872  )
       363           O   tau( 363) = (   0.4149465   0.7657875   0.6018934  )
       364           O   tau( 364) = (   1.9519044   0.9910238  -0.1488663  )
       365           O   tau( 365) = (   0.8038299   1.3016408   0.6804098  )
       366           O   tau( 366) = (   0.7775762   0.5262088   0.4327050  )
       367           O   tau( 367) = (   0.5679876   1.0946879   0.3929620  )
       368           O   tau( 368) = (   0.5331114   0.1776326   1.2391302  )
       369           O   tau( 369) = (   1.2341338   1.6751775   0.5254250  )
       370           O   tau( 370) = (  -0.1943073   0.9042165   0.4712336  )
       371           O   tau( 371) = (   1.9851983   0.8373723   2.7028790  )
       372           O   tau( 372) = (   0.2945461   1.1836096   0.9859605  )
       373           O   tau( 373) = (   0.7348480   1.3008642   1.3681661  )
       374           O   tau( 374) = (   0.7841331   0.9905706   1.7822939  )
       375           O   tau( 375) = (   0.8956655   1.1205099   1.2607203  )

     number of k points=     1
                       cart. coord. in units 2pi/alat
        k(    1) = (   0.0000000   0.0000000   0.0000000), wk =   2.0000000

     Dense  grid:   996997 G-vectors     FFT dimensions: ( 160, 160, 160)

     Estimated max dynamical RAM per process >     501.17 MB

     Estimated total dynamical RAM >       5.87 GB

     Initial potential from superposition of free atoms

     starting charge  999.99754, renormalised to 1000.00000
     Starting wfcs are  750 randomized atomic wfcs
     charge density from previous step

     total cpu time spent up to now is        8.5 secs

     Self-consistent Calculation

     iteration #  1     ecut=    70.00 Ry     beta= 0.70
     Davidson diagonalization with overlap
     ethr =  1.00E-03,  avg # of iterations =  3.0

     total cpu time spent up to now is       28.1 secs

     total energy              =   -4279.57466467 Ry
     estimated scf accuracy    <      40.42616170 Ry

     iteration #  2     ecut=    70.00 Ry     beta= 0.70
     Davidson diagonalization with overlap
     ethr =  4.04E-03,  avg # of iterations =  2.0

     total cpu time spent up to now is       44.9 secs

     total energy              =   -4291.43532022 Ry
     estimated scf accuracy    <      23.87853502 Ry

     iteration #  3     ecut=    70.00 Ry     beta= 0.70
     Davidson diagonalization with overlap
     ethr =  2.39E-03,  avg # of iterations =  2.0

     total cpu time spent up to now is       60.4 secs

     total energy              =   -4295.14076796 Ry
     estimated scf accuracy    <       0.35767971 Ry

     iteration #  4     ecut=    70.00 Ry     beta= 0.70
     Davidson diagonalization with overlap
     ethr =  3.58E-05,  avg # of iterations =  3.0

     total cpu time spent up to now is       79.6 secs

     total energy              =   -4295.29648631 Ry
     estimated scf accuracy    <       0.29288362 Ry

     iteration #  5     ecut=    70.00 Ry     beta= 0.70
     Davidson diagonalization with overlap
     ethr =  2.93E-05,  avg # of iterations =  2.0

     total cpu time spent up to now is       92.3 secs

     total energy              =   -4295.30309736 Ry
     estimated scf accuracy    <       0.07030456 Ry

     iteration #  6     ecut=    70.00 Ry     beta= 0.70
     Davidson diagonalization with overlap
     ethr =  7.03E-06,  avg # of iterations =  2.0

     total cpu time spent up to now is      104.7 secs

     total energy              =   -4295.30326276 Ry
     estimated scf accuracy    <       0.01932880 Ry

     iteration #  7     ecut=    70.00 Ry     beta= 0.70
     Davidson diagonalization with overlap
     ethr =  1.93E-06,  avg # of iterations =  2.0

     total cpu time spent up to now is      117.7 secs

     total energy              =   -4295.30285380 Ry
     estimated scf accuracy    <       0.00526504 Ry

     iteration #  8     ecut=    70.00 Ry     beta= 0.70
     Davidson diagonalization with overlap
     ethr =  5.27E-07,  avg # of iterations =  2.0

     total cpu time spent up to now is      133.4 secs

     total energy              =   -4295.30377216 Ry
     estimated scf accuracy    <       0.00036076 Ry

     iteration #  9     ecut=    70.00 Ry     beta= 0.70
     Davidson diagonalization with overlap
     ethr =  3.61E-08,  avg # of iterations =  2.0

     total cpu time spent up to now is      148.6 secs

     total energy              =   -4295.30382592 Ry
     estimated scf accuracy    <       0.00009654 Ry

     iteration # 10     ecut=    70.00 Ry     beta= 0.70
     Davidson diagonalization with overlap
     ethr =  9.65E-09,  avg # of iterations =  2.0

     total cpu time spent up to now is      160.9 secs

     total energy              =   -4295.30382253 Ry
     estimated scf accuracy    <       0.00002428 Ry

     iteration # 11     ecut=    70.00 Ry     beta= 0.70
     Davidson diagonalization with overlap
     ethr =  2.43E-09,  avg # of iterations =  2.0

     total cpu time spent up to now is      176.3 secs

     total energy              =   -4295.30382702 Ry
     estimated scf accuracy    <       0.00000051 Ry

     iteration # 12     ecut=    70.00 Ry     beta= 0.70
     Davidson diagonalization with overlap
     ethr =  5.06E-11,  avg # of iterations =  4.0

     total cpu time spent up to now is      195.1 secs

     total energy              =   -4295.30382718 Ry
     estimated scf accuracy    <       0.00000019 Ry

     iteration # 13     ecut=    70.00 Ry     beta= 0.70
     Davidson diagonalization with overlap
     ethr =  1.94E-11,  avg # of iterations =  3.0

     total cpu time spent up to now is      210.3 secs

     total energy              =   -4295.30382720 Ry
     estimated scf accuracy    <       0.00000002 Ry

     iteration # 14     ecut=    70.00 Ry     beta= 0.70
     Davidson diagonalization with overlap
     ethr =  1.73E-12,  avg # of iterations =  3.0

     total cpu time spent up to now is      228.0 secs

     total energy              =   -4295.30382720 Ry
     estimated scf accuracy    <          1.9E-09 Ry

     iteration # 15     ecut=    70.00 Ry     beta= 0.70
     Davidson diagonalization with overlap
     ethr =  1.89E-13,  avg # of iterations =  3.0

     total cpu time spent up to now is      245.1 secs

     total energy              =   -4295.30382721 Ry
     estimated scf accuracy    <          2.6E-10 Ry

     iteration # 16     ecut=    70.00 Ry     beta= 0.70
     Davidson diagonalization with overlap
     ethr =  1.00E-13,  avg # of iterations =  2.0

     total cpu time spent up to now is      257.6 secs

     total energy              =   -4295.30382721 Ry
     estimated scf accuracy    <          2.4E-11 Ry

     iteration # 17     ecut=    70.00 Ry     beta= 0.70
     Davidson diagonalization with overlap
     ethr =  1.00E-13,  avg # of iterations =  1.0

     total cpu time spent up to now is      269.1 secs

     End of self-consistent calculation

          k = 0.0000 0.0000 0.0000 (124544 PWs)   bands (ev):

   -22.3094 -22.1477 -22.0569 -22.0262 -21.9836 -21.9765 -21.9089 -21.9069
   -21.8677 -21.8279 -21.8018 -21.7852 -21.7567 -21.6754 -21.6692 -21.6558
   -21.6418 -21.6304 -21.5726 -21.5511 -21.5410 -21.5317 -21.5229 -21.4947
   -21.4911 -21.4571 -21.4315 -21.4129 -21.4046 -21.3821 -21.3623 -21.3424
   -21.3333 -21.2921 -21.2751 -21.2656 -21.2612 -21.2408 -21.2344 -21.2061
   -21.1903 -21.1771 -21.1749 -21.1510 -21.1398 -21.1280 -21.1223 -21.1049
   -21.0982 -21.0838 -21.0652 -21.0598 -21.0440 -21.0339 -21.0217 -21.0079
   -20.9983 -20.9848 -20.9821 -20.9774 -20.9648 -20.9558 -20.9379 -20.9259
   -20.9227 -20.9217 -20.9009 -20.8952 -20.8793 -20.8675 -20.8521 -20.8475
   -20.8369 -20.8118 -20.7988 -20.7801 -20.7774 -20.7565 -20.7420 -20.7291
   -20.7217 -20.7075 -20.6978 -20.6919 -20.6783 -20.6551 -20.6515 -20.6351
   -20.6263 -20.6169 -20.5915 -20.5847 -20.5574 -20.5422 -20.5125 -20.5071
   -20.4969 -20.4659 -20.4527 -20.4379 -20.4159 -20.4082 -20.4008 -20.3978
   -20.3729 -20.3495 -20.3283 -20.3153 -20.2984 -20.2562 -20.2118 -20.1661
   -20.1212 -20.1190 -20.0159 -20.0029 -19.9970 -19.9782 -19.9685 -19.9385
   -19.7501 -19.6982 -19.6515 -19.3741 -18.9791 -10.4858 -10.1071 -10.0964
    -9.9979  -9.9705  -9.9534  -9.8938  -9.8716  -9.8376  -9.7910  -9.7742
    -9.7656  -9.7196  -9.6821  -9.6378  -9.5961  -9.5851  -9.5749  -9.5435
    -9.5232  -9.5125  -9.4870  -9.4710  -9.4689  -9.4386  -9.4235  -9.3806
    -9.3731  -9.3441  -9.3313  -9.3191  -9.3002  -9.2644  -9.2571  -9.2404
    -9.2235  -9.2083  -9.1873  -9.1721  -9.1664  -9.1616  -9.1338  -9.1272
    -9.1119  -9.0975  -9.0905  -9.0749  -9.0448  -9.0334  -9.0166  -9.0049
    -9.0017  -8.9991  -8.9878  -8.9771  -8.9669  -8.9579  -8.9307  -8.9181
    -8.9084  -8.8828  -8.8667  -8.8546  -8.8487  -8.8435  -8.8225  -8.8139
    -8.8017  -8.7864  -8.7775  -8.7707  -8.7623  -8.7460  -8.7393  -8.7284
    -8.7086  -8.7049  -8.6973  -8.6700  -8.6438  -8.6353  -8.6287  -8.6192
    -8.5989  -8.5895  -8.5586  -8.5523  -8.5379  -8.5315  -8.5186  -8.5130
    -8.4860  -8.4815  -8.4511  -8.4375  -8.4269  -8.4090  -8.3866  -8.3725
    -8.3578  -8.3499  -8.3417  -8.3275  -8.3156  -8.3119  -8.2993  -8.2641
    -8.2491  -8.2021  -8.1793  -8.1572  -8.1407  -8.1134  -8.1013  -8.0563
    -8.0381  -8.0309  -7.9499  -7.8164  -7.7770  -7.7697  -7.7455  -7.7337
    -7.5568  -7.4176  -7.1118  -7.0957  -6.8291  -6.7945  -6.7789  -6.7531
    -6.7389  -6.6770  -6.6540  -6.6345  -6.6190  -6.5941  -6.5491  -6.5283
    -6.4850  -6.4613  -6.4473  -6.4238  -6.4062  -6.3890  -6.3388  -6.2844
    -6.2665  -6.2650  -6.2189  -6.2033  -6.1955  -6.1621  -6.1557  -6.1109
    -6.0822  -6.0694  -6.0233  -5.9973  -5.9938  -5.9584  -5.9534  -5.9340
    -5.9300  -5.8907  -5.8562  -5.8301  -5.8200  -5.7940  -5.7719  -5.7437
    -5.7174  -5.7071  -5.6580  -5.6527  -5.6281  -5.6173  -5.5960  -5.5828
    -5.5630  -5.5400  -5.5289  -5.5062  -5.5001  -5.4896  -5.4708  -5.4465
    -5.4253  -5.3969  -5.3863  -5.3740  -5.3525  -5.3472  -5.3328  -5.3084
    -5.2977  -5.2745  -5.2641  -5.2474  -5.2238  -5.1967  -5.1917  -5.1742
    -5.1519  -5.1380  -5.1160  -5.0954  -5.0860  -5.0697  -5.0625  -5.0311
    -5.0005  -4.9860  -4.9556  -4.9403  -4.9312  -4.8986  -4.8888  -4.8813
    -4.8632  -4.8363  -4.8170  -4.7918  -4.7447  -4.7266  -4.6995  -4.6772
    -4.6531  -4.6415  -4.6229  -4.6099  -4.5979  -4.5715  -4.5538  -4.5508
    -4.5069  -4.4943  -4.4757  -4.4533  -4.4013  -4.3296  -4.2952  -4.2818
    -4.2513  -4.2392  -4.2220  -4.1431  -4.0954  -4.0631  -4.0357  -4.0077
    -3.9595  -3.9427  -3.9284  -3.9114  -3.8648  -3.8494  -3.8284  -3.8090
    -3.7918  -3.7864  -3.7702  -3.7510  -3.7332  -3.7276  -3.7227  -3.7148
    -3.7005  -3.6820  -3.6751  -3.6614  -3.6577  -3.6360  -3.6323  -3.6149
    -3.6101  -3.5956  -3.5950  -3.5804  -3.5708  -3.5583  -3.5551  -3.5304
    -3.5294  -3.5162  -3.5042  -3.4975  -3.4917  -3.4864  -3.4746  -3.4734
    -3.4667  -3.4598  -3.4539  -3.4423  -3.4211  -3.4058  -3.3982  -3.3921
    -3.3752  -3.3654  -3.3492  -3.3429  -3.3376  -3.3262  -3.3168  -3.3143
    -3.3053  -3.2914  -3.2806  -3.2689  -3.2633  -3.2501  -3.2487  -3.2468
    -3.2430  -3.2304  -3.2198  -3.2035  -3.1988  -3.1838  -3.1675  -3.1604
    -3.1430  -3.1201  -3.1054  -3.0992  -3.0889  -3.0797  -3.0718  -3.0579
    -3.0323  -3.0228  -3.0177  -3.0062  -3.0030  -2.9873  -2.9822  -2.9642
    -2.9588  -2.9466  -2.9289  -2.9270  -2.9155  -2.9034  -2.8997  -2.8875
    -2.8814  -2.8736  -2.8582  -2.8301  -2.8263  -2.8187  -2.8131  -2.8059
    -2.7990  -2.7755  -2.7157  -2.6894  -2.6619  -2.6570  -2.6396  -2.6268
    -2.6063  -2.5759  -2.5557  -2.5227  -2.4735  -2.4406  -2.4367  -2.3703
    -2.2434  -2.1411  -2.0110  -1.5082

     highest occupied level (ev):    -1.5082

!    total energy              =   -4295.30382721 Ry
     estimated scf accuracy    <          4.8E-12 Ry

     convergence has been achieved in  17 iterations
     charge density from previous step

     total cpu time spent up to now is      270.0 secs

     Self-consistent Calculation

     iteration #  1     ecut=    70.00 Ry     beta= 0.70
     Davidson diagonalization with overlap
     ethr =  1.00E-07,  avg # of iterations =  2.0

     Threshold (ethr) on eigenvalues was too large:
     Diagonalizing with lowered threshold

     Davidson diagonalization with overlap
     ethr =  5.82E-09,  avg # of iterations =  2.0

     total cpu time spent up to now is      299.1 secs

     total energy              =   -4295.30379548 Ry
     estimated scf accuracy    <       0.00006391 Ry

     iteration #  2     ecut=    70.00 Ry     beta= 0.70
     Davidson diagonalization with overlap
     ethr =  6.39E-09,  avg # of iterations =  3.0

     total cpu time spent up to now is      316.4 secs

     total energy              =   -4295.30380874 Ry
     estimated scf accuracy    <       0.00000952 Ry

     iteration #  3     ecut=    70.00 Ry     beta= 0.70
     Davidson diagonalization with overlap
     ethr =  9.52E-10,  avg # of iterations =  3.0

     total cpu time spent up to now is      334.1 secs

     total energy              =   -4295.30381103 Ry
     estimated scf accuracy    <       0.00000147 Ry

     iteration #  4     ecut=    70.00 Ry     beta= 0.70
     Davidson diagonalization with overlap
     ethr =  1.47E-10,  avg # of iterations =  3.0

     total cpu time spent up to now is      350.4 secs

     total energy              =   -4295.30381130 Ry
     estimated scf accuracy    <       0.00000006 Ry

     iteration #  5     ecut=    70.00 Ry     beta= 0.70
     Davidson diagonalization with overlap
     ethr =  6.26E-12,  avg # of iterations =  4.0

     total cpu time spent up to now is      368.7 secs

     total energy              =   -4295.30381131 Ry
     estimated scf accuracy    <       0.00000003 Ry

     iteration #  6     ecut=    70.00 Ry     beta= 0.70
     Davidson diagonalization with overlap
     ethr =  3.34E-12,  avg # of iterations =  4.0

     total cpu time spent up to now is      384.7 secs

     total energy              =   -4295.30381132 Ry
     estimated scf accuracy    <          2.0E-09 Ry

     iteration #  7     ecut=    70.00 Ry     beta= 0.70
     Davidson diagonalization with overlap
     ethr =  1.97E-13,  avg # of iterations =  4.0

     total cpu time spent up to now is      403.0 secs

     total energy              =   -4295.30381132 Ry
     estimated scf accuracy    <          3.6E-10 Ry

     iteration #  8     ecut=    70.00 Ry     beta= 0.70
     Davidson diagonalization with overlap
     ethr =  1.00E-13,  avg # of iterations =  2.0

     total cpu time spent up to now is      416.3 secs

     total energy              =   -4295.30381132 Ry
     estimated scf accuracy    <          5.3E-11 Ry

     iteration #  9     ecut=    70.00 Ry     beta= 0.70
     Davidson diagonalization with overlap
     ethr =  1.00E-13,  avg # of iterations =  1.0

     total cpu time spent up to now is      428.0 secs

     End of self-consistent calculation

          k = 0.0000 0.0000 0.0000 (124544 PWs)   bands (ev):

   -22.3109 -22.1468 -22.0587 -22.0258 -21.9840 -21.9779 -21.9087 -21.9066
   -21.8697 -21.8285 -21.8025 -21.7854 -21.7563 -21.6756 -21.6693 -21.6559
   -21.6422 -21.6311 -21.5727 -21.5509 -21.5414 -21.5315 -21.5222 -21.4948
   -21.4918 -21.4570 -21.4314 -21.4131 -21.4047 -21.3823 -21.3625 -21.3425
   -21.3335 -21.2919 -21.2757 -21.2658 -21.2611 -21.2425 -21.2346 -21.2059
   -21.1897 -21.1774 -21.1755 -21.1513 -21.1400 -21.1285 -21.1222 -21.1048
   -21.0993 -21.0836 -21.0655 -21.0598 -21.0439 -21.0339 -21.0214 -21.0081
   -20.9980 -20.9853 -20.9820 -20.9770 -20.9649 -20.9557 -20.9377 -20.9262
   -20.9226 -20.9223 -20.9011 -20.8952 -20.8791 -20.8669 -20.8523 -20.8469
   -20.8367 -20.8119 -20.7988 -20.7799 -20.7775 -20.7569 -20.7419 -20.7293
   -20.7216 -20.7072 -20.6976 -20.6919 -20.6782 -20.6553 -20.6519 -20.6350
   -20.6266 -20.6169 -20.5916 -20.5827 -20.5563 -20.5422 -20.5135 -20.5079
   -20.4971 -20.4662 -20.4524 -20.4383 -20.4166 -20.4085 -20.4009 -20.3978
   -20.3728 -20.3497 -20.3291 -20.3156 -20.2987 -20.2548 -20.2113 -20.1659
   -20.1202 -20.1194 -20.0162 -20.0018 -19.9974 -19.9787 -19.9673 -19.9382
   -19.7498 -19.6992 -19.6501 -19.3730 -18.9793 -10.4867 -10.1063 -10.0957
    -9.9985  -9.9717  -9.9525  -9.8941  -9.8724  -9.8392  -9.7901  -9.7747
    -9.7677  -9.7193  -9.6816  -9.6378  -9.5948  -9.5849  -9.5751  -9.5440
    -9.5241  -9.5126  -9.4879  -9.4718  -9.4687  -9.4383  -9.4236  -9.3806
    -9.3731  -9.3442  -9.3311  -9.3185  -9.2993  -9.2640  -9.2571  -9.2405
    -9.2230  -9.2087  -9.1877  -9.1712  -9.1659  -9.1618  -9.1332  -9.1270
    -9.1119  -9.0978  -9.0905  -9.0750  -9.0450  -9.0335  -9.0166  -9.0047
    -9.0016  -8.9992  -8.9876  -8.9774  -8.9650  -8.9582  -8.9306  -8.9181
    -8.9084  -8.8830  -8.8670  -8.8545  -8.8490  -8.8443  -8.8224  -8.8140
    -8.8022  -8.7867  -8.7777  -8.7710  -8.7628  -8.7469  -8.7394  -8.7286
    -8.7088  -8.7049  -8.6981  -8.6702  -8.6434  -8.6357  -8.6283  -8.6192
    -8.5990  -8.5894  -8.5589  -8.5526  -8.5377  -8.5317  -8.5185  -8.5120
    -8.4863  -8.4822  -8.4520  -8.4377  -8.4269  -8.4097  -8.3870  -8.3732
    -8.3576  -8.3501  -8.3412  -8.3271  -8.3162  -8.3118  -8.2990  -8.2641
    -8.2491  -8.2014  -8.1792  -8.1576  -8.1414  -8.1134  -8.1019  -8.0566
    -8.0391  -8.0311  -7.9493  -7.8172  -7.7770  -7.7696  -7.7456  -7.7328
    -7.5574  -7.4172  -7.1122  -7.0961  -6.8290  -6.7944  -6.7790  -6.7531
    -6.7392  -6.6770  -6.6537  -6.6347  -6.6187  -6.5943  -6.5491  -6.5281
    -6.4850  -6.4612  -6.4474  -6.4238  -6.4060  -6.3890  -6.3390  -6.2844
    -6.2665  -6.2650  -6.2191  -6.2031  -6.1954  -6.1620  -6.1557  -6.1107
    -6.0818  -6.0692  -6.0234  -5.9973  -5.9937  -5.9584  -5.9532  -5.9340
    -5.9301  -5.8908  -5.8561  -5.8299  -5.8200  -5.7940  -5.7718  -5.7436
    -5.7174  -5.7070  -5.6582  -5.6528  -5.6281  -5.6173  -5.5962  -5.5829
    -5.5630  -5.5401  -5.5290  -5.5063  -5.5002  -5.4896  -5.4709  -5.4466
    -5.4251  -5.3971  -5.3864  -5.3744  -5.3526  -5.3474  -5.3330  -5.3086
    -5.2977  -5.2747  -5.2641  -5.2473  -5.2239  -5.1969  -5.1918  -5.1742
    -5.1519  -5.1381  -5.1159  -5.0953  -5.0860  -5.0698  -5.0625  -5.0312
    -5.0006  -4.9861  -4.9558  -4.9404  -4.9312  -4.8987  -4.8891  -4.8812
    -4.8634  -4.8361  -4.8170  -4.7918  -4.7446  -4.7265  -4.6994  -4.6772
    -4.6531  -4.6417  -4.6229  -4.6100  -4.5980  -4.5715  -4.5540  -4.5508
    -4.5070  -4.4942  -4.4754  -4.4532  -4.4012  -4.3296  -4.2951  -4.2816
    -4.2517  -4.2396  -4.2217  -4.1434  -4.0956  -4.0631  -4.0356  -4.0075
    -3.9596  -3.9431  -3.9287  -3.9112  -3.8649  -3.8494  -3.8283  -3.8090
    -3.7919  -3.7864  -3.7704  -3.7511  -3.7335  -3.7275  -3.7228  -3.7148
    -3.7006  -3.6821  -3.6750  -3.6616  -3.6577  -3.6358  -3.6325  -3.6150
    -3.6101  -3.5956  -3.5950  -3.5802  -3.5706  -3.5582  -3.5550  -3.5305
    -3.5295  -3.5161  -3.5042  -3.4976  -3.4916  -3.4865  -3.4746  -3.4735
    -3.4667  -3.4598  -3.4541  -3.4424  -3.4211  -3.4057  -3.3982  -3.3920
    -3.3752  -3.3654  -3.3492  -3.3430  -3.3375  -3.3262  -3.3166  -3.3145
    -3.3053  -3.2913  -3.2805  -3.2688  -3.2631  -3.2498  -3.2488  -3.2468
    -3.2432  -3.2308  -3.2198  -3.2034  -3.1987  -3.1834  -3.1677  -3.1604
    -3.1430  -3.1202  -3.1053  -3.0993  -3.0889  -3.0797  -3.0717  -3.0582
    -3.0324  -3.0226  -3.0175  -3.0061  -3.0029  -2.9872  -2.9820  -2.9642
    -2.9588  -2.9469  -2.9289  -2.9269  -2.9155  -2.9035  -2.8996  -2.8874
    -2.8815  -2.8737  -2.8583  -2.8302  -2.8263  -2.8189  -2.8130  -2.8057
    -2.7989  -2.7752  -2.7158  -2.6892  -2.6621  -2.6577  -2.6398  -2.6263
    -2.6062  -2.5760  -2.5558  -2.5228  -2.4736  -2.4404  -2.4366  -2.3702
    -2.2428  -2.1405  -2.0106  -1.5080

     highest occupied level (ev):    -1.5080

!    total energy              =   -4295.30381132 Ry
     estimated scf accuracy    <          3.4E-12 Ry

     convergence has been achieved in   9 iterations
 ROUTINE_ZERO BEGINNING
 check_charge   500.000000000000     
     zero_current :     15.49s CPU     15.67s WALL (       1 calls)
 ZERO CURRENT CALCULATED
     routine_zero :     15.49s CPU     15.68s WALL (       1 calls)
     calcolo_i    :     11.30s CPU     12.28s WALL (       1 calls)
 IONIC CURRENT CALCULATED
     charge density from previous step

     total cpu time spent up to now is      457.2 secs

     Self-consistent Calculation

     iteration #  1     ecut=    70.00 Ry     beta= 0.70
     Davidson diagonalization with overlap
     ethr =  1.00E-07,  avg # of iterations =  2.0

     Threshold (ethr) on eigenvalues was too large:
     Diagonalizing with lowered threshold

     Davidson diagonalization with overlap
     ethr =  5.83E-09,  avg # of iterations =  2.0

     total cpu time spent up to now is      486.5 secs

     total energy              =   -4295.30376203 Ry
     estimated scf accuracy    <       0.00006387 Ry

     iteration #  2     ecut=    70.00 Ry     beta= 0.70
     Davidson diagonalization with overlap
     ethr =  6.39E-09,  avg # of iterations =  3.0

     total cpu time spent up to now is      502.8 secs

     total energy              =   -4295.30377528 Ry
     estimated scf accuracy    <       0.00000948 Ry

     iteration #  3     ecut=    70.00 Ry     beta= 0.70
     Davidson diagonalization with overlap
     ethr =  9.48E-10,  avg # of iterations =  3.0

     total cpu time spent up to now is      519.2 secs

     total energy              =   -4295.30377756 Ry
     estimated scf accuracy    <       0.00000147 Ry

     iteration #  4     ecut=    70.00 Ry     beta= 0.70
     Davidson diagonalization with overlap
     ethr =  1.47E-10,  avg # of iterations =  3.0

     total cpu time spent up to now is      534.1 secs

     total energy              =   -4295.30377783 Ry
     estimated scf accuracy    <       0.00000006 Ry

     iteration #  5     ecut=    70.00 Ry     beta= 0.70
     Davidson diagonalization with overlap
     ethr =  6.26E-12,  avg # of iterations =  4.0

     total cpu time spent up to now is      551.3 secs

     total energy              =   -4295.30377784 Ry
     estimated scf accuracy    <       0.00000003 Ry

     iteration #  6     ecut=    70.00 Ry     beta= 0.70
     Davidson diagonalization with overlap
     ethr =  3.35E-12,  avg # of iterations =  4.0

     total cpu time spent up to now is      566.2 secs

     total energy              =   -4295.30377785 Ry
     estimated scf accuracy    <          2.0E-09 Ry

     iteration #  7     ecut=    70.00 Ry     beta= 0.70
     Davidson diagonalization with overlap
     ethr =  1.96E-13,  avg # of iterations =  4.0

     total cpu time spent up to now is      583.3 secs

     total energy              =   -4295.30377785 Ry
     estimated scf accuracy    <          3.6E-10 Ry

     iteration #  8     ecut=    70.00 Ry     beta= 0.70
     Davidson diagonalization with overlap
     ethr =  1.00E-13,  avg # of iterations =  2.0

     total cpu time spent up to now is      595.8 secs

     total energy              =   -4295.30377785 Ry
     estimated scf accuracy    <          5.3E-11 Ry

     iteration #  9     ecut=    70.00 Ry     beta= 0.70
     Davidson diagonalization with overlap
     ethr =  1.00E-13,  avg # of iterations =  1.0

     total cpu time spent up to now is      606.5 secs

     End of self-consistent calculation

          k = 0.0000 0.0000 0.0000 (124544 PWs)   bands (ev):

   -22.3123 -22.1460 -22.0604 -22.0255 -21.9844 -21.9792 -21.9085 -21.9063
   -21.8717 -21.8291 -21.8033 -21.7855 -21.7558 -21.6757 -21.6693 -21.6559
   -21.6425 -21.6318 -21.5728 -21.5507 -21.5417 -21.5314 -21.5215 -21.4952
   -21.4923 -21.4568 -21.4314 -21.4132 -21.4048 -21.3825 -21.3626 -21.3425
   -21.3336 -21.2917 -21.2763 -21.2661 -21.2611 -21.2441 -21.2349 -21.2057
   -21.1891 -21.1778 -21.1762 -21.1517 -21.1402 -21.1291 -21.1219 -21.1046
   -21.1004 -21.0833 -21.0657 -21.0599 -21.0438 -21.0339 -21.0211 -21.0082
   -20.9976 -20.9859 -20.9819 -20.9766 -20.9650 -20.9555 -20.9375 -20.9264
   -20.9229 -20.9226 -20.9013 -20.8952 -20.8789 -20.8663 -20.8526 -20.8463
   -20.8365 -20.8121 -20.7988 -20.7798 -20.7775 -20.7573 -20.7419 -20.7295
   -20.7214 -20.7070 -20.6974 -20.6918 -20.6780 -20.6556 -20.6523 -20.6349
   -20.6269 -20.6169 -20.5917 -20.5807 -20.5553 -20.5420 -20.5146 -20.5087
   -20.4973 -20.4664 -20.4521 -20.4388 -20.4174 -20.4089 -20.4009 -20.3977
   -20.3727 -20.3500 -20.3300 -20.3159 -20.2990 -20.2533 -20.2108 -20.1657
   -20.1199 -20.1189 -20.0164 -20.0007 -19.9977 -19.9791 -19.9660 -19.9379
   -19.7496 -19.7002 -19.6488 -19.3718 -18.9794 -10.4875 -10.1054 -10.0951
    -9.9992  -9.9728  -9.9517  -9.8944  -9.8733  -9.8409  -9.7892  -9.7753
    -9.7697  -9.7189  -9.6812  -9.6378  -9.5935  -9.5848  -9.5754  -9.5446
    -9.5251  -9.5126  -9.4888  -9.4726  -9.4685  -9.4379  -9.4237  -9.3806
    -9.3729  -9.3443  -9.3310  -9.3178  -9.2985  -9.2635  -9.2572  -9.2406
    -9.2225  -9.2091  -9.1881  -9.1703  -9.1656  -9.1618  -9.1328  -9.1268
    -9.1119  -9.0981  -9.0906  -9.0752  -9.0452  -9.0336  -9.0167  -9.0045
    -9.0014  -8.9994  -8.9875  -8.9776  -8.9630  -8.9584  -8.9305  -8.9181
    -8.9085  -8.8832  -8.8674  -8.8543  -8.8494  -8.8450  -8.8223  -8.8141
    -8.8027  -8.7869  -8.7779  -8.7713  -8.7633  -8.7479  -8.7396  -8.7287
    -8.7090  -8.7048  -8.6989  -8.6703  -8.6429  -8.6361  -8.6279  -8.6191
    -8.5990  -8.5893  -8.5592  -8.5529  -8.5376  -8.5319  -8.5185  -8.5110
    -8.4866  -8.4828  -8.4530  -8.4379  -8.4268  -8.4104  -8.3875  -8.3739
    -8.3574  -8.3504  -8.3407  -8.3266  -8.3168  -8.3118  -8.2987  -8.2640
    -8.2491  -8.2008  -8.1790  -8.1580  -8.1421  -8.1135  -8.1024  -8.0568
    -8.0400  -8.0312  -7.9486  -7.8180  -7.7771  -7.7695  -7.7458  -7.7319
    -7.5580  -7.4169  -7.1127  -7.0965  -6.8289  -6.7943  -6.7791  -6.7531
    -6.7396  -6.6771  -6.6534  -6.6349  -6.6185  -6.5945  -6.5490  -6.5279
    -6.4850  -6.4610  -6.4475  -6.4238  -6.4058  -6.3891  -6.3392  -6.2843
    -6.2665  -6.2649  -6.2192  -6.2030  -6.1953  -6.1619  -6.1556  -6.1106
    -6.0815  -6.0690  -6.0235  -5.9974  -5.9937  -5.9584  -5.9530  -5.9340
    -5.9302  -5.8910  -5.8560  -5.8297  -5.8200  -5.7940  -5.7716  -5.7436
    -5.7173  -5.7068  -5.6584  -5.6528  -5.6281  -5.6174  -5.5963  -5.5831
    -5.5630  -5.5401  -5.5290  -5.5065  -5.5003  -5.4896  -5.4710  -5.4467
    -5.4249  -5.3973  -5.3864  -5.3747  -5.3528  -5.3476  -5.3332  -5.3087
    -5.2978  -5.2750  -5.2641  -5.2472  -5.2240  -5.1970  -5.1919  -5.1741
    -5.1519  -5.1381  -5.1159  -5.0951  -5.0860  -5.0698  -5.0624  -5.0313
    -5.0008  -4.9861  -4.9561  -4.9405  -4.9312  -4.8989  -4.8894  -4.8810
    -4.8636  -4.8359  -4.8170  -4.7918  -4.7445  -4.7263  -4.6993  -4.6771
    -4.6531  -4.6419  -4.6230  -4.6100  -4.5981  -4.5714  -4.5542  -4.5509
    -4.5071  -4.4940  -4.4752  -4.4531  -4.4011  -4.3296  -4.2950  -4.2814
    -4.2520  -4.2401  -4.2214  -4.1436  -4.0957  -4.0631  -4.0355  -4.0073
    -3.9597  -3.9435  -3.9291  -3.9111  -3.8649  -3.8493  -3.8282  -3.8091
    -3.7919  -3.7865  -3.7707  -3.7512  -3.7338  -3.7274  -3.7230  -3.7148
    -3.7006  -3.6823  -3.6749  -3.6618  -3.6577  -3.6357  -3.6326  -3.6151
    -3.6100  -3.5956  -3.5951  -3.5801  -3.5705  -3.5581  -3.5550  -3.5307
    -3.5296  -3.5160  -3.5043  -3.4976  -3.4915  -3.4867  -3.4747  -3.4736
    -3.4667  -3.4597  -3.4542  -3.4425  -3.4211  -3.4056  -3.3982  -3.3919
    -3.3752  -3.3654  -3.3493  -3.3430  -3.3374  -3.3262  -3.3164  -3.3147
    -3.3054  -3.2911  -3.2805  -3.2688  -3.2630  -3.2495  -3.2489  -3.2468
    -3.2433  -3.2312  -3.2198  -3.2033  -3.1985  -3.1830  -3.1679  -3.1604
    -3.1430  -3.1202  -3.1053  -3.0995  -3.0888  -3.0797  -3.0716  -3.0585
    -3.0325  -3.0225  -3.0173  -3.0062  -3.0028  -2.9871  -2.9818  -2.9642
    -2.9588  -2.9472  -2.9288  -2.9268  -2.9155  -2.9037  -2.8996  -2.8873
    -2.8816  -2.8737  -2.8583  -2.8303  -2.8264  -2.8191  -2.8128  -2.8056
    -2.7988  -2.7750  -2.7159  -2.6890  -2.6623  -2.6585  -2.6401  -2.6258
    -2.6062  -2.5760  -2.5559  -2.5228  -2.4737  -2.4402  -2.4365  -2.3701
    -2.2422  -2.1398  -2.0101  -1.5077

     highest occupied level (ev):    -1.5077

!    total energy              =   -4295.30377785 Ry
     estimated scf accuracy    <          3.4E-12 Ry

     convergence has been achieved in   9 iterations
     charge density from previous step
 BEGIN: HARTREE & KOHN
 check_charge   500.000000000000     
 check_charge   500.000000000001     
 check_charge   500.000000000000     
     hartree_curr :      5.65s CPU      5.94s WALL (       1 calls)
 HARTREE CURRENT CALCULATED
     xc_current   :      0.06s CPU      0.06s WALL (       1 calls)
 X-C CURRENT CALCULATED
     charge density from previous step
     project      :    144.78s CPU    153.85s WALL (       1 calls)
     kohn-first   :      0.20s CPU      0.20s WALL (       1 calls)
     kohn-second  :      0.20s CPU      0.20s WALL (       1 calls)
  KOHN POLARIZATION   1 COMPLETED
     project      :    289.15s CPU    308.72s WALL (       2 calls)
     kohn-first   :      0.39s CPU      0.40s WALL (       2 calls)
     kohn-second  :      0.39s CPU      0.39s WALL (       2 calls)
  KOHN POLARIZATION   2 COMPLETED
     project      :    431.60s CPU    460.71s WALL (       3 calls)
     kohn-first   :      0.59s CPU      0.59s WALL (       3 calls)
     kohn-second  :      0.59s CPU      0.59s WALL (       3 calls)
  KOHN POLARIZATION   3 COMPLETED
     kohn_current :    452.02s CPU    481.46s WALL (       1 calls)
 KOHN CURRENT CALCULATED
total energy current:  -0.754389239478E-02  0.200600220306E-01 -0.249237166673E-01
center of mass velocity of type   1:  -0.380312405526E-19 -0.287174673560E-18 -0.884808453672E-19
center of mass velocity of type   2:  -0.669427448502E-20 -0.446284965668E-19  0.714055945069E-19
 STEP       953040   92.0690386500000     
     charge density from previous step

     total cpu time spent up to now is     1097.1 secs

     Self-consistent Calculation

     iteration #  1     ecut=    70.00 Ry     beta= 0.70
     Davidson diagonalization with overlap
     ethr =  1.00E-03,  avg # of iterations =  4.0

     total cpu time spent up to now is     1119.1 secs

     total energy              =   -4292.85866278 Ry
     estimated scf accuracy    <      10.38408083 Ry

     iteration #  2     ecut=    70.00 Ry     beta= 0.70
     Davidson diagonalization with overlap
     ethr =  1.04E-03,  avg # of iterations =  2.0

     total cpu time spent up to now is     1134.7 secs

     total energy              =   -4295.06949169 Ry
     estimated scf accuracy    <       1.06539563 Ry

     iteration #  3     ecut=    70.00 Ry     beta= 0.70
     Davidson diagonalization with overlap
     ethr =  1.07E-04,  avg # of iterations =  3.0

     total cpu time spent up to now is     1151.1 secs

     total energy              =   -4295.31079868 Ry
     estimated scf accuracy    <       0.15783281 Ry

     iteration #  4     ecut=    70.00 Ry     beta= 0.70
     Davidson diagonalization with overlap
     ethr =  1.58E-05,  avg # of iterations =  3.0

     total cpu time spent up to now is     1166.9 secs

     total energy              =   -4295.34233298 Ry
     estimated scf accuracy    <       0.00657756 Ry

     iteration #  5     ecut=    70.00 Ry     beta= 0.70
     Davidson diagonalization with overlap
     ethr =  6.58E-07,  avg # of iterations =  3.0

     total cpu time spent up to now is     1182.8 secs

     total energy              =   -4295.34319700 Ry
     estimated scf accuracy    <       0.00138781 Ry

     iteration #  6     ecut=    70.00 Ry     beta= 0.70
     Davidson diagonalization with overlap
     ethr =  1.39E-07,  avg # of iterations =  3.0

     total cpu time spent up to now is     1198.8 secs

     total energy              =   -4295.34348488 Ry
     estimated scf accuracy    <       0.00013375 Ry

     iteration #  7     ecut=    70.00 Ry     beta= 0.70
     Davidson diagonalization with overlap
     ethr =  1.34E-08,  avg # of iterations =  4.0

     total cpu time spent up to now is     1213.8 secs

     total energy              =   -4295.34351048 Ry
     estimated scf accuracy    <       0.00001439 Ry

     iteration #  8     ecut=    70.00 Ry     beta= 0.70
     Davidson diagonalization with overlap
     ethr =  1.44E-09,  avg # of iterations =  4.0

     total cpu time spent up to now is     1230.0 secs

     total energy              =   -4295.34351374 Ry
     estimated scf accuracy    <       0.00000458 Ry

     iteration #  9     ecut=    70.00 Ry     beta= 0.70
     Davidson diagonalization with overlap
     ethr =  4.58E-10,  avg # of iterations =  4.0

     total cpu time spent up to now is     1244.4 secs

     total energy              =   -4295.34351456 Ry
     estimated scf accuracy    <       0.00000022 Ry

     iteration # 10     ecut=    70.00 Ry     beta= 0.70
     Davidson diagonalization with overlap
     ethr =  2.15E-11,  avg # of iterations =  3.0

     total cpu time spent up to now is     1261.2 secs

     total energy              =   -4295.34351463 Ry
     estimated scf accuracy    <       0.00000005 Ry

     iteration # 11     ecut=    70.00 Ry     beta= 0.70
     Davidson diagonalization with overlap
     ethr =  5.31E-12,  avg # of iterations =  3.0

     total cpu time spent up to now is     1276.5 secs

     total energy              =   -4295.34351463 Ry
     estimated scf accuracy    <          3.7E-09 Ry

     iteration # 12     ecut=    70.00 Ry     beta= 0.70
     Davidson diagonalization with overlap
     ethr =  3.68E-13,  avg # of iterations =  4.0

     total cpu time spent up to now is     1294.1 secs

     total energy              =   -4295.34351464 Ry
     estimated scf accuracy    <          9.2E-10 Ry

     iteration # 13     ecut=    70.00 Ry     beta= 0.70
     Davidson diagonalization with overlap
     ethr =  1.00E-13,  avg # of iterations =  3.0

     total cpu time spent up to now is     1309.3 secs

     total energy              =   -4295.34351464 Ry
     estimated scf accuracy    <          7.9E-11 Ry

     iteration # 14     ecut=    70.00 Ry     beta= 0.70
     Davidson diagonalization with overlap
     ethr =  1.00E-13,  avg # of iterations =  2.0

     total cpu time spent up to now is     1321.0 secs

     End of self-consistent calculation

          k = 0.0000 0.0000 0.0000 (124544 PWs)   bands (ev):

   -22.1929 -22.0813 -22.0157 -22.0047 -21.9632 -21.8697 -21.8405 -21.8237
   -21.8091 -21.7994 -21.7901 -21.7742 -21.7568 -21.7485 -21.7204 -21.7179
   -21.6836 -21.6485 -21.6219 -21.6127 -21.5973 -21.5925 -21.5814 -21.5590
   -21.5306 -21.5001 -21.4942 -21.4766 -21.4615 -21.4504 -21.4171 -21.4135
   -21.4079 -21.4008 -21.3927 -21.3310 -21.3277 -21.3083 -21.2885 -21.2824
   -21.2726 -21.2487 -21.2360 -21.2234 -21.2102 -21.2035 -21.1950 -21.1722
   -21.1501 -21.1491 -21.1383 -21.1269 -21.1068 -21.0822 -21.0715 -21.0634
   -21.0606 -21.0520 -21.0401 -21.0263 -21.0156 -21.0040 -20.9904 -20.9723
   -20.9616 -20.9367 -20.9304 -20.9109 -20.9011 -20.8908 -20.8850 -20.8805
   -20.8414 -20.8253 -20.8147 -20.7618 -20.7534 -20.7457 -20.7405 -20.7224
   -20.7164 -20.7041 -20.6943 -20.6638 -20.6506 -20.6497 -20.6401 -20.6187
   -20.6119 -20.6035 -20.5928 -20.5434 -20.5193 -20.4928 -20.4791 -20.4670
   -20.4588 -20.4373 -20.4368 -20.4273 -20.4089 -20.3938 -20.3500 -20.3426
   -20.3244 -20.3156 -20.2954 -20.2895 -20.1998 -20.1664 -20.1521 -20.1154
   -20.0786 -20.0420 -19.9509 -19.9439 -19.9026 -19.8291 -19.7423 -19.6940
   -19.6185 -19.4850 -19.4420 -19.3920 -19.3590 -10.1807 -10.1040 -10.0541
   -10.0061  -9.9430  -9.8937  -9.8747  -9.8578  -9.8536  -9.8435  -9.7641
    -9.7451  -9.7232  -9.7100  -9.6731  -9.6603  -9.6565  -9.6380  -9.6288
    -9.6155  -9.5804  -9.5495  -9.4941  -9.4654  -9.4471  -9.4054  -9.4041
    -9.3805  -9.3643  -9.3503  -9.3235  -9.3110  -9.2824  -9.2733  -9.2638
    -9.2600  -9.2432  -9.2337  -9.1951  -9.1848  -9.1643  -9.1490  -9.1429
    -9.1232  -9.1203  -9.0918  -9.0858  -9.0779  -9.0502  -9.0329  -9.0179
    -9.0112  -9.0028  -8.9775  -8.9645  -8.9585  -8.9462  -8.9284  -8.9268
    -8.9056  -8.8922  -8.8778  -8.8707  -8.8686  -8.8406  -8.8381  -8.8217
    -8.8054  -8.7984  -8.7800  -8.7750  -8.7638  -8.7601  -8.7544  -8.7415
    -8.7386  -8.7175  -8.7143  -8.7123  -8.6829  -8.6650  -8.6502  -8.6410
    -8.6265  -8.6123  -8.5982  -8.5968  -8.5772  -8.5685  -8.5389  -8.5316
    -8.5207  -8.4987  -8.4709  -8.4592  -8.4478  -8.4401  -8.3770  -8.3657
    -8.3301  -8.3174  -8.3047  -8.3004  -8.2960  -8.2807  -8.2659  -8.2494
    -8.2386  -8.2291  -8.2153  -8.1812  -8.1762  -8.1602  -8.1340  -8.1056
    -8.0985  -8.0799  -7.9775  -7.9518  -7.8400  -7.8130  -7.7675  -7.6490
    -7.6316  -7.3096  -7.1761  -7.1667  -6.9436  -6.8449  -6.7690  -6.7578
    -6.7040  -6.6910  -6.6637  -6.6095  -6.5710  -6.5384  -6.5146  -6.4900
    -6.4740  -6.4607  -6.3895  -6.3750  -6.3261  -6.3050  -6.2662  -6.2533
    -6.2312  -6.1968  -6.1806  -6.1743  -6.1489  -6.1444  -6.0852  -6.0701
    -6.0429  -6.0205  -6.0078  -5.9864  -5.9717  -5.9627  -5.9372  -5.8990
    -5.8836  -5.8635  -5.8422  -5.8311  -5.8139  -5.7941  -5.7763  -5.7557
    -5.7442  -5.7144  -5.6905  -5.6799  -5.6564  -5.6375  -5.6113  -5.5964
    -5.5869  -5.5695  -5.5370  -5.5072  -5.4955  -5.4852  -5.4673  -5.4586
    -5.4430  -5.4330  -5.4157  -5.3898  -5.3753  -5.3717  -5.3567  -5.3384
    -5.3269  -5.3031  -5.2749  -5.2580  -5.2356  -5.2277  -5.1646  -5.1540
    -5.1446  -5.1252  -5.1067  -5.0695  -5.0673  -5.0551  -5.0472  -5.0260
    -5.0168  -5.0027  -4.9779  -4.9537  -4.9460  -4.9125  -4.8971  -4.8560
    -4.8301  -4.8125  -4.7882  -4.7794  -4.7570  -4.7432  -4.7189  -4.6993
    -4.6873  -4.6553  -4.6486  -4.6329  -4.6218  -4.5978  -4.5951  -4.5767
    -4.5420  -4.5073  -4.4942  -4.4491  -4.4097  -4.3176  -4.2969  -4.2892
    -4.2617  -4.2072  -4.1842  -4.1719  -4.1300  -4.1098  -4.1048  -4.0405
    -3.9738  -3.9639  -3.9127  -3.8875  -3.8828  -3.8522  -3.8388  -3.8329
    -3.8188  -3.8050  -3.7950  -3.7704  -3.7694  -3.7557  -3.7338  -3.7256
    -3.7172  -3.7037  -3.6854  -3.6740  -3.6456  -3.6435  -3.6171  -3.6135
    -3.6047  -3.5921  -3.5837  -3.5727  -3.5710  -3.5642  -3.5588  -3.5466
    -3.5364  -3.5260  -3.5134  -3.5087  -3.4932  -3.4833  -3.4769  -3.4738
    -3.4656  -3.4530  -3.4467  -3.4350  -3.4261  -3.4135  -3.3989  -3.3956
    -3.3778  -3.3707  -3.3688  -3.3625  -3.3471  -3.3338  -3.3302  -3.3209
    -3.3035  -3.2959  -3.2801  -3.2763  -3.2750  -3.2654  -3.2404  -3.2262
    -3.2149  -3.2023  -3.1917  -3.1890  -3.1785  -3.1636  -3.1545  -3.1482
    -3.1365  -3.1203  -3.1096  -3.1031  -3.0889  -3.0790  -3.0754  -3.0574
    -3.0476  -3.0379  -3.0306  -3.0288  -2.9989  -2.9814  -2.9628  -2.9622
    -2.9464  -2.9288  -2.9216  -2.9164  -2.9010  -2.8921  -2.8734  -2.8716
    -2.8498  -2.8366  -2.8242  -2.8183  -2.8027  -2.7887  -2.7808  -2.7715
    -2.7515  -2.7457  -2.7365  -2.7244  -2.7007  -2.6711  -2.6490  -2.6347
    -2.6319  -2.5981  -2.5657  -2.5117  -2.4618  -2.4464  -2.3481  -2.2931
    -2.2702  -2.1884  -2.0656  -1.6443

     highest occupied level (ev):    -1.6443

!    total energy              =   -4295.34351464 Ry
     estimated scf accuracy    <          9.3E-12 Ry

     convergence has been achieved in  14 iterations
     charge density from previous step

     total cpu time spent up to now is     1321.7 secs

     Self-consistent Calculation

     iteration #  1     ecut=    70.00 Ry     beta= 0.70
     Davidson diagonalization with overlap
     ethr =  1.00E-07,  avg # of iterations =  2.0

     Threshold (ethr) on eigenvalues was too large:
     Diagonalizing with lowered threshold

     Davidson diagonalization with overlap
     ethr =  5.66E-09,  avg # of iterations =  2.0

     total cpu time spent up to now is     1349.1 secs

     total energy              =   -4295.34369766 Ry
     estimated scf accuracy    <       0.00006206 Ry

     iteration #  2     ecut=    70.00 Ry     beta= 0.70
     Davidson diagonalization with overlap
     ethr =  6.21E-09,  avg # of iterations =  2.0

     total cpu time spent up to now is     1364.7 secs

     total energy              =   -4295.34371072 Ry
     estimated scf accuracy    <       0.00000698 Ry

     iteration #  3     ecut=    70.00 Ry     beta= 0.70
     Davidson diagonalization with overlap
     ethr =  6.98E-10,  avg # of iterations =  3.0

     total cpu time spent up to now is     1381.1 secs

     total energy              =   -4295.34371232 Ry
     estimated scf accuracy    <       0.00000101 Ry

     iteration #  4     ecut=    70.00 Ry     beta= 0.70
     Davidson diagonalization with overlap
     ethr =  1.01E-10,  avg # of iterations =  3.0

     total cpu time spent up to now is     1396.7 secs

     total energy              =   -4295.34371251 Ry
     estimated scf accuracy    <       0.00000004 Ry

     iteration #  5     ecut=    70.00 Ry     beta= 0.70
     Davidson diagonalization with overlap
     ethr =  3.81E-12,  avg # of iterations =  4.0

     total cpu time spent up to now is     1413.1 secs

     total energy              =   -4295.34371252 Ry
     estimated scf accuracy    <          7.4E-09 Ry

     iteration #  6     ecut=    70.00 Ry     beta= 0.70
     Davidson diagonalization with overlap
     ethr =  7.39E-13,  avg # of iterations =  4.0

     total cpu time spent up to now is     1429.8 secs

     total energy              =   -4295.34371252 Ry
     estimated scf accuracy    <          7.6E-10 Ry

     iteration #  7     ecut=    70.00 Ry     beta= 0.70
     Davidson diagonalization with overlap
     ethr =  1.00E-13,  avg # of iterations =  4.0

     total cpu time spent up to now is     1444.5 secs

     total energy              =   -4295.34371252 Ry
     estimated scf accuracy    <          5.9E-11 Ry

     iteration #  8     ecut=    70.00 Ry     beta= 0.70
     Davidson diagonalization with overlap
     ethr =  1.00E-13,  avg # of iterations =  2.0

     total cpu time spent up to now is     1456.2 secs

     total energy              =   -4295.34371252 Ry
     estimated scf accuracy    <          1.8E-11 Ry

     iteration #  9     ecut=    70.00 Ry     beta= 0.70
     Davidson diagonalization with overlap
     ethr =  1.00E-13,  avg # of iterations =  1.0

     total cpu time spent up to now is     1466.9 secs

     End of self-consistent calculation

          k = 0.0000 0.0000 0.0000 (124544 PWs)   bands (ev):

   -22.1939 -22.0789 -22.0134 -22.0052 -21.9650 -21.8689 -21.8400 -21.8239
   -21.8093 -21.7984 -21.7905 -21.7736 -21.7562 -21.7484 -21.7203 -21.7177
   -21.6837 -21.6480 -21.6223 -21.6120 -21.5971 -21.5928 -21.5819 -21.5590
   -21.5294 -21.5000 -21.4929 -21.4763 -21.4617 -21.4503 -21.4169 -21.4135
   -21.4078 -21.4011 -21.3922 -21.3310 -21.3277 -21.3081 -21.2883 -21.2820
   -21.2723 -21.2480 -21.2354 -21.2231 -21.2093 -21.2035 -21.1947 -21.1717
   -21.1498 -21.1489 -21.1381 -21.1270 -21.1065 -21.0824 -21.0715 -21.0637
   -21.0606 -21.0522 -21.0408 -21.0267 -21.0154 -21.0037 -20.9898 -20.9725
   -20.9621 -20.9364 -20.9308 -20.9115 -20.9021 -20.8915 -20.8848 -20.8804
   -20.8412 -20.8255 -20.8145 -20.7608 -20.7523 -20.7453 -20.7403 -20.7226
   -20.7168 -20.7044 -20.6942 -20.6643 -20.6509 -20.6499 -20.6400 -20.6189
   -20.6121 -20.6036 -20.5928 -20.5434 -20.5168 -20.4931 -20.4791 -20.4659
   -20.4579 -20.4379 -20.4371 -20.4266 -20.4090 -20.3945 -20.3496 -20.3429
   -20.3253 -20.3159 -20.2956 -20.2907 -20.1989 -20.1653 -20.1516 -20.1162
   -20.0795 -20.0420 -19.9502 -19.9441 -19.9030 -19.8293 -19.7434 -19.6947
   -19.6183 -19.4860 -19.4436 -19.3923 -19.3601 -10.1830 -10.1058 -10.0535
   -10.0053  -9.9438  -9.8935  -9.8753  -9.8573  -9.8518  -9.8449  -9.7634
    -9.7450  -9.7212  -9.7094  -9.6717  -9.6601  -9.6557  -9.6374  -9.6282
    -9.6145  -9.5790  -9.5496  -9.4937  -9.4655  -9.4472  -9.4055  -9.4047
    -9.3809  -9.3645  -9.3508  -9.3217  -9.3106  -9.2835  -9.2729  -9.2633
    -9.2598  -9.2430  -9.2339  -9.1953  -9.1848  -9.1638  -9.1490  -9.1429
    -9.1232  -9.1202  -9.0917  -9.0857  -9.0781  -9.0503  -9.0332  -9.0180
    -9.0111  -9.0025  -8.9774  -8.9646  -8.9586  -8.9464  -8.9285  -8.9270
    -8.9054  -8.8923  -8.8777  -8.8709  -8.8687  -8.8405  -8.8384  -8.8213
    -8.8052  -8.7987  -8.7801  -8.7757  -8.7641  -8.7600  -8.7542  -8.7418
    -8.7386  -8.7166  -8.7136  -8.7120  -8.6822  -8.6648  -8.6502  -8.6419
    -8.6263  -8.6122  -8.5982  -8.5964  -8.5772  -8.5685  -8.5388  -8.5317
    -8.5204  -8.4982  -8.4703  -8.4589  -8.4479  -8.4403  -8.3776  -8.3662
    -8.3309  -8.3177  -8.3048  -8.3007  -8.2960  -8.2809  -8.2658  -8.2493
    -8.2387  -8.2285  -8.2154  -8.1809  -8.1763  -8.1602  -8.1339  -8.1055
    -8.0983  -8.0794  -7.9776  -7.9522  -7.8400  -7.8131  -7.7682  -7.6490
    -7.6317  -7.3095  -7.1758  -7.1665  -6.9435  -6.8447  -6.7690  -6.7576
    -6.7041  -6.6908  -6.6639  -6.6093  -6.5710  -6.5383  -6.5146  -6.4899
    -6.4739  -6.4604  -6.3890  -6.3749  -6.3258  -6.3045  -6.2662  -6.2532
    -6.2312  -6.1968  -6.1805  -6.1743  -6.1488  -6.1445  -6.0853  -6.0701
    -6.0428  -6.0206  -6.0078  -5.9861  -5.9718  -5.9628  -5.9372  -5.8993
    -5.8835  -5.8637  -5.8419  -5.8313  -5.8137  -5.7944  -5.7763  -5.7557
    -5.7442  -5.7143  -5.6903  -5.6800  -5.6564  -5.6374  -5.6114  -5.5964
    -5.5872  -5.5694  -5.5370  -5.5073  -5.4953  -5.4852  -5.4673  -5.4586
    -5.4431  -5.4328  -5.4156  -5.3897  -5.3755  -5.3715  -5.3565  -5.3384
    -5.3269  -5.3031  -5.2750  -5.2578  -5.2355  -5.2274  -5.1648  -5.1537
    -5.1445  -5.1253  -5.1066  -5.0692  -5.0672  -5.0553  -5.0471  -5.0262
    -5.0170  -5.0028  -4.9779  -4.9539  -4.9458  -4.9127  -4.8970  -4.8559
    -4.8303  -4.8123  -4.7879  -4.7793  -4.7569  -4.7431  -4.7188  -4.6994
    -4.6873  -4.6556  -4.6485  -4.6329  -4.6218  -4.5977  -4.5948  -4.5766
    -4.5419  -4.5072  -4.4944  -4.4493  -4.4101  -4.3179  -4.2970  -4.2895
    -4.2620  -4.2078  -4.1844  -4.1720  -4.1294  -4.1093  -4.1044  -4.0412
    -3.9737  -3.9637  -3.9131  -3.8880  -3.8830  -3.8524  -3.8389  -3.8327
    -3.8189  -3.8051  -3.7954  -3.7704  -3.7697  -3.7553  -3.7330  -3.7256
    -3.7170  -3.7036  -3.6850  -3.6740  -3.6455  -3.6435  -3.6171  -3.6135
    -3.6045  -3.5922  -3.5838  -3.5726  -3.5707  -3.5640  -3.5588  -3.5465
    -3.5363  -3.5260  -3.5134  -3.5085  -3.4931  -3.4830  -3.4767  -3.4738
    -3.4655  -3.4530  -3.4465  -3.4351  -3.4259  -3.4137  -3.3990  -3.3956
    -3.3780  -3.3708  -3.3688  -3.3626  -3.3469  -3.3339  -3.3301  -3.3209
    -3.3034  -3.2958  -3.2797  -3.2761  -3.2755  -3.2655  -3.2407  -3.2263
    -3.2147  -3.2022  -3.1918  -3.1891  -3.1788  -3.1637  -3.1547  -3.1482
    -3.1365  -3.1204  -3.1095  -3.1032  -3.0887  -3.0789  -3.0755  -3.0574
    -3.0474  -3.0382  -3.0304  -3.0288  -2.9989  -2.9809  -2.9630  -2.9622
    -2.9466  -2.9286  -2.9216  -2.9166  -2.9011  -2.8920  -2.8734  -2.8715
    -2.8500  -2.8367  -2.8245  -2.8185  -2.8026  -2.7890  -2.7808  -2.7715
    -2.7513  -2.7457  -2.7361  -2.7243  -2.7009  -2.6708  -2.6497  -2.6341
    -2.6320  -2.5982  -2.5657  -2.5115  -2.4620  -2.4467  -2.3481  -2.2940
    -2.2700  -2.1893  -2.0663  -1.6450

     highest occupied level (ev):    -1.6450

!    total energy              =   -4295.34371252 Ry
     estimated scf accuracy    <          1.3E-12 Ry

     convergence has been achieved in   9 iterations
 ROUTINE_ZERO BEGINNING
 check_charge   500.000000000000     
     zero_current :     30.79s CPU     31.16s WALL (       2 calls)
 ZERO CURRENT CALCULATED
     routine_zero :     30.79s CPU     31.16s WALL (       2 calls)
     calcolo_i    :     22.47s CPU     24.44s WALL (       2 calls)
 IONIC CURRENT CALCULATED
     charge density from previous step

     total cpu time spent up to now is     1495.2 secs

     Self-consistent Calculation

     iteration #  1     ecut=    70.00 Ry     beta= 0.70
     Davidson diagonalization with overlap
     ethr =  1.00E-07,  avg # of iterations =  2.0

[...]

     Self-consistent Calculation

     iteration #  1     ecut=    70.00 Ry     beta= 0.70
     Davidson diagonalization with overlap
     ethr =  1.00E-07,  avg # of iterations =  2.0

     Threshold (ethr) on eigenvalues was too large:
     Diagonalizing with lowered threshold

     Davidson diagonalization with overlap
     ethr =  6.01E-09,  avg # of iterations =  2.0

     total cpu time spent up to now is    18093.0 secs

     total energy              =   -4295.31035497 Ry
     estimated scf accuracy    <       0.00006598 Ry

     iteration #  2     ecut=    70.00 Ry     beta= 0.70
     Davidson diagonalization with overlap
     ethr =  6.60E-09,  avg # of iterations =  2.0

     total cpu time spent up to now is    18108.7 secs

     total energy              =   -4295.31036884 Ry
     estimated scf accuracy    <       0.00000827 Ry

     iteration #  3     ecut=    70.00 Ry     beta= 0.70
     Davidson diagonalization with overlap
     ethr =  8.27E-10,  avg # of iterations =  3.0

     total cpu time spent up to now is    18125.4 secs

     total energy              =   -4295.31037080 Ry
     estimated scf accuracy    <       0.00000120 Ry

     iteration #  4     ecut=    70.00 Ry     beta= 0.70
     Davidson diagonalization with overlap
     ethr =  1.20E-10,  avg # of iterations =  3.0

     total cpu time spent up to now is    18140.8 secs

     total energy              =   -4295.31037102 Ry
     estimated scf accuracy    <       0.00000003 Ry

     iteration #  5     ecut=    70.00 Ry     beta= 0.70
     Davidson diagonalization with overlap
     ethr =  3.35E-12,  avg # of iterations =  3.0

     total cpu time spent up to now is    18157.3 secs

     total energy              =   -4295.31037103 Ry
     estimated scf accuracy    <          9.0E-09 Ry

     iteration #  6     ecut=    70.00 Ry     beta= 0.70
     Davidson diagonalization with overlap
     ethr =  8.97E-13,  avg # of iterations =  3.0

     total cpu time spent up to now is    18173.2 secs

     total energy              =   -4295.31037103 Ry
     estimated scf accuracy    <          9.1E-10 Ry

     iteration #  7     ecut=    70.00 Ry     beta= 0.70
     Davidson diagonalization with overlap
     ethr =  1.00E-13,  avg # of iterations =  3.0

     total cpu time spent up to now is    18189.2 secs

     total energy              =   -4295.31037103 Ry
     estimated scf accuracy    <          5.4E-11 Ry

     iteration #  8     ecut=    70.00 Ry     beta= 0.70
     Davidson diagonalization with overlap
     ethr =  1.00E-13,  avg # of iterations =  2.0

     total cpu time spent up to now is    18200.9 secs

     total energy              =   -4295.31037103 Ry
     estimated scf accuracy    <          1.4E-11 Ry

     iteration #  9     ecut=    70.00 Ry     beta= 0.70
     Davidson diagonalization with overlap
     ethr =  1.00E-13,  avg # of iterations =  1.0

     total cpu time spent up to now is    18211.7 secs

     End of self-consistent calculation

          k = 0.0000 0.0000 0.0000 (124544 PWs)   bands (ev):

   -22.3769 -22.3136 -22.0834 -22.0033 -21.9905 -21.9247 -21.8967 -21.8777
   -21.8146 -21.7813 -21.7508 -21.7447 -21.7229 -21.6764 -21.6488 -21.6179
   -21.6050 -21.5793 -21.5753 -21.5658 -21.5237 -21.5128 -21.4941 -21.4916
   -21.4846 -21.4771 -21.4553 -21.4471 -21.4098 -21.3831 -21.3811 -21.3739
   -21.3579 -21.3388 -21.3350 -21.3226 -21.3194 -21.2945 -21.2744 -21.2546
   -21.2351 -21.2185 -21.1991 -21.1939 -21.1812 -21.1642 -21.1531 -21.1466
   -21.1358 -21.1294 -21.1197 -21.0798 -21.0767 -21.0603 -21.0516 -21.0441
   -21.0293 -21.0092 -21.0043 -20.9966 -20.9921 -20.9858 -20.9703 -20.9494
   -20.9413 -20.9243 -20.9099 -20.9006 -20.8892 -20.8799 -20.8732 -20.8602
   -20.8030 -20.8005 -20.7883 -20.7866 -20.7813 -20.7765 -20.7575 -20.7505
   -20.7456 -20.7339 -20.7293 -20.6999 -20.6821 -20.6660 -20.6541 -20.6116
   -20.5998 -20.5962 -20.5863 -20.5758 -20.5631 -20.5402 -20.5301 -20.5110
   -20.4998 -20.4931 -20.4726 -20.4585 -20.3990 -20.3616 -20.3605 -20.3335
   -20.3179 -20.3057 -20.2884 -20.2724 -20.2593 -20.2169 -20.1768 -20.1465
   -20.1387 -20.0698 -20.0141 -19.9765 -19.8216 -19.8074 -19.7971 -19.7487
   -19.5295 -19.4123 -19.3932 -19.1919 -19.0469 -10.3516 -10.2255 -10.0356
   -10.0296 -10.0219  -9.9607  -9.9411  -9.8794  -9.8683  -9.8073  -9.8004
    -9.7836  -9.7483  -9.6906  -9.6828  -9.6734  -9.5497  -9.5375  -9.5264
    -9.5226  -9.4925  -9.4795  -9.4638  -9.4322  -9.4104  -9.4085  -9.4009
    -9.3919  -9.3721  -9.3533  -9.3369  -9.3246  -9.2974  -9.2889  -9.2665
    -9.2521  -9.2432  -9.2275  -9.1930  -9.1916  -9.1462  -9.1292  -9.1091
    -9.0955  -9.0901  -9.0632  -9.0571  -9.0440  -9.0430  -9.0337  -9.0249
    -9.0117  -9.0016  -8.9945  -8.9803  -8.9525  -8.9479  -8.9353  -8.9059
    -8.9019  -8.8900  -8.8873  -8.8723  -8.8629  -8.8481  -8.8289  -8.8187
    -8.8059  -8.8008  -8.7975  -8.7727  -8.7561  -8.7417  -8.7122  -8.7011
    -8.6976  -8.6779  -8.6755  -8.6665  -8.6341  -8.6287  -8.6203  -8.5932
    -8.5767  -8.5626  -8.5568  -8.5556  -8.5392  -8.5217  -8.4829  -8.4704
    -8.4574  -8.4436  -8.4215  -8.4156  -8.3927  -8.3893  -8.3633  -8.3611
    -8.3497  -8.3321  -8.3245  -8.3228  -8.3203  -8.2872  -8.2461  -8.2126
    -8.2027  -8.1941  -8.1359  -8.1313  -8.0758  -8.0628  -7.9951  -7.9773
    -7.9659  -7.8843  -7.8770  -7.8534  -7.8019  -7.7768  -7.7664  -7.7273
    -7.6513  -7.6144  -7.3162  -7.1653  -7.0429  -6.9114  -6.8153  -6.7648
    -6.6896  -6.6807  -6.6591  -6.6400  -6.5774  -6.5382  -6.5255  -6.4646
    -6.4335  -6.4318  -6.4270  -6.3830  -6.3723  -6.3132  -6.2783  -6.2618
    -6.2476  -6.2138  -6.1709  -6.1537  -6.1271  -6.1201  -6.1054  -6.0824
    -6.0658  -6.0482  -6.0293  -6.0020  -5.9887  -5.9745  -5.9597  -5.9272
    -5.9011  -5.8713  -5.8595  -5.8309  -5.8117  -5.7974  -5.7717  -5.7416
    -5.7222  -5.7104  -5.6968  -5.6745  -5.6559  -5.6377  -5.6306  -5.6015
    -5.5966  -5.5778  -5.5557  -5.5070  -5.5033  -5.4881  -5.4685  -5.4495
    -5.4370  -5.4267  -5.4119  -5.3863  -5.3626  -5.3526  -5.3425  -5.3192
    -5.2977  -5.2776  -5.2631  -5.2506  -5.2435  -5.1839  -5.1647  -5.1544
    -5.1199  -5.1113  -5.0913  -5.0782  -5.0534  -5.0425  -5.0204  -5.0024
    -4.9780  -4.9627  -4.9472  -4.9423  -4.9071  -4.8800  -4.8621  -4.8441
    -4.8362  -4.8326  -4.8168  -4.7852  -4.7771  -4.7478  -4.7274  -4.7199
    -4.7034  -4.6740  -4.6407  -4.6178  -4.6104  -4.5792  -4.5715  -4.5416
    -4.5360  -4.4797  -4.4504  -4.4123  -4.4052  -4.3711  -4.3649  -4.3223
    -4.3093  -4.2713  -4.2340  -4.2101  -4.1781  -4.1077  -4.0796  -4.0484
    -4.0455  -4.0234  -3.9945  -3.9641  -3.9523  -3.9417  -3.9169  -3.8959
    -3.8435  -3.8233  -3.8211  -3.8103  -3.7858  -3.7785  -3.7608  -3.7553
    -3.7500  -3.7236  -3.7122  -3.6987  -3.6810  -3.6793  -3.6759  -3.6703
    -3.6497  -3.6420  -3.6327  -3.6074  -3.5959  -3.5946  -3.5799  -3.5754
    -3.5524  -3.5386  -3.5167  -3.5125  -3.4943  -3.4859  -3.4784  -3.4671
    -3.4592  -3.4318  -3.4296  -3.4122  -3.4031  -3.4000  -3.3862  -3.3759
    -3.3705  -3.3573  -3.3526  -3.3478  -3.3355  -3.3281  -3.3142  -3.3043
    -3.3008  -3.2942  -3.2763  -3.2695  -3.2621  -3.2461  -3.2315  -3.2303
    -3.2233  -3.2209  -3.2051  -3.1958  -3.1764  -3.1742  -3.1656  -3.1501
    -3.1372  -3.1311  -3.1252  -3.1150  -3.1084  -3.0870  -3.0796  -3.0765
    -3.0626  -3.0536  -3.0344  -3.0116  -3.0039  -2.9989  -2.9843  -2.9775
    -2.9688  -2.9520  -2.9493  -2.9119  -2.9011  -2.8902  -2.8707  -2.8583
    -2.8509  -2.8475  -2.8237  -2.7823  -2.7534  -2.7360  -2.7270  -2.7137
    -2.6971  -2.6822  -2.6740  -2.6672  -2.6462  -2.6266  -2.5989  -2.5769
    -2.5303  -2.5183  -2.4984  -2.4005  -2.3679  -2.3249  -2.3171  -2.2531
    -2.2112  -2.1048  -2.0065  -1.8976

     highest occupied level (ev):    -1.8976

!    total energy              =   -4295.31037103 Ry
     estimated scf accuracy    <          9.3E-13 Ry

     convergence has been achieved in   9 iterations
 ROUTINE_ZERO BEGINNING
 check_charge   500.000000000000     
     zero_current :    275.80s CPU    278.94s WALL (      18 calls)
 ZERO CURRENT CALCULATED
     routine_zero :    275.80s CPU    278.94s WALL (      18 calls)
     calcolo_i    :    202.38s CPU    219.82s WALL (      18 calls)
 IONIC CURRENT CALCULATED
     charge density from previous step

     total cpu time spent up to now is    18240.0 secs

     Self-consistent Calculation

     iteration #  1     ecut=    70.00 Ry     beta= 0.70
     Davidson diagonalization with overlap
     ethr =  1.00E-07,  avg # of iterations =  2.0

     Threshold (ethr) on eigenvalues was too large:
     Diagonalizing with lowered threshold

     Davidson diagonalization with overlap
     ethr =  5.99E-09,  avg # of iterations =  2.0

     total cpu time spent up to now is    18267.3 secs

     total energy              =   -4295.31050876 Ry
     estimated scf accuracy    <       0.00006600 Ry

     iteration #  2     ecut=    70.00 Ry     beta= 0.70
     Davidson diagonalization with overlap
     ethr =  6.60E-09,  avg # of iterations =  2.0

     total cpu time spent up to now is    18283.1 secs

     total energy              =   -4295.31052264 Ry
     estimated scf accuracy    <       0.00000828 Ry

     iteration #  3     ecut=    70.00 Ry     beta= 0.70
     Davidson diagonalization with overlap
     ethr =  8.28E-10,  avg # of iterations =  3.0

     total cpu time spent up to now is    18299.6 secs

     total energy              =   -4295.31052461 Ry
     estimated scf accuracy    <       0.00000120 Ry

     iteration #  4     ecut=    70.00 Ry     beta= 0.70
     Davidson diagonalization with overlap
     ethr =  1.20E-10,  avg # of iterations =  3.0

     total cpu time spent up to now is    18315.0 secs

     total energy              =   -4295.31052483 Ry
     estimated scf accuracy    <       0.00000003 Ry

     iteration #  5     ecut=    70.00 Ry     beta= 0.70
     Davidson diagonalization with overlap
     ethr =  3.35E-12,  avg # of iterations =  3.0

     total cpu time spent up to now is    18331.4 secs

     total energy              =   -4295.31052483 Ry
     estimated scf accuracy    <          9.0E-09 Ry

     iteration #  6     ecut=    70.00 Ry     beta= 0.70
     Davidson diagonalization with overlap
     ethr =  8.97E-13,  avg # of iterations =  3.0

     total cpu time spent up to now is    18347.2 secs

     total energy              =   -4295.31052483 Ry
     estimated scf accuracy    <          9.1E-10 Ry

     iteration #  7     ecut=    70.00 Ry     beta= 0.70
     Davidson diagonalization with overlap
     ethr =  1.00E-13,  avg # of iterations =  3.0

     total cpu time spent up to now is    18363.0 secs

     total energy              =   -4295.31052483 Ry
     estimated scf accuracy    <          5.4E-11 Ry

     iteration #  8     ecut=    70.00 Ry     beta= 0.70
     Davidson diagonalization with overlap
     ethr =  1.00E-13,  avg # of iterations =  2.0

     total cpu time spent up to now is    18374.6 secs

     total energy              =   -4295.31052483 Ry
     estimated scf accuracy    <          1.4E-11 Ry

     iteration #  9     ecut=    70.00 Ry     beta= 0.70
     Davidson diagonalization with overlap
     ethr =  1.00E-13,  avg # of iterations =  1.0

     total cpu time spent up to now is    18385.2 secs

     End of self-consistent calculation

          k = 0.0000 0.0000 0.0000 (124544 PWs)   bands (ev):

   -22.3767 -22.3137 -22.0842 -22.0015 -21.9922 -21.9250 -21.8976 -21.8796
   -21.8155 -21.7815 -21.7522 -21.7460 -21.7230 -21.6772 -21.6484 -21.6180
   -21.6042 -21.5801 -21.5768 -21.5663 -21.5232 -21.5126 -21.4956 -21.4912
   -21.4850 -21.4775 -21.4549 -21.4466 -21.4093 -21.3837 -21.3806 -21.3732
   -21.3579 -21.3384 -21.3343 -21.3228 -21.3194 -21.2945 -21.2743 -21.2550
   -21.2351 -21.2185 -21.1989 -21.1943 -21.1810 -21.1641 -21.1530 -21.1467
   -21.1357 -21.1293 -21.1195 -21.0798 -21.0764 -21.0600 -21.0512 -21.0436
   -21.0289 -21.0092 -21.0043 -20.9965 -20.9915 -20.9859 -20.9697 -20.9483
   -20.9411 -20.9240 -20.9099 -20.9012 -20.8896 -20.8800 -20.8737 -20.8605
   -20.8030 -20.8003 -20.7884 -20.7868 -20.7812 -20.7762 -20.7576 -20.7507
   -20.7454 -20.7332 -20.7292 -20.7000 -20.6829 -20.6662 -20.6534 -20.6114
   -20.5994 -20.5962 -20.5857 -20.5752 -20.5628 -20.5400 -20.5298 -20.5105
   -20.4992 -20.4918 -20.4722 -20.4571 -20.3989 -20.3616 -20.3601 -20.3339
   -20.3178 -20.3071 -20.2887 -20.2726 -20.2596 -20.2180 -20.1759 -20.1480
   -20.1393 -20.0704 -20.0143 -19.9765 -19.8222 -19.8078 -19.7979 -19.7490
   -19.5289 -19.4116 -19.3924 -19.1922 -19.0489 -10.3507 -10.2254 -10.0369
   -10.0310 -10.0233  -9.9617  -9.9402  -9.8803  -9.8681  -9.8080  -9.8009
    -9.7837  -9.7474  -9.6902  -9.6806  -9.6727  -9.5494  -9.5373  -9.5267
    -9.5218  -9.4924  -9.4791  -9.4640  -9.4324  -9.4103  -9.4081  -9.4012
    -9.3919  -9.3721  -9.3536  -9.3374  -9.3245  -9.2979  -9.2883  -9.2662
    -9.2518  -9.2428  -9.2267  -9.1927  -9.1917  -9.1468  -9.1290  -9.1079
    -9.0953  -9.0903  -9.0628  -9.0571  -9.0434  -9.0421  -9.0341  -9.0239
    -9.0116  -9.0019  -8.9940  -8.9800  -8.9523  -8.9484  -8.9346  -8.9055
    -8.9016  -8.8901  -8.8869  -8.8719  -8.8634  -8.8481  -8.8290  -8.8184
    -8.8034  -8.8001  -8.7972  -8.7725  -8.7558  -8.7418  -8.7118  -8.7008
    -8.6974  -8.6781  -8.6751  -8.6668  -8.6341  -8.6290  -8.6204  -8.5933
    -8.5771  -8.5629  -8.5566  -8.5555  -8.5392  -8.5215  -8.4831  -8.4708
    -8.4579  -8.4437  -8.4217  -8.4160  -8.3927  -8.3897  -8.3638  -8.3611
    -8.3496  -8.3329  -8.3245  -8.3225  -8.3202  -8.2875  -8.2472  -8.2135
    -8.2028  -8.1947  -8.1365  -8.1319  -8.0760  -8.0632  -7.9955  -7.9778
    -7.9663  -7.8839  -7.8777  -7.8533  -7.8021  -7.7766  -7.7664  -7.7284
    -7.6521  -7.6143  -7.3157  -7.1656  -7.0435  -6.9107  -6.8154  -6.7648
    -6.6894  -6.6806  -6.6596  -6.6399  -6.5774  -6.5386  -6.5258  -6.4644
    -6.4335  -6.4319  -6.4270  -6.3829  -6.3718  -6.3132  -6.2785  -6.2620
    -6.2480  -6.2138  -6.1712  -6.1536  -6.1275  -6.1204  -6.1054  -6.0828
    -6.0658  -6.0483  -6.0293  -6.0020  -5.9888  -5.9747  -5.9597  -5.9272
    -5.9014  -5.8714  -5.8598  -5.8309  -5.8117  -5.7974  -5.7719  -5.7415
    -5.7222  -5.7105  -5.6967  -5.6746  -5.6562  -5.6381  -5.6309  -5.6017
    -5.5964  -5.5782  -5.5558  -5.5068  -5.5034  -5.4887  -5.4683  -5.4493
    -5.4371  -5.4266  -5.4117  -5.3863  -5.3624  -5.3527  -5.3424  -5.3192
    -5.2978  -5.2777  -5.2631  -5.2506  -5.2436  -5.1841  -5.1648  -5.1546
    -5.1201  -5.1114  -5.0911  -5.0782  -5.0535  -5.0425  -5.0205  -5.0024
    -4.9781  -4.9626  -4.9471  -4.9423  -4.9070  -4.8801  -4.8621  -4.8444
    -4.8361  -4.8325  -4.8170  -4.7850  -4.7773  -4.7475  -4.7273  -4.7197
    -4.7035  -4.6736  -4.6406  -4.6176  -4.6105  -4.5792  -4.5713  -4.5415
    -4.5360  -4.4798  -4.4506  -4.4121  -4.4052  -4.3707  -4.3647  -4.3221
    -4.3094  -4.2711  -4.2342  -4.2106  -4.1784  -4.1072  -4.0797  -4.0490
    -4.0455  -4.0230  -3.9940  -3.9643  -3.9524  -3.9419  -3.9170  -3.8966
    -3.8433  -3.8234  -3.8210  -3.8098  -3.7858  -3.7789  -3.7608  -3.7553
    -3.7499  -3.7238  -3.7122  -3.6988  -3.6806  -3.6793  -3.6764  -3.6705
    -3.6498  -3.6420  -3.6329  -3.6073  -3.5958  -3.5948  -3.5796  -3.5756
    -3.5524  -3.5387  -3.5168  -3.5125  -3.4944  -3.4859  -3.4784  -3.4670
    -3.4591  -3.4316  -3.4297  -3.4120  -3.4033  -3.4001  -3.3865  -3.3757
    -3.3709  -3.3576  -3.3524  -3.3477  -3.3357  -3.3282  -3.3141  -3.3044
    -3.3010  -3.2941  -3.2762  -3.2695  -3.2621  -3.2461  -3.2314  -3.2303
    -3.2233  -3.2209  -3.2051  -3.1955  -3.1764  -3.1741  -3.1654  -3.1498
    -3.1372  -3.1308  -3.1249  -3.1149  -3.1083  -3.0865  -3.0795  -3.0764
    -3.0623  -3.0534  -3.0342  -3.0115  -3.0038  -2.9985  -2.9841  -2.9773
    -2.9687  -2.9520  -2.9491  -2.9116  -2.9011  -2.8902  -2.8706  -2.8584
    -2.8509  -2.8475  -2.8238  -2.7823  -2.7534  -2.7359  -2.7269  -2.7135
    -2.6969  -2.6822  -2.6740  -2.6672  -2.6464  -2.6271  -2.5991  -2.5774
    -2.5301  -2.5187  -2.4986  -2.4012  -2.3678  -2.3247  -2.3176  -2.2527
    -2.2115  -2.1048  -2.0075  -1.8979

     highest occupied level (ev):    -1.8979

!    total energy              =   -4295.31052483 Ry
     estimated scf accuracy    <          9.3E-13 Ry

     convergence has been achieved in   9 iterations
     charge density from previous step
 BEGIN: HARTREE & KOHN
 check_charge   499.999999999999     
 check_charge   500.000000000000     
 check_charge   500.000000000000     
     hartree_curr :    100.77s CPU    106.84s WALL (      18 calls)
 HARTREE CURRENT CALCULATED
     xc_current   :      1.12s CPU      1.13s WALL (      18 calls)
 X-C CURRENT CALCULATED
     charge density from previous step
     project      :   7662.28s CPU   8165.97s WALL (      52 calls)
     kohn-first   :     10.20s CPU     10.27s WALL (      52 calls)
     kohn-second  :     10.18s CPU     10.24s WALL (      52 calls)
  KOHN POLARIZATION   1 COMPLETED
     project      :   7810.75s CPU   8325.44s WALL (      53 calls)
     kohn-first   :     10.40s CPU     10.47s WALL (      53 calls)
     kohn-second  :     10.37s CPU     10.43s WALL (      53 calls)
  KOHN POLARIZATION   2 COMPLETED
     project      :   7956.46s CPU   8482.39s WALL (      54 calls)
     kohn-first   :     10.60s CPU     10.66s WALL (      54 calls)
     kohn-second  :     10.57s CPU     10.63s WALL (      54 calls)
  KOHN POLARIZATION   3 COMPLETED
     kohn_current :   8321.49s CPU   8853.73s WALL (      18 calls)
 KOHN CURRENT CALCULATED
total energy current:  -0.104273052396E-01  0.216559127491E-02 -0.221283680854E-01
center of mass velocity of type   1:  -0.232844329914E-20  0.752863333388E-19  0.156781848809E-18
center of mass velocity of type   2:   0.455986812748E-19 -0.776147766379E-20  0.710175206237E-19
 Finished reading trajectory traj at step       953552
 
     init_run     :      7.28s CPU      7.66s WALL (       1 calls)
     electrons    :   8976.20s CPU   9343.50s WALL (      54 calls)
     update_pot   :     47.63s CPU     49.56s WALL (      90 calls)

     Called by init_run:
     wfcinit      :      6.27s CPU      6.60s WALL (       1 calls)
     potinit      :      0.31s CPU      0.34s WALL (       1 calls)
     hinit0       :      0.42s CPU      0.43s WALL (       1 calls)

     Called by electrons:
     c_bands      :   7770.90s CPU   8088.31s WALL (     618 calls)
     sum_band     :   1125.98s CPU   1167.70s WALL (     654 calls)
     v_of_rho     :    135.11s CPU    140.92s WALL (     673 calls)
     mix_rho      :     19.08s CPU     19.79s WALL (     618 calls)

     Called by c_bands:
     init_us_2    :     32.87s CPU     33.00s WALL (    1327 calls)
     regterg      :   7748.01s CPU   8064.99s WALL (     618 calls)

     Called by *egterg:
     rdiaghg      :    831.33s CPU    833.48s WALL (    2242 calls)
     h_psi        :  11069.90s CPU  11764.51s WALL (    4929 calls)
     g_psi        :     19.25s CPU     19.29s WALL (    1713 calls)

     Called by h_psi:
     h_psi:calbec :    221.49s CPU    222.29s WALL (    4929 calls)
     vloc_psi     :  10559.93s CPU  11252.90s WALL (    4929 calls)
     add_vuspsi   :    215.71s CPU    216.27s WALL (    4929 calls)

     General routines
     calbec       :    375.34s CPU    376.89s WALL (    7922 calls)
     fft          :     65.37s CPU     71.34s WALL (    5402 calls)
     ffts         :      8.27s CPU      9.21s WALL (     780 calls)
     fftw         :  10008.63s CPU  10741.03s WALL ( 2134448 calls)
 
     Parallel routines
     fft_scatt_xy :   2446.41s CPU   2457.47s WALL ( 2140630 calls)
     fft_scatt_yz :   1815.90s CPU   2516.39s WALL ( 2140630 calls)
 
     PWSCF        :      4h59m CPU      5h14m WALL

 
   This run was terminated on:  19:47:36  13Jan2021            

=------------------------------------------------------------------------------=
   JOB DONE.
=------------------------------------------------------------------------------=
