
     Program PWSCF v.4.2CVS     starts on  2Feb2010 at 15: 0:46 

     This program is part of the open-source Quantum ESPRESSO suite
     for quantum simulation of materials; please acknowledge
         "P. Giannozzi et al., J. Phys.:Condens. Matter 21 395502 (2009);
          URL http://www.quantum-espresso.org", 
     in publications or presentations arising from this work. More details at
     http://www.quantum-espresso.org/wiki/index.php/Citing_Quantum-ESPRESSO

     !!! EXPERIMENTAL VERSION WITH EXACT EXCHANGE !!!

     Current dimensions of program PWSCF are:
     Max number of different atomic species (ntypx) = 10
     Max number of k-points (npk) =  40000
     Max angular momentum in pseudopotentials (lmaxx) =  3
     Waiting for input...

     !!! XC functional enforced from input :
     Exchange-correlation      = HSE (14*4)
     EXX-fraction     =       0.2500000000000000
     !!! Any further DFT definition will be discarded
     !!! Please, verify this is what you really want !
     tcpu =      0.0    self-consistency for image   0

  EXX : q-grid dimensions are    1   1   1
  EXX : q->0 dealt with 8/7 -1/7 trick
  EXX : grid check successful
  EXX : q->0 dealt with gygi-baldereschi trick
  EXX : exx div treatment check successful


     bravais-lattice index     =            2
     lattice parameter (a_0)   =      10.2000  a.u.
     unit-cell volume          =     265.3020 (a.u.)^3
     number of atoms/cell      =            2
     number of atomic types    =            1
     number of electrons       =         8.00
     number of Kohn-Sham states=            8
     kinetic-energy cutoff     =      12.0000  Ry
     charge density cutoff     =      48.0000  Ry
     convergence threshold     =      1.0E-06
     mixing beta               =       0.7000
     number of iterations used =            8  plain     mixing
     Exchange-correlation      = HSE (14*4)
     EXX-fraction     =       0.2500000000000000

     celldm(1)=  10.200000  celldm(2)=   0.000000  celldm(3)=   0.000000
     celldm(4)=   0.000000  celldm(5)=   0.000000  celldm(6)=   0.000000

     crystal axes: (cart. coord. in units of a_0)
               a(1) = ( -0.500000  0.000000  0.500000 )  
               a(2) = (  0.000000  0.500000  0.500000 )  
               a(3) = ( -0.500000  0.500000  0.000000 )  

     reciprocal axes: (cart. coord. in units 2 pi/a_0)
               b(1) = ( -1.000000 -1.000000  1.000000 )  
               b(2) = (  1.000000  1.000000  1.000000 )  
               b(3) = ( -1.000000  1.000000 -1.000000 )  


     PseudoPot. # 1 for Si read from file Si.pz-vbc.UPF
     Pseudo is Norm-conserving, Zval =  4.0
     Generated by new atomic code, or converted to UPF format
     Using radial grid of  431 points,  2 beta functions with: 
                l(1) =   0
                l(2) =   1

     atomic species   valence    mass     pseudopotential
        Si             4.00    28.08600     Si( 1.00)

     48 Sym.Ops. (with inversion)


   Cartesian axes

     site n.     atom                  positions (a_0 units)
         1           Si  tau(  1) = (   0.0000000   0.0000000   0.0000000  )
         2           Si  tau(  2) = (   0.2500000   0.2500000   0.2500000  )

     number of k points=   10
                       cart. coord. in units 2pi/a_0
        k(    1) = (   0.1250000   0.1250000   0.1250000), wk =   0.0625000
        k(    2) = (   0.1250000   0.1250000   0.3750000), wk =   0.1875000
        k(    3) = (   0.1250000   0.1250000   0.6250000), wk =   0.1875000
        k(    4) = (   0.1250000   0.1250000   0.8750000), wk =   0.1875000
        k(    5) = (   0.1250000   0.3750000   0.3750000), wk =   0.1875000
        k(    6) = (   0.1250000   0.3750000   0.6250000), wk =   0.3750000
        k(    7) = (   0.1250000   0.3750000   0.8750000), wk =   0.3750000
        k(    8) = (   0.1250000   0.6250000   0.6250000), wk =   0.1875000
        k(    9) = (   0.3750000   0.3750000   0.3750000), wk =   0.0625000
        k(   10) = (   0.3750000   0.3750000   0.6250000), wk =   0.1875000

     G cutoff =  126.4975  (   1459 G-vectors)     FFT grid: ( 16, 16, 16)

     Largest allocated arrays     est. size (Mb)     dimensions
        Kohn-Sham Wavefunctions         0.02 Mb     (    192,   8)
        NL pseudopotentials             0.02 Mb     (    192,   8)
        Each V/rho on FFT grid          0.06 Mb     (   4096)
        Each G-vector array             0.01 Mb     (   1459)
        G-vector shells                 0.00 Mb     (     43)
     Largest temporary arrays     est. size (Mb)     dimensions
        Auxiliary wavefunctions         0.09 Mb     (    192,  32)
        Each subspace H/S matrix        0.02 Mb     (     32,  32)
        Each <psi_i|beta_j> matrix      0.00 Mb     (      8,   8)
        Arrays for rho mixing           0.50 Mb     (   4096,   8)

     Initial potential from superposition of free atoms

     starting charge    7.99901, renormalised to    8.00000
     Starting wfc are    8 atomic wfcs

     total cpu time spent up to now is      0.17 secs

     per-process dynamical memory:     1.2 Mb

     Self-consistent Calculation

     iteration #  1     ecut=    12.00 Ry     beta=0.70
     Davidson diagonalization with overlap
     ethr =  1.00E-02,  avg # of iterations =  3.7

     Threshold (ethr) on eigenvalues was too large:
     Diagonalizing with lowered threshold

     Davidson diagonalization with overlap
     ethr =  8.07E-04,  avg # of iterations =  1.0

     total cpu time spent up to now is      0.36 secs

     total energy              =     -15.82338789 Ry
     Harris-Foulkes estimate   =     -15.83973300 Ry
     estimated scf accuracy    <       0.06416663 Ry

     iteration #  2     ecut=    12.00 Ry     beta=0.70
     Davidson diagonalization with overlap
     ethr =  8.02E-04,  avg # of iterations =  1.0

     total cpu time spent up to now is      0.43 secs

     total energy              =     -15.82633125 Ry
     Harris-Foulkes estimate   =     -15.82633974 Ry
     estimated scf accuracy    <       0.00228008 Ry

     iteration #  3     ecut=    12.00 Ry     beta=0.70
     Davidson diagonalization with overlap
     ethr =  2.85E-05,  avg # of iterations =  1.9

     total cpu time spent up to now is      0.51 secs

     total energy              =     -15.82643362 Ry
     Harris-Foulkes estimate   =     -15.82642126 Ry
     estimated scf accuracy    <       0.00004960 Ry

     iteration #  4     ecut=    12.00 Ry     beta=0.70
     Davidson diagonalization with overlap
     ethr =  6.20E-07,  avg # of iterations =  2.3

     total cpu time spent up to now is      0.60 secs

     End of self-consistent calculation

          k = 0.1250 0.1250 0.1250 (   172 PWs)   bands (ev):

    -5.4477   4.7282   5.9961   5.9961   8.9448   9.3569   9.3569  11.1861

          k = 0.1250 0.1250 0.3750 (   180 PWs)   bands (ev):

    -4.9211   3.1159   4.9391   5.0502   8.5385  10.1245  10.8747  11.2285

          k = 0.1250 0.1250 0.6250 (   186 PWs)   bands (ev):

    -3.8638   1.4055   3.5835   4.0275   7.7542   9.3314  12.4143  12.7128

          k = 0.1250 0.1250 0.8750 (   192 PWs)   bands (ev):

    -2.3517  -0.4976   2.7929   3.5449   7.2967   8.3740  14.7162  14.7746

          k = 0.1250 0.3750 0.3750 (   187 PWs)   bands (ev):

    -4.4110   1.6834   3.9583   5.4868   9.1321  10.0723  10.2721  12.7292

          k = 0.1250 0.3750 0.6250 (   188 PWs)   bands (ev):

    -3.4332   0.4714   2.9371   4.3207   9.2854   9.9750  11.4584  12.3759

          k = 0.1250 0.3750 0.8750 (   189 PWs)   bands (ev):

    -2.1680  -0.5990   2.1708   3.2760   8.7959  10.7115  11.7004  13.8811

          k = 0.1250 0.6250 0.6250 (   184 PWs)   bands (ev):

    -2.6947  -0.3359   2.2539   4.3556   8.2625  11.9049  11.9153  13.4108

          k = 0.3750 0.3750 0.3750 (   183 PWs)   bands (ev):

    -3.9477   0.3457   5.1682   5.1682   8.1195   9.8727   9.8727  14.3023

          k = 0.3750 0.3750 0.6250 (   182 PWs)   bands (ev):

    -3.2022  -0.4691   3.9980   4.6816   8.6288   9.9414  10.5367  13.8202

     highest occupied, lowest unoccupied level (ev):     5.9961    7.2967
  0.500609377992713       0.618038723237103     
EXX divergence (   1)=    -140.8010      0.8333
     exx_div      :     0.01s CPU
  ! EXXALFA SET TO   0.250000000000000     
  NOW GO BACK TO REFINE HYBRID CALCULATION
  -1.80209891650385     

     Self-consistent Calculation

     iteration #  1     ecut=    12.00 Ry     beta=0.70
     Davidson diagonalization with overlap
     ethr =  6.20E-07,  avg # of iterations =  3.9

     total cpu time spent up to now is      2.13 secs

     total energy              =     -15.89907915 Ry
     Harris-Foulkes estimate   =     -15.89909173 Ry
     estimated scf accuracy    <       0.00006898 Ry

     iteration #  2     ecut=    12.00 Ry     beta=0.70
     Davidson diagonalization with overlap
     ethr =  8.62E-07,  avg # of iterations =  1.0

     total cpu time spent up to now is      2.88 secs

     total energy              =     -15.89908465 Ry
     Harris-Foulkes estimate   =     -15.89908361 Ry
     estimated scf accuracy    <       0.00000256 Ry

     iteration #  3     ecut=    12.00 Ry     beta=0.70
     Davidson diagonalization with overlap
     ethr =  3.20E-08,  avg # of iterations =  1.2

     total cpu time spent up to now is      3.63 secs

     End of self-consistent calculation

          k = 0.1250 0.1250 0.1250 (   172 PWs)   bands (ev):

    -6.7363   3.6169   4.8526   4.8526   9.8240  10.1951  10.1951  12.1840

          k = 0.1250 0.1250 0.3750 (   180 PWs)   bands (ev):

    -6.1638   2.0021   3.8571   3.9095   9.3044  10.9827  11.7255  11.9681

          k = 0.1250 0.1250 0.6250 (   186 PWs)   bands (ev):

    -5.0722   0.2657   2.4787   2.9371   8.4764   9.9978  13.2835  13.5255

          k = 0.1250 0.1250 0.8750 (   192 PWs)   bands (ev):

    -3.5341  -1.6610   1.7126   2.4459   7.9942   9.0239  15.5037  15.6627

          k = 0.1250 0.3750 0.3750 (   187 PWs)   bands (ev):

    -5.6368   0.5670   2.8867   4.3174   9.9975  10.8451  11.0751  13.5407

          k = 0.1250 0.3750 0.6250 (   188 PWs)   bands (ev):

    -4.6159  -0.6445   1.8636   3.2248  10.0182  10.7318  12.1614  13.2105

          k = 0.1250 0.3750 0.8750 (   189 PWs)   bands (ev):

    -3.3167  -1.7237   1.1050   2.2101   9.4812  11.3693  12.4550  14.6312

          k = 0.1250 0.6250 0.6250 (   184 PWs)   bands (ev):

    -3.8731  -1.4686   1.1773   3.2508   9.0106  12.6460  12.7211  14.1269

          k = 0.3750 0.3750 0.3750 (   183 PWs)   bands (ev):

    -5.1857  -0.8091   4.0439   4.0439   8.9846  10.6570  10.6570  15.0673

          k = 0.3750 0.3750 0.6250 (   182 PWs)   bands (ev):

    -4.4070  -1.6090   2.9091   3.5747   9.4317  10.7385  11.2918  14.5384

     highest occupied, lowest unoccupied level (ev):     4.8526    7.9942
  -1.80209891650385       -1.80194113286449       -1.80195279231423     
     dexx                      =       0.00008472 Ry

!    total energy              =     -15.89916955 Ry
     Harris-Foulkes estimate   =     -15.89916950 Ry
     estimated scf accuracy    <       0.00000011 Ry

     The total energy is the sum of the following terms:

     one-electron contribution =       3.01798631 Ry
     hartree contribution      =       1.08772172 Ry
     xc contribution           =      -4.00608375 Ry
     ewald contribution        =     -16.89975858 Ry
     - averaged Fock potential =       1.80194113 Ry
     + Fock energy             =      -0.90097640 Ry
  NOW GO BACK TO REFINE HYBRID CALCULATION

     Self-consistent Calculation

     iteration #  1     ecut=    12.00 Ry     beta=0.70
     Davidson diagonalization with overlap
     ethr =  3.20E-08,  avg # of iterations =  3.0

     total cpu time spent up to now is      4.76 secs

     End of self-consistent calculation

          k = 0.1250 0.1250 0.1250 (   172 PWs)   bands (ev):

    -6.7403   3.6138   4.8341   4.8341   9.8345  10.1998  10.1998  12.1875

          k = 0.1250 0.1250 0.3750 (   180 PWs)   bands (ev):

    -6.1646   2.0032   3.8484   3.9027   9.3102  10.9859  11.7256  11.9715

          k = 0.1250 0.1250 0.6250 (   186 PWs)   bands (ev):

    -5.0709   0.2689   2.4767   2.9324   8.4814   9.9993  13.2849  13.5247

          k = 0.1250 0.1250 0.8750 (   192 PWs)   bands (ev):

    -3.5316  -1.6576   1.7125   2.4425   7.9983   9.0247  15.5023  15.6652

          k = 0.1250 0.3750 0.3750 (   187 PWs)   bands (ev):

    -5.6367   0.5705   2.8849   4.3066  10.0047  10.8473  11.0789  13.5426

          k = 0.1250 0.3750 0.6250 (   188 PWs)   bands (ev):

    -4.6136  -0.6394   1.8638   3.2221  10.0209  10.7337  12.1614  13.2118

          k = 0.1250 0.3750 0.8750 (   189 PWs)   bands (ev):

    -3.3118  -1.7175   1.1060   2.2102   9.4821  11.3688  12.4557  14.6316

          k = 0.1250 0.6250 0.6250 (   184 PWs)   bands (ev):

    -3.8706  -1.4633   1.1785   3.2461   9.0157  12.6447  12.7244  14.1275

          k = 0.3750 0.3750 0.3750 (   183 PWs)   bands (ev):

    -5.1868  -0.8090   4.0335   4.0335   8.9949  10.6624  10.6624  15.0713

          k = 0.3750 0.3750 0.6250 (   182 PWs)   bands (ev):

    -4.4060  -1.6061   2.9083   3.5682   9.4384  10.7411  11.2927  14.5386

     highest occupied, lowest unoccupied level (ev):     4.8341    7.9983
  -1.80195279231423       -1.80191835602807       -1.80188733108243     
     dexx                      =       0.00000171 Ry

!    total energy              =     -15.89918166 Ry
     Harris-Foulkes estimate   =     -15.89918179 Ry
     estimated scf accuracy    <       0.00000059 Ry

     The total energy is the sum of the following terms:

     one-electron contribution =       3.01898610 Ry
     hartree contribution      =       1.08619083 Ry
     xc contribution           =      -4.00557470 Ry
     ewald contribution        =     -16.89975858 Ry
     - averaged Fock potential =       1.80191836 Ry
     + Fock energy             =      -0.90094367 Ry
  NOW GO BACK TO REFINE HYBRID CALCULATION

     Self-consistent Calculation

     iteration #  1     ecut=    12.00 Ry     beta=0.70
     Davidson diagonalization with overlap
     ethr =  3.20E-08,  avg # of iterations =  1.7

     Threshold (ethr) on eigenvalues was too large:
     Diagonalizing with lowered threshold

     Davidson diagonalization with overlap
     ethr =  2.30E-10,  avg # of iterations =  1.9

     total cpu time spent up to now is      6.41 secs

     End of self-consistent calculation

          k = 0.1250 0.1250 0.1250 (   172 PWs)   bands (ev):

    -6.7435   3.6113   4.8280   4.8280   9.8337  10.1986  10.1986  12.1844

          k = 0.1250 0.1250 0.3750 (   180 PWs)   bands (ev):

    -6.1672   2.0010   3.8444   3.8990   9.3090  10.9841  11.7233  11.9706

          k = 0.1250 0.1250 0.6250 (   186 PWs)   bands (ev):

    -5.0731   0.2667   2.4744   2.9294   8.4802   9.9980  13.2827  13.5225

          k = 0.1250 0.1250 0.8750 (   192 PWs)   bands (ev):

    -3.5337  -1.6597   1.7107   2.4400   7.9972   9.0231  15.5000  15.6631

          k = 0.1250 0.3750 0.3750 (   187 PWs)   bands (ev):

    -5.6391   0.5688   2.8824   4.3025  10.0032  10.8459  11.0774  13.5407

          k = 0.1250 0.3750 0.6250 (   188 PWs)   bands (ev):

    -4.6157  -0.6410   1.8618   3.2194  10.0194  10.7320  12.1596  13.2099

          k = 0.1250 0.3750 0.8750 (   189 PWs)   bands (ev):

    -3.3136  -1.7190   1.1044   2.2083   9.4805  11.3669  12.4537  14.6295

          k = 0.1250 0.6250 0.6250 (   184 PWs)   bands (ev):

    -3.8729  -1.4647   1.1768   3.2432   9.0145  12.6428  12.7225  14.1256

          k = 0.3750 0.3750 0.3750 (   183 PWs)   bands (ev):

    -5.1896  -0.8110   4.0295   4.0295   8.9935  10.6615  10.6615  15.0705

          k = 0.3750 0.3750 0.6250 (   182 PWs)   bands (ev):

    -4.4085  -1.6076   2.9059   3.5648   9.4371  10.7394  11.2912  14.5369

     highest occupied, lowest unoccupied level (ev):     4.8280    7.9972
  -1.80188733108243       -1.80191817524663       -1.80194919695405     
     dexx                      =       0.00000009 Ry

!    total energy              =     -15.89918213 Ry
     Harris-Foulkes estimate   =     -15.89918214 Ry
     estimated scf accuracy    <       0.00000002 Ry

     The total energy is the sum of the following terms:

     one-electron contribution =       3.01887901 Ry
     hartree contribution      =       1.08636650 Ry
     xc contribution           =      -4.00561264 Ry
     ewald contribution        =     -16.89975858 Ry
     - averaged Fock potential =       1.80191818 Ry
     + Fock energy             =      -0.90097460 Ry

     convergence has been achieved in   1 iterations

     Writing output data file silicon.save

     Writing output data file silicon.save
 
     init_run     :     0.09s CPU
     electrons    :     6.40s CPU

     Called by init_run:
     wfcinit      :     0.02s CPU
     potinit      :     0.01s CPU

     Called by electrons:
     c_bands      :     4.70s CPU (      11 calls,   0.427 s avg)
     sum_band     :     0.13s CPU (      11 calls,   0.012 s avg)
     v_of_rho     :     0.13s CPU (      11 calls,   0.012 s avg)
     mix_rho      :     0.00s CPU (      11 calls,   0.000 s avg)

     Called by c_bands:
     init_us_2    :     0.03s CPU (     230 calls,   0.000 s avg)
     cegterg      :     4.67s CPU (     110 calls,   0.042 s avg)

     Called by *egterg:
     h_psi        :     4.44s CPU (     346 calls,   0.013 s avg)
     g_psi        :     0.02s CPU (     226 calls,   0.000 s avg)
     cdiaghg      :     0.12s CPU (     286 calls,   0.000 s avg)

     Called by h_psi:
     add_vuspsi   :     0.01s CPU (     346 calls,   0.000 s avg)

     General routines
     calbec       :     0.01s CPU (     346 calls,   0.000 s avg)
     cft3         :     0.02s CPU (     118 calls,   0.000 s avg)
     cft3s        :     2.70s CPU (   21712 calls,   0.000 s avg)
     davcio       :     0.00s CPU (     470 calls,   0.000 s avg)
 
     EXX routines
     exx_grid     :     0.01s CPU
     exxinit      :     0.06s CPU (       4 calls,   0.016 s avg)
     vexx         :     3.91s CPU (     187 calls,   0.021 s avg)
     exxen2       :     1.37s CPU (       9 calls,   0.153 s avg)
 
     PWSCF        :     6.78s CPU time,        8.88s wall time

 
   This run was terminated on:  15: 0:55   2Feb2010            

=------------------------------------------------------------------------------=
   JOB DONE.
=------------------------------------------------------------------------------=
