
     Program PWSCF v.6.beta (svn rev. 12992:12993) starts on 21Sep2016 at 16: 2:34 

     This program is part of the open-source Quantum ESPRESSO suite
     for quantum simulation of materials; please cite
         "P. Giannozzi et al., J. Phys.:Condens. Matter 21 395502 (2009);
          URL http://www.quantum-espresso.org", 
     in publications or presentations arising from this work. More details at
     http://www.quantum-espresso.org/quote

           HOST :    @host@
           ARCH :    x86_64
             CC :    cc
            CPP :    cpp
            F90 :    mpif90
            F77 :    gfortran
         DFLAGS :    -D__GFORTRAN -D__STD_F95 -D__FFTW -D__MPI
      BLAS LIBS :    
    LAPACK LIBS :    $(TOPDIR)/LAPACK/liblapack.a $(TOPDIR)/LAPACK/libblas.a
       FFT LIBS :    
      MASS LIBS :    

     Parallel version (MPI), running on     1 processors
     Waiting for input...
     Reading input from standard input
Warning: card  &IONS ignored
Warning: card  / ignored

     Current dimensions of program PWSCF are:
     Max number of different atomic species (ntypx) = 10
     Max number of k-points (npk) =  40000
     Max angular momentum in pseudopotentials (lmaxx) =  3

     Subspace diagonalization in iterative solution of the eigenvalue problem:
     a serial algorithm will be used

     Found symmetry operation: I + ( -0.5000  0.0000  0.0000)
     This is a supercell, fractional translations are disabled

     G-vector sticks info
     --------------------
     sticks:   dense  smooth     PW     G-vecs:    dense   smooth      PW
     Sum         749     749    221                32157    32157    5047



     bravais-lattice index     =            0
     lattice parameter (alat)  =      10.8223  a.u.
     unit-cell volume          =    2655.9358 (a.u.)^3
     number of atoms/cell      =            4
     number of atomic types    =            1
     number of electrons       =        12.00
     number of Kohn-Sham states=           10
     kinetic-energy cutoff     =      20.0000  Ry
     charge density cutoff     =      80.0000  Ry
     convergence threshold     =      1.0E-06
     mixing beta               =       0.3000
     number of iterations used =            8  plain     mixing
     Exchange-correlation      =  SLA  PW   PBE  PBE ( 1  4  3  4 0 0)

     Effective Screening Medium Method
     =================================
     Ordinary Periodic Boundary Conditions
     grid points for fit at edges     =        4 


     celldm(1)=  10.822277  celldm(2)=   0.000000  celldm(3)=   0.000000
     celldm(4)=   0.000000  celldm(5)=   0.000000  celldm(6)=   0.000000

     crystal axes: (cart. coord. in units of alat)
               a(1) = (   1.000000   0.000000   0.000000 )  
               a(2) = (   0.000000   1.000000   0.000000 )  
               a(3) = (   0.000000   0.000000   2.095374 )  

     reciprocal axes: (cart. coord. in units 2 pi/alat)
               b(1) = (  1.000000  0.000000  0.000000 )  
               b(2) = (  0.000000  1.000000  0.000000 )  
               b(3) = (  0.000000  0.000000  0.477242 )  


     PseudoPot. # 1 for Al read from file:
     /home/pietro/trunk/espresso/pseudo/Al.pbe-n-van.UPF
     MD5 check sum: b11ded24487aef5bc42d5c7a2e22a7b6
     Pseudo is Ultrasoft + core correction, Zval =  3.0
     Generated by new atomic code, or converted to UPF format
     Using radial grid of  893 points,  2 beta functions with: 
                l(1) =   0
                l(2) =   1
     Q(r) pseudized with  8 coefficients,  rinner =    0.900   0.900   0.900


     atomic species   valence    mass     pseudopotential
        Al             3.00    26.98154     Al( 1.00)

     No symmetry found



   Cartesian axes

     site n.     atom                  positions (alat units)
         1           Al  tau(   1) = (   0.0000000   0.0000000   0.0000000  )
         2           Al  tau(   2) = (   0.5000000   0.0000000   0.0000000  )
         3           Al  tau(   3) = (   0.0000000   0.5000000   0.0000000  )
         4           Al  tau(   4) = (   0.5000000   0.5000000   0.0000000  )

     number of k points=    18  Marzari-Vanderbilt smearing, width (Ry)=  0.0300
                       cart. coord. in units 2pi/alat
        k(    1) = (   0.0833333   0.0833333   0.0000000), wk =   0.1111111
        k(    2) = (   0.0833333   0.2500000   0.0000000), wk =   0.1111111
        k(    3) = (   0.0833333   0.4166667   0.0000000), wk =   0.1111111
        k(    4) = (   0.0833333  -0.4166667   0.0000000), wk =   0.1111111
        k(    5) = (   0.0833333  -0.2500000   0.0000000), wk =   0.1111111
        k(    6) = (   0.0833333  -0.0833333   0.0000000), wk =   0.1111111
        k(    7) = (   0.2500000   0.0833333   0.0000000), wk =   0.1111111
        k(    8) = (   0.2500000   0.2500000   0.0000000), wk =   0.1111111
        k(    9) = (   0.2500000   0.4166667   0.0000000), wk =   0.1111111
        k(   10) = (   0.2500000  -0.4166667   0.0000000), wk =   0.1111111
        k(   11) = (   0.2500000  -0.2500000   0.0000000), wk =   0.1111111
        k(   12) = (   0.2500000  -0.0833333   0.0000000), wk =   0.1111111
        k(   13) = (   0.4166667   0.0833333   0.0000000), wk =   0.1111111
        k(   14) = (   0.4166667   0.2500000   0.0000000), wk =   0.1111111
        k(   15) = (   0.4166667   0.4166667   0.0000000), wk =   0.1111111
        k(   16) = (   0.4166667  -0.4166667   0.0000000), wk =   0.1111111
        k(   17) = (   0.4166667  -0.2500000   0.0000000), wk =   0.1111111
        k(   18) = (   0.4166667  -0.0833333   0.0000000), wk =   0.1111111

     Dense  grid:    32157 G-vectors     FFT dimensions: (  32,  32,  72)

     Estimated max dynamical RAM per process >      35.50Mb

     Check: negative/imaginary core charge=   -0.000012    0.000000

     Initial potential from superposition of free atoms
     Check: negative starting charge=   -0.000169

     starting charge   11.99014, renormalised to   12.00000

     negative rho (up, down):  1.687E-04 0.000E+00
     Starting wfc are   16 randomized atomic wfcs

     total cpu time spent up to now is        1.1 secs

     per-process dynamical memory:    29.9 Mb

     Self-consistent Calculation

     iteration #  1     ecut=    20.00 Ry     beta=0.30
     Davidson diagonalization with overlap
     ethr =  1.00E-02,  avg # of iterations =  2.4

     Threshold (ethr) on eigenvalues was too large:
     Diagonalizing with lowered threshold

     Davidson diagonalization with overlap
     ethr =  6.47E-04,  avg # of iterations =  1.8

     negative rho (up, down):  1.048E-04 0.000E+00

     total cpu time spent up to now is        3.9 secs

     total energy              =     -49.52137028 Ry
     Harris-Foulkes estimate   =     -49.54102226 Ry
     estimated scf accuracy    <       0.07933266 Ry

     iteration #  2     ecut=    20.00 Ry     beta=0.30
     Davidson diagonalization with overlap
     ethr =  6.61E-04,  avg # of iterations =  1.0

     negative rho (up, down):  2.208E-05 0.000E+00

     total cpu time spent up to now is        5.0 secs

     total energy              =     -49.51397079 Ry
     Harris-Foulkes estimate   =     -49.52360071 Ry
     estimated scf accuracy    <       0.02433907 Ry

     iteration #  3     ecut=    20.00 Ry     beta=0.30
     Davidson diagonalization with overlap
     ethr =  2.03E-04,  avg # of iterations =  1.0

     negative rho (up, down):  1.197E-06 0.000E+00

     total cpu time spent up to now is        6.1 secs

     total energy              =     -49.51667251 Ry
     Harris-Foulkes estimate   =     -49.51707079 Ry
     estimated scf accuracy    <       0.00107687 Ry

     iteration #  4     ecut=    20.00 Ry     beta=0.30
     Davidson diagonalization with overlap
     ethr =  8.97E-06,  avg # of iterations =  2.6

     negative rho (up, down):  2.177E-07 0.000E+00

     total cpu time spent up to now is        7.6 secs

     total energy              =     -49.51681494 Ry
     Harris-Foulkes estimate   =     -49.51699970 Ry
     estimated scf accuracy    <       0.00039733 Ry

     iteration #  5     ecut=    20.00 Ry     beta=0.30
     Davidson diagonalization with overlap
     ethr =  3.31E-06,  avg # of iterations =  1.7

     total cpu time spent up to now is        8.8 secs

     total energy              =     -49.51687691 Ry
     Harris-Foulkes estimate   =     -49.51687579 Ry
     estimated scf accuracy    <       0.00000125 Ry

     iteration #  6     ecut=    20.00 Ry     beta=0.30
     Davidson diagonalization with overlap
     ethr =  1.05E-08,  avg # of iterations =  4.1

     total cpu time spent up to now is       10.7 secs

     End of self-consistent calculation

          k = 0.0833 0.0833 0.0000 (  3999 PWs)   bands (ev):

    -9.1599  -5.5843  -5.5843  -3.8763  -3.8763  -3.1142  -2.0988  -1.2266
     0.0687   0.1208

          k = 0.0833 0.2500 0.0000 (  4011 PWs)   bands (ev):

    -8.9118  -6.7170  -5.3401  -3.6486  -3.1976  -2.8766  -2.3047  -1.7449
    -0.8093   0.3517

          k = 0.0833 0.4167 0.0000 (  4016 PWs)   bands (ev):

    -8.4175  -7.6821  -4.8545  -4.1348  -3.1972  -2.5413  -2.4041  -1.7053
    -0.4699   0.8098

          k = 0.0833-0.4167 0.0000 (  4016 PWs)   bands (ev):

    -8.4175  -7.6821  -4.8545  -4.1348  -3.1972  -2.5413  -2.4041  -1.7053
    -0.4699   0.8098

          k = 0.0833-0.2500 0.0000 (  4011 PWs)   bands (ev):

    -8.9118  -6.7170  -5.3401  -3.6486  -3.1976  -2.8766  -2.3047  -1.7449
    -0.8093   0.3517

          k = 0.0833-0.0833 0.0000 (  3999 PWs)   bands (ev):

    -9.1599  -5.5843  -5.5843  -3.8763  -3.8763  -3.1142  -2.0988  -1.2266
     0.0686   0.1208

          k = 0.2500 0.0833 0.0000 (  4011 PWs)   bands (ev):

    -8.9118  -6.7170  -5.3401  -3.6486  -3.1976  -2.8766  -2.3047  -1.7449
    -0.8093   0.3517

          k = 0.2500 0.2500 0.0000 (  4007 PWs)   bands (ev):

    -8.6640  -6.4726  -6.4726  -4.3181  -2.6392  -2.0828  -2.0827  -0.7700
    -0.5754  -0.5753

          k = 0.2500 0.4167 0.0000 (  4019 PWs)   bands (ev):

    -8.1704  -7.4361  -5.9862  -5.2641  -2.1675  -1.6528  -1.4696  -1.0704
    -0.2704  -0.1097

          k = 0.2500-0.4167 0.0000 (  4019 PWs)   bands (ev):

    -8.1704  -7.4361  -5.9862  -5.2641  -2.1675  -1.6528  -1.4696  -1.0704
    -0.2704  -0.1096

          k = 0.2500-0.2500 0.0000 (  4007 PWs)   bands (ev):

    -8.6640  -6.4726  -6.4726  -4.3181  -2.6392  -2.0828  -2.0827  -0.7700
    -0.5754  -0.5753

          k = 0.2500-0.0833 0.0000 (  4011 PWs)   bands (ev):

    -8.9118  -6.7170  -5.3401  -3.6486  -3.1976  -2.8766  -2.3047  -1.7449
    -0.8093   0.3517

          k = 0.4167 0.0833 0.0000 (  4016 PWs)   bands (ev):

    -8.4175  -7.6821  -4.8545  -4.1348  -3.1972  -2.5413  -2.4041  -1.7053
    -0.4699   0.8098

          k = 0.4167 0.2500 0.0000 (  4019 PWs)   bands (ev):

    -8.1704  -7.4361  -5.9862  -5.2641  -2.1675  -1.6528  -1.4696  -1.0704
    -0.2704  -0.1097

          k = 0.4167 0.4167 0.0000 (  4005 PWs)   bands (ev):

    -7.6784  -6.9466  -6.9466  -6.2186  -1.6965  -1.0006  -1.0006  -0.3073
     0.0775   0.1412

          k = 0.4167-0.4167 0.0000 (  4005 PWs)   bands (ev):

    -7.6784  -6.9466  -6.9466  -6.2186  -1.6965  -1.0006  -1.0006  -0.3073
     0.0775   0.0775

          k = 0.4167-0.2500 0.0000 (  4019 PWs)   bands (ev):

    -8.1704  -7.4361  -5.9862  -5.2641  -2.1675  -1.6528  -1.4696  -1.0704
    -0.2704  -0.1097

          k = 0.4167-0.0833 0.0000 (  4016 PWs)   bands (ev):

    -8.4175  -7.6821  -4.8545  -4.1348  -3.1972  -2.5413  -2.4041  -1.7053
    -0.4699   0.8098

     the Fermi energy is    -2.0476 ev

!    total energy              =     -49.51687844 Ry
     Harris-Foulkes estimate   =     -49.51687884 Ry
     estimated scf accuracy    <       0.00000096 Ry

     The total energy is the sum of the following terms:

     one-electron contribution =     -30.14397552 Ry
     hartree contribution      =      16.60013055 Ry
     xc contribution           =     -39.21886790 Ry
     ewald contribution        =       3.24848002 Ry
     smearing contrib. (-TS)   =      -0.00264559 Ry

     convergence has been achieved in   6 iterations

     Forces acting on atoms (Ry/au):

     atom    1 type  1   force =    -0.00000015   -0.00000020    0.00000013
     atom    2 type  1   force =     0.00000015    0.00000012   -0.00000000
     atom    3 type  1   force =    -0.00000048    0.00000021    0.00000016
     atom    4 type  1   force =     0.00000048   -0.00000012   -0.00000029

     Total force =     0.000001     Total SCF correction =     0.000003
     SCF correction compared to forces is large: reduce conv_thr to get better values

     Writing output data file Al001_pbc.save

     init_run     :      1.10s CPU      1.11s WALL (       1 calls)
     electrons    :      9.52s CPU      9.55s WALL (       1 calls)
     forces       :      0.48s CPU      0.48s WALL (       1 calls)

     Called by init_run:
     wfcinit      :      0.75s CPU      0.75s WALL (       1 calls)
     potinit      :      0.08s CPU      0.09s WALL (       1 calls)

     Called by electrons:
     c_bands      :      7.71s CPU      7.73s WALL (       7 calls)
     sum_band     :      1.41s CPU      1.40s WALL (       7 calls)
     v_of_rho     :      0.34s CPU      0.34s WALL (       7 calls)
     newd         :      0.11s CPU      0.11s WALL (       7 calls)
     mix_rho      :      0.02s CPU      0.02s WALL (       7 calls)

     Called by c_bands:
     init_us_2    :      0.19s CPU      0.19s WALL (     288 calls)
     cegterg      :      7.56s CPU      7.57s WALL (     126 calls)

     Called by sum_band:
     sum_band:bec :      0.00s CPU      0.00s WALL (     126 calls)
     addusdens    :      0.11s CPU      0.10s WALL (       7 calls)

     Called by *egterg:
     h_psi        :      6.38s CPU      6.36s WALL (     406 calls)
     s_psi        :      0.31s CPU      0.32s WALL (     406 calls)
     g_psi        :      0.04s CPU      0.03s WALL (     262 calls)
     cdiaghg      :      0.07s CPU      0.06s WALL (     370 calls)

     Called by h_psi:
     h_psi:pot    :      6.34s CPU      6.33s WALL (     406 calls)
     h_psi:calbec :      0.40s CPU      0.41s WALL (     406 calls)
     vloc_psi     :      5.61s CPU      5.61s WALL (     406 calls)
     add_vuspsi   :      0.32s CPU      0.31s WALL (     406 calls)

     General routines
     calbec       :      0.62s CPU      0.62s WALL (     604 calls)
     fft          :      0.15s CPU      0.15s WALL (     105 calls)
     fftw         :      6.00s CPU      6.09s WALL (    7972 calls)
     davcio       :      0.00s CPU      0.00s WALL (      18 calls)

     Parallel routines
     fft_scatter  :      0.44s CPU      0.53s WALL (    8077 calls)

     PWSCF        :    11.15s CPU        11.20s WALL


   This run was terminated on:  16: 2:46  21Sep2016            

=------------------------------------------------------------------------------=
   JOB DONE.
=------------------------------------------------------------------------------=
