
     Program PWSCF v.5.2.0 starts on 20Jul2015 at 23: 3:53 

     This program is part of the open-source Quantum ESPRESSO suite
     for quantum simulation of materials; please cite
         "P. Giannozzi et al., J. Phys.:Condens. Matter 21 395502 (2009);
          URL http://www.quantum-espresso.org", 
     in publications or presentations arising from this work. More details at
     http://www.quantum-espresso.org/quote

     Parallel version (MPI), running on     1 processors
     Waiting for input...
     Reading input from standard input
Warning: card  &IONS ignored
Warning: card  / ignored

     Current dimensions of program PWSCF are:
     Max number of different atomic species (ntypx) = 10
     Max number of k-points (npk) =  40000
     Max angular momentum in pseudopotentials (lmaxx) =  3

     Subspace diagonalization in iterative solution of the eigenvalue problem:
     a serial algorithm will be used

     Found symmetry operation: I + ( -0.5000  0.0000  0.0000)
     This is a supercell, fractional translations are disabled

     G-vector sticks info
     --------------------
     sticks:   dense  smooth     PW     G-vecs:    dense   smooth      PW
     Sum         749     749    221                32157    32157    5047



     bravais-lattice index     =            0
     lattice parameter (alat)  =      10.8223  a.u.
     unit-cell volume          =    2655.9358 (a.u.)^3
     number of atoms/cell      =            4
     number of atomic types    =            1
     number of electrons       =        12.00
     number of Kohn-Sham states=           10
     kinetic-energy cutoff     =      20.0000  Ry
     charge density cutoff     =      80.0000  Ry
     convergence threshold     =      1.0E-06
     mixing beta               =       0.3000
     number of iterations used =            8  plain     mixing
     Exchange-correlation      =  SLA  PW   PBE  PBE ( 1  4  3  4 0 0)

     Effective Screening Medium Method
     =================================
     Ordinary Periodic Boundary Conditions
     grid points for fit at edges     =        4 


     celldm(1)=  10.822277  celldm(2)=   0.000000  celldm(3)=   0.000000
     celldm(4)=   0.000000  celldm(5)=   0.000000  celldm(6)=   0.000000

     crystal axes: (cart. coord. in units of alat)
               a(1) = (   1.000000   0.000000   0.000000 )  
               a(2) = (   0.000000   1.000000   0.000000 )  
               a(3) = (   0.000000   0.000000   2.095374 )  

     reciprocal axes: (cart. coord. in units 2 pi/alat)
               b(1) = (  1.000000  0.000000  0.000000 )  
               b(2) = (  0.000000  1.000000  0.000000 )  
               b(3) = (  0.000000  0.000000  0.477242 )  


     PseudoPot. # 1 for Al read from file:
     /Users/otani/espresso-5.2.0_20150714/pseudo/Al.pbe-n-van.UPF
     MD5 check sum: b11ded24487aef5bc42d5c7a2e22a7b6
     Pseudo is Ultrasoft + core correction, Zval =  3.0
     Generated by new atomic code, or converted to UPF format
     Using radial grid of  893 points,  2 beta functions with: 
                l(1) =   0
                l(2) =   1
     Q(r) pseudized with  8 coefficients,  rinner =    0.900   0.900   0.900


     atomic species   valence    mass     pseudopotential
        Al             3.00    26.98154     Al( 1.00)

     No symmetry found



   Cartesian axes

     site n.     atom                  positions (alat units)
         1           Al  tau(   1) = (   0.0000000   0.0000000   0.0000000  )
         2           Al  tau(   2) = (   0.5000000   0.0000000   0.0000000  )
         3           Al  tau(   3) = (   0.0000000   0.5000000   0.0000000  )
         4           Al  tau(   4) = (   0.5000000   0.5000000   0.0000000  )

     number of k points=    18  Methfessel-Paxton smearing, width (Ry)=  0.0300
                       cart. coord. in units 2pi/alat
        k(    1) = (   0.0833333   0.0833333   0.0000000), wk =   0.1111111
        k(    2) = (   0.0833333   0.2500000   0.0000000), wk =   0.1111111
        k(    3) = (   0.0833333   0.4166667   0.0000000), wk =   0.1111111
        k(    4) = (   0.0833333  -0.4166667   0.0000000), wk =   0.1111111
        k(    5) = (   0.0833333  -0.2500000   0.0000000), wk =   0.1111111
        k(    6) = (   0.0833333  -0.0833333   0.0000000), wk =   0.1111111
        k(    7) = (   0.2500000   0.0833333   0.0000000), wk =   0.1111111
        k(    8) = (   0.2500000   0.2500000   0.0000000), wk =   0.1111111
        k(    9) = (   0.2500000   0.4166667   0.0000000), wk =   0.1111111
        k(   10) = (   0.2500000  -0.4166667   0.0000000), wk =   0.1111111
        k(   11) = (   0.2500000  -0.2500000   0.0000000), wk =   0.1111111
        k(   12) = (   0.2500000  -0.0833333   0.0000000), wk =   0.1111111
        k(   13) = (   0.4166667   0.0833333   0.0000000), wk =   0.1111111
        k(   14) = (   0.4166667   0.2500000   0.0000000), wk =   0.1111111
        k(   15) = (   0.4166667   0.4166667   0.0000000), wk =   0.1111111
        k(   16) = (   0.4166667  -0.4166667   0.0000000), wk =   0.1111111
        k(   17) = (   0.4166667  -0.2500000   0.0000000), wk =   0.1111111
        k(   18) = (   0.4166667  -0.0833333   0.0000000), wk =   0.1111111

     Dense  grid:    32157 G-vectors     FFT dimensions: (  32,  32,  72)

     Largest allocated arrays     est. size (Mb)     dimensions
        Kohn-Sham Wavefunctions         0.61 Mb     (    4019,   10)
        NL pseudopotentials             0.98 Mb     (    4019,   16)
        Each V/rho on FFT grid          1.12 Mb     (   73728)
        Each G-vector array             0.25 Mb     (   32157)
        G-vector shells                 0.02 Mb     (    2110)
     Largest temporary arrays     est. size (Mb)     dimensions
        Auxiliary wavefunctions         2.45 Mb     (    4019,   40)
        Each subspace H/S matrix        0.02 Mb     (      40,   40)
        Each <psi_i|beta_j> matrix      0.00 Mb     (      16,   10)
        Arrays for rho mixing           9.00 Mb     (   73728,    8)

     Check: negative/imaginary core charge=   -0.000012    0.000000

     Initial potential from superposition of free atoms
     Check: negative starting charge=   -0.000169

     starting charge   11.99014, renormalised to   12.00000

     negative rho (up, down):  1.687E-04 0.000E+00
     Starting wfc are   16 randomized atomic wfcs

     total cpu time spent up to now is        0.8 secs

     Self-consistent Calculation

     iteration #  1     ecut=    20.00 Ry     beta=0.30
     Davidson diagonalization with overlap
     ethr =  1.00E-02,  avg # of iterations =  2.4

     Threshold (ethr) on eigenvalues was too large:
     Diagonalizing with lowered threshold

     Davidson diagonalization with overlap
     ethr =  6.48E-04,  avg # of iterations =  1.8

     negative rho (up, down):  1.048E-04 0.000E+00

     total cpu time spent up to now is        3.0 secs

     total energy              =     -49.52134071 Ry
     Harris-Foulkes estimate   =     -49.54106956 Ry
     estimated scf accuracy    <       0.07952774 Ry

     iteration #  2     ecut=    20.00 Ry     beta=0.30
     Davidson diagonalization with overlap
     ethr =  6.63E-04,  avg # of iterations =  1.0

     negative rho (up, down):  2.172E-05 0.000E+00

     total cpu time spent up to now is        4.0 secs

     total energy              =     -49.51374945 Ry
     Harris-Foulkes estimate   =     -49.52355047 Ry
     estimated scf accuracy    <       0.02458110 Ry

     iteration #  3     ecut=    20.00 Ry     beta=0.30
     Davidson diagonalization with overlap
     ethr =  2.05E-04,  avg # of iterations =  1.0

     negative rho (up, down):  1.114E-06 0.000E+00

     total cpu time spent up to now is        4.9 secs

     total energy              =     -49.51646830 Ry
     Harris-Foulkes estimate   =     -49.51683587 Ry
     estimated scf accuracy    <       0.00100964 Ry

     iteration #  4     ecut=    20.00 Ry     beta=0.30
     Davidson diagonalization with overlap
     ethr =  8.41E-06,  avg # of iterations =  2.6

     negative rho (up, down):  1.943E-07 0.000E+00

     total cpu time spent up to now is        6.1 secs

     total energy              =     -49.51662001 Ry
     Harris-Foulkes estimate   =     -49.51674169 Ry
     estimated scf accuracy    <       0.00026206 Ry

     iteration #  5     ecut=    20.00 Ry     beta=0.30
     Davidson diagonalization with overlap
     ethr =  2.18E-06,  avg # of iterations =  2.6

     total cpu time spent up to now is        7.1 secs

     total energy              =     -49.51666533 Ry
     Harris-Foulkes estimate   =     -49.51666456 Ry
     estimated scf accuracy    <       0.00000151 Ry

     iteration #  6     ecut=    20.00 Ry     beta=0.30
     Davidson diagonalization with overlap
     ethr =  1.26E-08,  avg # of iterations =  3.0

     total cpu time spent up to now is        8.4 secs

     total energy              =     -49.51666632 Ry
     Harris-Foulkes estimate   =     -49.51666681 Ry
     estimated scf accuracy    <       0.00000113 Ry

     iteration #  7     ecut=    20.00 Ry     beta=0.30
     Davidson diagonalization with overlap
     ethr =  9.43E-09,  avg # of iterations =  2.0

     total cpu time spent up to now is        9.5 secs

     End of self-consistent calculation

          k = 0.0833 0.0833 0.0000 (  3999 PWs)   bands (ev):

    -9.1435  -5.5680  -5.5680  -3.8594  -3.8594  -3.1046  -2.0822  -1.2092
     0.0839   0.1309

          k = 0.0833 0.2500 0.0000 (  4011 PWs)   bands (ev):

    -8.8953  -6.7006  -5.3238  -3.6317  -3.1812  -2.8669  -2.2879  -1.7278
    -0.7995   0.3617

          k = 0.0833 0.4167 0.0000 (  4016 PWs)   bands (ev):

    -8.4011  -7.6656  -4.8381  -4.1184  -3.1802  -2.5243  -2.3944  -1.6955
    -0.4531   0.8199

          k = 0.0833-0.4167 0.0000 (  4016 PWs)   bands (ev):

    -8.4011  -7.6656  -4.8381  -4.1184  -3.1802  -2.5243  -2.3944  -1.6955
    -0.4531   0.8199

          k = 0.0833-0.2500 0.0000 (  4011 PWs)   bands (ev):

    -8.8953  -6.7006  -5.3238  -3.6317  -3.1812  -2.8669  -2.2879  -1.7278
    -0.7995   0.3617

          k = 0.0833-0.0833 0.0000 (  3999 PWs)   bands (ev):

    -9.1435  -5.5680  -5.5680  -3.8594  -3.8594  -3.1046  -2.0822  -1.2092
     0.0838   0.1309

          k = 0.2500 0.0833 0.0000 (  4011 PWs)   bands (ev):

    -8.8953  -6.7006  -5.3238  -3.6317  -3.1812  -2.8669  -2.2879  -1.7278
    -0.7995   0.3617

          k = 0.2500 0.2500 0.0000 (  4007 PWs)   bands (ev):

    -8.6476  -6.4562  -6.4562  -4.3016  -2.6295  -2.0659  -2.0659  -0.7525
    -0.5655  -0.5655

          k = 0.2500 0.4167 0.0000 (  4019 PWs)   bands (ev):

    -8.1540  -7.4196  -5.9698  -5.2476  -2.1578  -1.6359  -1.4598  -1.0534
    -0.2535  -0.0997

          k = 0.2500-0.4167 0.0000 (  4019 PWs)   bands (ev):

    -8.1540  -7.4196  -5.9698  -5.2476  -2.1578  -1.6359  -1.4598  -1.0534
    -0.2535  -0.0997

          k = 0.2500-0.2500 0.0000 (  4007 PWs)   bands (ev):

    -8.6476  -6.4562  -6.4562  -4.3016  -2.6295  -2.0659  -2.0659  -0.7525
    -0.5655  -0.5655

          k = 0.2500-0.0833 0.0000 (  4011 PWs)   bands (ev):

    -8.8953  -6.7006  -5.3238  -3.6317  -3.1812  -2.8669  -2.2879  -1.7278
    -0.7995   0.3617

          k = 0.4167 0.0833 0.0000 (  4016 PWs)   bands (ev):

    -8.4011  -7.6656  -4.8381  -4.1184  -3.1802  -2.5243  -2.3944  -1.6955
    -0.4531   0.8199

          k = 0.4167 0.2500 0.0000 (  4019 PWs)   bands (ev):

    -8.1540  -7.4196  -5.9698  -5.2476  -2.1578  -1.6359  -1.4598  -1.0534
    -0.2535  -0.0997

          k = 0.4167 0.4167 0.0000 (  4005 PWs)   bands (ev):

    -7.6619  -6.9302  -6.9301  -6.2021  -1.6868  -0.9908  -0.9908  -0.2974
     0.0946   0.1587

          k = 0.4167-0.4167 0.0000 (  4005 PWs)   bands (ev):

    -7.6619  -6.9301  -6.9301  -6.2021  -1.6868  -0.9908  -0.9908  -0.2973
     0.0946   0.1586

          k = 0.4167-0.2500 0.0000 (  4019 PWs)   bands (ev):

    -8.1540  -7.4196  -5.9698  -5.2476  -2.1578  -1.6359  -1.4598  -1.0534
    -0.2535  -0.0997

          k = 0.4167-0.0833 0.0000 (  4016 PWs)   bands (ev):

    -8.4011  -7.6656  -4.8381  -4.1184  -3.1802  -2.5243  -2.3944  -1.6955
    -0.4531   0.8199

     the Fermi energy is    -2.0429 ev

!    total energy              =     -49.51666649 Ry
     Harris-Foulkes estimate   =     -49.51666658 Ry
     estimated scf accuracy    <       0.00000016 Ry

     The total energy is the sum of the following terms:

     one-electron contribution =     -30.15248075 Ry
     hartree contribution      =      16.60817439 Ry
     xc contribution           =     -39.22061526 Ry
     ewald contribution        =       3.24848002 Ry
     smearing contrib. (-TS)   =      -0.00022488 Ry

     convergence has been achieved in   7 iterations

     Forces acting on atoms (Ry/au):

     atom    1 type  1   force =     0.00000007    0.00000004    0.00000001
     atom    2 type  1   force =    -0.00000011    0.00000002    0.00000006
     atom    3 type  1   force =    -0.00000026   -0.00000007   -0.00000001
     atom    4 type  1   force =     0.00000030    0.00000000   -0.00000006

     Total force =     0.000000     Total SCF correction =     0.000002
     SCF correction compared to forces is large: reduce conv_thr to get better values

     Writing output data file Al001_pbc.save

     init_run     :      0.82s CPU      0.81s WALL (       1 calls)
     electrons    :      8.91s CPU      8.70s WALL (       1 calls)
     forces       :      0.17s CPU      0.17s WALL (       1 calls)

     Called by init_run:
     wfcinit      :      0.61s CPU      0.59s WALL (       1 calls)
     potinit      :      0.06s CPU      0.06s WALL (       1 calls)

     Called by electrons:
     c_bands      :      7.20s CPU      6.91s WALL (       8 calls)
     sum_band     :      1.35s CPU      1.36s WALL (       8 calls)
     v_of_rho     :      0.28s CPU      0.30s WALL (       8 calls)
     newd         :      0.07s CPU      0.09s WALL (       8 calls)
     mix_rho      :      0.04s CPU      0.06s WALL (       8 calls)

     Called by c_bands:
     init_us_2    :      0.20s CPU      0.20s WALL (     324 calls)
     cegterg      :      6.98s CPU      6.68s WALL (     144 calls)

     Called by sum_band:
     sum_band:bec :      0.00s CPU      0.00s WALL (     144 calls)
     addusdens    :      0.08s CPU      0.08s WALL (       8 calls)

     Called by *egterg:
     h_psi        :      6.05s CPU      5.94s WALL (     456 calls)
     s_psi        :      0.26s CPU      0.12s WALL (     456 calls)
     g_psi        :      0.07s CPU      0.07s WALL (     294 calls)
     cdiaghg      :      0.08s CPU      0.08s WALL (     420 calls)

     Called by h_psi:
     add_vuspsi   :      0.27s CPU      0.14s WALL (     456 calls)

     General routines
     calbec       :      0.28s CPU      0.28s WALL (     672 calls)
     fft          :      0.14s CPU      0.15s WALL (     118 calls)
     fftw         :      5.88s CPU      5.90s WALL (    8994 calls)
     davcio       :      0.00s CPU      0.01s WALL (      18 calls)

     Parallel routines
     fft_scatter  :      0.62s CPU      0.63s WALL (    9112 calls)

     PWSCF        :     9.96s CPU         9.84s WALL


   This run was terminated on:  23: 4: 3  20Jul2015            

=------------------------------------------------------------------------------=
   JOB DONE.
=------------------------------------------------------------------------------=
