
     Program PWSCF v.6.1 (svn rev. 13369) starts on 19Aug2017 at  2:57: 5 

     This program is part of the open-source Quantum ESPRESSO suite
     for quantum simulation of materials; please cite
         "P. Giannozzi et al., J. Phys.:Condens. Matter 21 395502 (2009);
          URL http://www.quantum-espresso.org", 
     in publications or presentations arising from this work. More details at
     http://www.quantum-espresso.org/quote

     Parallel version (MPI), running on     2 processors
     R & G space division:  proc/nbgrp/npool/nimage =       2
     Waiting for input...
     Reading input from standard input

     Current dimensions of program PWSCF are:
     Max number of different atomic species (ntypx) = 10
     Max number of k-points (npk) =  40000
     Max angular momentum in pseudopotentials (lmaxx) =  3

     Subspace diagonalization in iterative solution of the eigenvalue problem:
     a serial algorithm will be used

     Found symmetry operation: I + ( -0.5000  0.0000  0.0000)
     This is a supercell, fractional translations are disabled

     Parallelization info
     --------------------
     sticks:   dense  smooth     PW     G-vecs:    dense   smooth      PW
     Min         374     374    110                16076    16076    2523
     Max         375     375    111                16081    16081    2524
     Sum         749     749    221                32157    32157    5047



     bravais-lattice index     =            0
     lattice parameter (alat)  =      10.8223  a.u.
     unit-cell volume          =    2655.9321 (a.u.)^3
     number of atoms/cell      =            4
     number of atomic types    =            1
     number of electrons       =        12.00
     number of Kohn-Sham states=           10
     kinetic-energy cutoff     =      20.0000  Ry
     charge density cutoff     =      80.0000  Ry
     convergence threshold     =      1.0E-06
     mixing beta               =       0.3000
     number of iterations used =            8  plain     mixing
     Exchange-correlation      =  SLA  PW   PBE  PBE ( 1  4  3  4 0 0)

     Effective Screening Medium Method
     =================================
     Boundary Conditions: Metal-Slab-Metal
     grid points for fit at edges     =        4 


     celldm(1)=  10.822273  celldm(2)=   0.000000  celldm(3)=   0.000000
     celldm(4)=   0.000000  celldm(5)=   0.000000  celldm(6)=   0.000000

     crystal axes: (cart. coord. in units of alat)
               a(1) = (   1.000000   0.000000   0.000000 )  
               a(2) = (   0.000000   1.000000   0.000000 )  
               a(3) = (   0.000000   0.000000   2.095374 )  

     reciprocal axes: (cart. coord. in units 2 pi/alat)
               b(1) = (  1.000000  0.000000  0.000000 )  
               b(2) = (  0.000000  1.000000  0.000000 )  
               b(3) = (  0.000000  0.000000  0.477242 )  


     PseudoPot. # 1 for Al read from file:
     /Users/otani/ESPRESSO/qe-6.1_printpot/pseudo/Al.pbe-n-van.UPF
     MD5 check sum: b11ded24487aef5bc42d5c7a2e22a7b6
     Pseudo is Ultrasoft + core correction, Zval =  3.0
     Generated by new atomic code, or converted to UPF format
     Using radial grid of  893 points,  2 beta functions with: 
                l(1) =   0
                l(2) =   1
     Q(r) pseudized with  8 coefficients,  rinner =    0.900   0.900   0.900


     atomic species   valence    mass     pseudopotential
        Al             3.00    26.98154     Al( 1.00)

     No symmetry found



   Cartesian axes

     site n.     atom                  positions (alat units)
         1           Al  tau(   1) = (   0.0000000   0.0000000   0.0000000  )
         2           Al  tau(   2) = (   0.5000000   0.0000000   0.0000000  )
         3           Al  tau(   3) = (   0.0000000   0.5000000   0.0000000  )
         4           Al  tau(   4) = (   0.5000000   0.5000000   0.0000000  )

     number of k points=    18  Methfessel-Paxton smearing, width (Ry)=  0.0300
                       cart. coord. in units 2pi/alat
        k(    1) = (   0.0833333   0.0833333   0.0000000), wk =   0.1111111
        k(    2) = (   0.0833333   0.2500000   0.0000000), wk =   0.1111111
        k(    3) = (   0.0833333   0.4166667   0.0000000), wk =   0.1111111
        k(    4) = (   0.0833333  -0.4166667   0.0000000), wk =   0.1111111
        k(    5) = (   0.0833333  -0.2500000   0.0000000), wk =   0.1111111
        k(    6) = (   0.0833333  -0.0833333   0.0000000), wk =   0.1111111
        k(    7) = (   0.2500000   0.0833333   0.0000000), wk =   0.1111111
        k(    8) = (   0.2500000   0.2500000   0.0000000), wk =   0.1111111
        k(    9) = (   0.2500000   0.4166667   0.0000000), wk =   0.1111111
        k(   10) = (   0.2500000  -0.4166667   0.0000000), wk =   0.1111111
        k(   11) = (   0.2500000  -0.2500000   0.0000000), wk =   0.1111111
        k(   12) = (   0.2500000  -0.0833333   0.0000000), wk =   0.1111111
        k(   13) = (   0.4166667   0.0833333   0.0000000), wk =   0.1111111
        k(   14) = (   0.4166667   0.2500000   0.0000000), wk =   0.1111111
        k(   15) = (   0.4166667   0.4166667   0.0000000), wk =   0.1111111
        k(   16) = (   0.4166667  -0.4166667   0.0000000), wk =   0.1111111
        k(   17) = (   0.4166667  -0.2500000   0.0000000), wk =   0.1111111
        k(   18) = (   0.4166667  -0.0833333   0.0000000), wk =   0.1111111

     Dense  grid:    32157 G-vectors     FFT dimensions: (  32,  32,  72)

     Estimated max dynamical RAM per process >      17.78MB

     Estimated total allocated dynamical RAM >      35.55MB

     Check: negative/imaginary core charge=   -0.000012    0.000000

     Initial potential from superposition of free atoms
     Check: negative starting charge=   -0.000169

     starting charge   11.99014, renormalised to   12.00000

     negative rho (up, down):  1.687E-04 0.000E+00
     Starting wfc are   16 randomized atomic wfcs

     total cpu time spent up to now is        0.4 secs

     Self-consistent Calculation

     iteration #  1     ecut=    20.00 Ry     beta=0.30
     Davidson diagonalization with overlap
     ethr =  1.00E-02,  avg # of iterations =  2.6

     Threshold (ethr) on eigenvalues was too large:
     Diagonalizing with lowered threshold

     Davidson diagonalization with overlap
     ethr =  3.63E-04,  avg # of iterations =  4.1

     negative rho (up, down):  9.448E-05 0.000E+00

     total cpu time spent up to now is        1.3 secs

     total energy              =     -49.52107985 Ry
     Harris-Foulkes estimate   =     -49.54047519 Ry
     estimated scf accuracy    <       0.07855794 Ry

     iteration #  2     ecut=    20.00 Ry     beta=0.30
     Davidson diagonalization with overlap
     ethr =  6.55E-04,  avg # of iterations =  1.0

     negative rho (up, down):  8.579E-06 0.000E+00

     total cpu time spent up to now is        1.7 secs

     total energy              =     -49.51181226 Ry
     Harris-Foulkes estimate   =     -49.52313508 Ry
     estimated scf accuracy    <       0.02685871 Ry

     iteration #  3     ecut=    20.00 Ry     beta=0.30
     Davidson diagonalization with overlap
     ethr =  2.24E-04,  avg # of iterations =  1.6

     negative rho (up, down):  7.287E-08 0.000E+00

     total cpu time spent up to now is        2.0 secs

     total energy              =     -49.51555206 Ry
     Harris-Foulkes estimate   =     -49.51577973 Ry
     estimated scf accuracy    <       0.00073553 Ry

     iteration #  4     ecut=    20.00 Ry     beta=0.30
     Davidson diagonalization with overlap
     ethr =  6.13E-06,  avg # of iterations =  5.9

     total cpu time spent up to now is        2.7 secs

     total energy              =     -49.51665401 Ry
     Harris-Foulkes estimate   =     -49.51665457 Ry
     estimated scf accuracy    <       0.00001953 Ry

     iteration #  5     ecut=    20.00 Ry     beta=0.30
     Davidson diagonalization with overlap
     ethr =  1.63E-07,  avg # of iterations =  5.3

     total cpu time spent up to now is        3.3 secs

     total energy              =     -49.51666990 Ry
     Harris-Foulkes estimate   =     -49.51666942 Ry
     estimated scf accuracy    <       0.00000876 Ry

     iteration #  6     ecut=    20.00 Ry     beta=0.30
     Davidson diagonalization with overlap
     ethr =  7.30E-08,  avg # of iterations =  2.4

     total cpu time spent up to now is        3.7 secs

     total energy              =     -49.51666910 Ry
     Harris-Foulkes estimate   =     -49.51667120 Ry
     estimated scf accuracy    <       0.00000338 Ry

     iteration #  7     ecut=    20.00 Ry     beta=0.30
     Davidson diagonalization with overlap
     ethr =  2.82E-08,  avg # of iterations =  1.8

     total cpu time spent up to now is        4.0 secs

     End of self-consistent calculation

          k = 0.0833 0.0833 0.0000 (  3999 PWs)   bands (ev):

   -11.3519  -7.7764  -7.7764  -6.0679  -6.0678  -5.3124  -4.2906  -3.4176
    -2.1243  -2.0769

          k = 0.0833 0.2500 0.0000 (  4011 PWs)   bands (ev):

   -11.1037  -8.9090  -7.5322  -5.8401  -5.3896  -5.0747  -4.4964  -3.9362
    -3.0072  -1.8459

          k = 0.0833 0.4167 0.0000 (  4016 PWs)   bands (ev):

   -10.6095  -9.8741  -7.0465  -6.3268  -5.3887  -4.7327  -4.6022  -3.9033
    -2.6614  -1.3877

          k = 0.0833-0.4167 0.0000 (  4016 PWs)   bands (ev):

   -10.6095  -9.8741  -7.0465  -6.3268  -5.3887  -4.7327  -4.6022  -3.9033
    -2.6614  -1.3877

          k = 0.0833-0.2500 0.0000 (  4011 PWs)   bands (ev):

   -11.1037  -8.9090  -7.5322  -5.8401  -5.3896  -5.0747  -4.4964  -3.9362
    -3.0072  -1.8460

          k = 0.0833-0.0833 0.0000 (  3999 PWs)   bands (ev):

   -11.3519  -7.7764  -7.7764  -6.0679  -6.0678  -5.3124  -4.2906  -3.4176
    -2.1241  -2.0769

          k = 0.2500 0.0833 0.0000 (  4011 PWs)   bands (ev):

   -11.1037  -8.9090  -7.5322  -5.8401  -5.3896  -5.0747  -4.4964  -3.9362
    -3.0072  -1.8460

          k = 0.2500 0.2500 0.0000 (  4007 PWs)   bands (ev):

   -10.8560  -8.6646  -8.6646  -6.5100  -4.8373  -4.2744  -4.2743  -2.9609
    -2.7733  -2.7733

          k = 0.2500 0.4167 0.0000 (  4019 PWs)   bands (ev):

   -10.3624  -9.6281  -8.1782  -7.4561  -4.3656  -3.8443  -3.6677  -3.2617
    -2.4616  -2.3075

          k = 0.2500-0.4167 0.0000 (  4019 PWs)   bands (ev):

   -10.3624  -9.6281  -8.1782  -7.4561  -4.3656  -3.8443  -3.6677  -3.2617
    -2.4616  -2.3075

          k = 0.2500-0.2500 0.0000 (  4007 PWs)   bands (ev):

   -10.8560  -8.6646  -8.6646  -6.5100  -4.8373  -4.2744  -4.2743  -2.9609
    -2.7733  -2.7733

          k = 0.2500-0.0833 0.0000 (  4011 PWs)   bands (ev):

   -11.1037  -8.9090  -7.5322  -5.8401  -5.3896  -5.0747  -4.4964  -3.9362
    -3.0072  -1.8460

          k = 0.4167 0.0833 0.0000 (  4016 PWs)   bands (ev):

   -10.6095  -9.8741  -7.0465  -6.3268  -5.3887  -4.7327  -4.6022  -3.9033
    -2.6615  -1.3877

          k = 0.4167 0.2500 0.0000 (  4019 PWs)   bands (ev):

   -10.3624  -9.6281  -8.1782  -7.4561  -4.3656  -3.8443  -3.6677  -3.2617
    -2.4618  -2.3075

          k = 0.4167 0.4167 0.0000 (  4005 PWs)   bands (ev):

    -9.8703  -9.1386  -9.1385  -8.4106  -3.8946  -3.1986  -3.1986  -2.5050
    -2.1137  -2.0498

          k = 0.4167-0.4167 0.0000 (  4005 PWs)   bands (ev):

    -9.8703  -9.1386  -9.1385  -8.4106  -3.8946  -3.1986  -3.1986  -2.5051
    -2.1137  -2.0496

          k = 0.4167-0.2500 0.0000 (  4019 PWs)   bands (ev):

   -10.3624  -9.6281  -8.1782  -7.4561  -4.3656  -3.8443  -3.6677  -3.2617
    -2.4616  -2.3075

          k = 0.4167-0.0833 0.0000 (  4016 PWs)   bands (ev):

   -10.6095  -9.8741  -7.0465  -6.3268  -5.3887  -4.7327  -4.6022  -3.9033
    -2.6614  -1.3877

     the Fermi energy is    -4.2511 ev

!    total energy              =     -49.51666973 Ry
     Harris-Foulkes estimate   =     -49.51666960 Ry
     estimated scf accuracy    <       0.00000005 Ry

     The total energy is the sum of the following terms:

     one-electron contribution =    -144.99441973 Ry
     hartree contribution      =      73.05669770 Ry
     xc contribution           =     -39.22065336 Ry
     ewald contribution        =      61.64193118 Ry
     smearing contrib. (-TS)   =      -0.00022553 Ry

     convergence has been achieved in   7 iterations

     Forces acting on atoms (cartesian axes, Ry/au):

     atom    1 type  1   force =     0.00000186   -0.00000063   -0.00000158
     atom    2 type  1   force =    -0.00000168   -0.00000306   -0.00000035
     atom    3 type  1   force =     0.00000227    0.00000055   -0.00000016
     atom    4 type  1   force =    -0.00000245    0.00000314    0.00000006

     Total force =     0.000006     Total SCF correction =     0.000020
     SCF correction compared to forces is large: reduce conv_thr to get better values

     Writing output data file Al001_bc2.save

     init_run     :      0.35s CPU      0.34s WALL (       1 calls)
     electrons    :      4.21s CPU      3.67s WALL (       1 calls)
     forces       :      0.12s CPU      0.12s WALL (       1 calls)

     Called by init_run:
     wfcinit      :      0.23s CPU      0.21s WALL (       1 calls)
     potinit      :      0.04s CPU      0.04s WALL (       1 calls)

     Called by electrons:
     c_bands      :      3.60s CPU      3.02s WALL (       8 calls)
     sum_band     :      0.44s CPU      0.44s WALL (       8 calls)
     v_of_rho     :      0.13s CPU      0.14s WALL (       8 calls)
     newd         :      0.03s CPU      0.04s WALL (       8 calls)
     mix_rho      :      0.01s CPU      0.03s WALL (       8 calls)

     Called by c_bands:
     init_us_2    :      0.08s CPU      0.08s WALL (     324 calls)
     cegterg      :      3.51s CPU      2.93s WALL (     144 calls)

     Called by sum_band:
     sum_band:bec :      0.00s CPU      0.00s WALL (     144 calls)
     addusdens    :      0.03s CPU      0.03s WALL (       8 calls)

     Called by *egterg:
     h_psi        :      2.42s CPU      2.31s WALL (     605 calls)
     s_psi        :      0.22s CPU      0.08s WALL (     605 calls)
     g_psi        :      0.03s CPU      0.03s WALL (     443 calls)
     cdiaghg      :      0.10s CPU      0.10s WALL (     569 calls)

     Called by h_psi:
     h_psi:pot    :      2.38s CPU      2.27s WALL (     605 calls)
     h_psi:calbec :      0.13s CPU      0.13s WALL (     605 calls)
     vloc_psi     :      2.03s CPU      2.05s WALL (     605 calls)
     add_vuspsi   :      0.23s CPU      0.08s WALL (     605 calls)

     General routines
     calbec       :      0.18s CPU      0.18s WALL (     821 calls)
     fft          :      0.05s CPU      0.05s WALL (     119 calls)
     fftw         :      1.98s CPU      2.00s WALL (   10384 calls)
     davcio       :      0.00s CPU      0.00s WALL (      18 calls)

     Parallel routines
     fft_scatter  :      0.59s CPU      0.60s WALL (   10503 calls)

     PWSCF        :     4.73s CPU         4.19s WALL


   This run was terminated on:   2:57: 9  19Aug2017            

=------------------------------------------------------------------------------=
   JOB DONE.
=------------------------------------------------------------------------------=
