
     Program PWSCF v.5.2.0 starts on 20Jul2015 at 23: 4: 3 

     This program is part of the open-source Quantum ESPRESSO suite
     for quantum simulation of materials; please cite
         "P. Giannozzi et al., J. Phys.:Condens. Matter 21 395502 (2009);
          URL http://www.quantum-espresso.org", 
     in publications or presentations arising from this work. More details at
     http://www.quantum-espresso.org/quote

     Parallel version (MPI), running on     1 processors
     Waiting for input...
     Reading input from standard input
Warning: card  &IONS ignored
Warning: card  / ignored

     Current dimensions of program PWSCF are:
     Max number of different atomic species (ntypx) = 10
     Max number of k-points (npk) =  40000
     Max angular momentum in pseudopotentials (lmaxx) =  3

     Subspace diagonalization in iterative solution of the eigenvalue problem:
     a serial algorithm will be used

     Found symmetry operation: I + ( -0.5000  0.0000  0.0000)
     This is a supercell, fractional translations are disabled

     G-vector sticks info
     --------------------
     sticks:   dense  smooth     PW     G-vecs:    dense   smooth      PW
     Sum         749     749    221                32157    32157    5047



     bravais-lattice index     =            0
     lattice parameter (alat)  =      10.8223  a.u.
     unit-cell volume          =    2655.9358 (a.u.)^3
     number of atoms/cell      =            4
     number of atomic types    =            1
     number of electrons       =        12.00
     number of Kohn-Sham states=           10
     kinetic-energy cutoff     =      20.0000  Ry
     charge density cutoff     =      80.0000  Ry
     convergence threshold     =      1.0E-06
     mixing beta               =       0.3000
     number of iterations used =            8  plain     mixing
     Exchange-correlation      =  SLA  PW   PBE  PBE ( 1  4  3  4 0 0)

     Effective Screening Medium Method
     =================================
     Boundary Conditions: Metal-Slab-Metal
     grid points for fit at edges     =        4 


     celldm(1)=  10.822277  celldm(2)=   0.000000  celldm(3)=   0.000000
     celldm(4)=   0.000000  celldm(5)=   0.000000  celldm(6)=   0.000000

     crystal axes: (cart. coord. in units of alat)
               a(1) = (   1.000000   0.000000   0.000000 )  
               a(2) = (   0.000000   1.000000   0.000000 )  
               a(3) = (   0.000000   0.000000   2.095374 )  

     reciprocal axes: (cart. coord. in units 2 pi/alat)
               b(1) = (  1.000000  0.000000  0.000000 )  
               b(2) = (  0.000000  1.000000  0.000000 )  
               b(3) = (  0.000000  0.000000  0.477242 )  


     PseudoPot. # 1 for Al read from file:
     /Users/otani/espresso-5.2.0_20150714/pseudo/Al.pbe-n-van.UPF
     MD5 check sum: b11ded24487aef5bc42d5c7a2e22a7b6
     Pseudo is Ultrasoft + core correction, Zval =  3.0
     Generated by new atomic code, or converted to UPF format
     Using radial grid of  893 points,  2 beta functions with: 
                l(1) =   0
                l(2) =   1
     Q(r) pseudized with  8 coefficients,  rinner =    0.900   0.900   0.900


     atomic species   valence    mass     pseudopotential
        Al             3.00    26.98154     Al( 1.00)

     No symmetry found



   Cartesian axes

     site n.     atom                  positions (alat units)
         1           Al  tau(   1) = (   0.0000000   0.0000000   0.0000000  )
         2           Al  tau(   2) = (   0.5000000   0.0000000   0.0000000  )
         3           Al  tau(   3) = (   0.0000000   0.5000000   0.0000000  )
         4           Al  tau(   4) = (   0.5000000   0.5000000   0.0000000  )

     number of k points=    18  Methfessel-Paxton smearing, width (Ry)=  0.0300
                       cart. coord. in units 2pi/alat
        k(    1) = (   0.0833333   0.0833333   0.0000000), wk =   0.1111111
        k(    2) = (   0.0833333   0.2500000   0.0000000), wk =   0.1111111
        k(    3) = (   0.0833333   0.4166667   0.0000000), wk =   0.1111111
        k(    4) = (   0.0833333  -0.4166667   0.0000000), wk =   0.1111111
        k(    5) = (   0.0833333  -0.2500000   0.0000000), wk =   0.1111111
        k(    6) = (   0.0833333  -0.0833333   0.0000000), wk =   0.1111111
        k(    7) = (   0.2500000   0.0833333   0.0000000), wk =   0.1111111
        k(    8) = (   0.2500000   0.2500000   0.0000000), wk =   0.1111111
        k(    9) = (   0.2500000   0.4166667   0.0000000), wk =   0.1111111
        k(   10) = (   0.2500000  -0.4166667   0.0000000), wk =   0.1111111
        k(   11) = (   0.2500000  -0.2500000   0.0000000), wk =   0.1111111
        k(   12) = (   0.2500000  -0.0833333   0.0000000), wk =   0.1111111
        k(   13) = (   0.4166667   0.0833333   0.0000000), wk =   0.1111111
        k(   14) = (   0.4166667   0.2500000   0.0000000), wk =   0.1111111
        k(   15) = (   0.4166667   0.4166667   0.0000000), wk =   0.1111111
        k(   16) = (   0.4166667  -0.4166667   0.0000000), wk =   0.1111111
        k(   17) = (   0.4166667  -0.2500000   0.0000000), wk =   0.1111111
        k(   18) = (   0.4166667  -0.0833333   0.0000000), wk =   0.1111111

     Dense  grid:    32157 G-vectors     FFT dimensions: (  32,  32,  72)

     Largest allocated arrays     est. size (Mb)     dimensions
        Kohn-Sham Wavefunctions         0.61 Mb     (    4019,   10)
        NL pseudopotentials             0.98 Mb     (    4019,   16)
        Each V/rho on FFT grid          1.12 Mb     (   73728)
        Each G-vector array             0.25 Mb     (   32157)
        G-vector shells                 0.02 Mb     (    2110)
     Largest temporary arrays     est. size (Mb)     dimensions
        Auxiliary wavefunctions         2.45 Mb     (    4019,   40)
        Each subspace H/S matrix        0.02 Mb     (      40,   40)
        Each <psi_i|beta_j> matrix      0.00 Mb     (      16,   10)
        Arrays for rho mixing           9.00 Mb     (   73728,    8)

     Check: negative/imaginary core charge=   -0.000012    0.000000

     Initial potential from superposition of free atoms
     Check: negative starting charge=   -0.000169

     starting charge   11.99014, renormalised to   12.00000

     negative rho (up, down):  1.687E-04 0.000E+00
     Starting wfc are   16 randomized atomic wfcs

     total cpu time spent up to now is        0.9 secs

     Self-consistent Calculation

     iteration #  1     ecut=    20.00 Ry     beta=0.30
     Davidson diagonalization with overlap
     ethr =  1.00E-02,  avg # of iterations =  2.5

     Threshold (ethr) on eigenvalues was too large:
     Diagonalizing with lowered threshold

     Davidson diagonalization with overlap
     ethr =  3.59E-04,  avg # of iterations =  4.1

     negative rho (up, down):  9.416E-05 0.000E+00

     total cpu time spent up to now is        3.6 secs

     total energy              =     -49.52103426 Ry
     Harris-Foulkes estimate   =     -49.54045308 Ry
     estimated scf accuracy    <       0.07863728 Ry

     iteration #  2     ecut=    20.00 Ry     beta=0.30
     Davidson diagonalization with overlap
     ethr =  6.55E-04,  avg # of iterations =  1.0

     negative rho (up, down):  8.292E-06 0.000E+00

     total cpu time spent up to now is        4.6 secs

     total energy              =     -49.51178717 Ry
     Harris-Foulkes estimate   =     -49.52311166 Ry
     estimated scf accuracy    <       0.02686720 Ry

     iteration #  3     ecut=    20.00 Ry     beta=0.30
     Davidson diagonalization with overlap
     ethr =  2.24E-04,  avg # of iterations =  1.7

     negative rho (up, down):  8.834E-08 0.000E+00

     total cpu time spent up to now is        5.5 secs

     total energy              =     -49.51556872 Ry
     Harris-Foulkes estimate   =     -49.51579764 Ry
     estimated scf accuracy    <       0.00074460 Ry

     iteration #  4     ecut=    20.00 Ry     beta=0.30
     Davidson diagonalization with overlap
     ethr =  6.21E-06,  avg # of iterations =  6.0

     total cpu time spent up to now is        7.5 secs

     total energy              =     -49.51665290 Ry
     Harris-Foulkes estimate   =     -49.51665421 Ry
     estimated scf accuracy    <       0.00002479 Ry

     iteration #  5     ecut=    20.00 Ry     beta=0.30
     Davidson diagonalization with overlap
     ethr =  2.07E-07,  avg # of iterations =  5.2

     total cpu time spent up to now is        9.0 secs

     total energy              =     -49.51666893 Ry
     Harris-Foulkes estimate   =     -49.51666903 Ry
     estimated scf accuracy    <       0.00000983 Ry

     iteration #  6     ecut=    20.00 Ry     beta=0.30
     Davidson diagonalization with overlap
     ethr =  8.19E-08,  avg # of iterations =  2.7

     total cpu time spent up to now is       10.1 secs

     total energy              =     -49.51666877 Ry
     Harris-Foulkes estimate   =     -49.51667074 Ry
     estimated scf accuracy    <       0.00000305 Ry

     iteration #  7     ecut=    20.00 Ry     beta=0.30
     Davidson diagonalization with overlap
     ethr =  2.54E-08,  avg # of iterations =  1.8

     total cpu time spent up to now is       11.1 secs

     End of self-consistent calculation

          k = 0.0833 0.0833 0.0000 (  3999 PWs)   bands (ev):

   -11.3522  -7.7768  -7.7767  -6.0682  -6.0682  -5.3126  -4.2909  -3.4179
    -2.1248  -2.0771

          k = 0.0833 0.2500 0.0000 (  4011 PWs)   bands (ev):

   -11.1041  -8.9093  -7.5326  -5.8405  -5.3899  -5.0750  -4.4967  -3.9366
    -3.0075  -1.8462

          k = 0.0833 0.4167 0.0000 (  4016 PWs)   bands (ev):

   -10.6098  -9.8744  -7.0469  -6.3271  -5.3890  -4.7331  -4.6025  -3.9036
    -2.6616  -1.3879

          k = 0.0833-0.4167 0.0000 (  4016 PWs)   bands (ev):

   -10.6098  -9.8744  -7.0469  -6.3271  -5.3890  -4.7331  -4.6025  -3.9036
    -2.6618  -1.3880

          k = 0.0833-0.2500 0.0000 (  4011 PWs)   bands (ev):

   -11.1041  -8.9093  -7.5326  -5.8405  -5.3899  -5.0750  -4.4967  -3.9366
    -3.0074  -1.8462

          k = 0.0833-0.0833 0.0000 (  3999 PWs)   bands (ev):

   -11.3522  -7.7768  -7.7767  -6.0682  -6.0682  -5.3126  -4.2909  -3.4179
    -2.1247  -2.0771

          k = 0.2500 0.0833 0.0000 (  4011 PWs)   bands (ev):

   -11.1041  -8.9093  -7.5326  -5.8405  -5.3899  -5.0750  -4.4967  -3.9366
    -3.0074  -1.8463

          k = 0.2500 0.2500 0.0000 (  4007 PWs)   bands (ev):

   -10.8563  -8.6650  -8.6649  -6.5104  -4.8376  -4.2747  -4.2747  -2.9613
    -2.7735  -2.7735

          k = 0.2500 0.4167 0.0000 (  4019 PWs)   bands (ev):

   -10.3627  -9.6284  -8.1786  -7.4564  -4.3658  -3.8446  -3.6679  -3.2621
    -2.4619  -2.3078

          k = 0.2500-0.4167 0.0000 (  4019 PWs)   bands (ev):

   -10.3627  -9.6284  -8.1786  -7.4564  -4.3658  -3.8446  -3.6679  -3.2620
    -2.4620  -2.3078

          k = 0.2500-0.2500 0.0000 (  4007 PWs)   bands (ev):

   -10.8563  -8.6650  -8.6649  -6.5104  -4.8376  -4.2747  -4.2747  -2.9613
    -2.7736  -2.7735

          k = 0.2500-0.0833 0.0000 (  4011 PWs)   bands (ev):

   -11.1041  -8.9093  -7.5326  -5.8405  -5.3899  -5.0750  -4.4967  -3.9366
    -3.0075  -1.8462

          k = 0.4167 0.0833 0.0000 (  4016 PWs)   bands (ev):

   -10.6098  -9.8744  -7.0469  -6.3271  -5.3890  -4.7331  -4.6025  -3.9036
    -2.6618  -1.3879

          k = 0.4167 0.2500 0.0000 (  4019 PWs)   bands (ev):

   -10.3627  -9.6284  -8.1786  -7.4564  -4.3658  -3.8446  -3.6679  -3.2621
    -2.4620  -2.3078

          k = 0.4167 0.4167 0.0000 (  4005 PWs)   bands (ev):

    -9.8707  -9.1389  -9.1389  -8.4109  -3.8948  -3.1989  -3.1989  -2.5055
    -2.1140  -2.0500

          k = 0.4167-0.4167 0.0000 (  4005 PWs)   bands (ev):

    -9.8707  -9.1389  -9.1389  -8.4109  -3.8948  -3.1989  -3.1989  -2.5053
    -2.1140  -2.0500

          k = 0.4167-0.2500 0.0000 (  4019 PWs)   bands (ev):

   -10.3627  -9.6284  -8.1786  -7.4564  -4.3658  -3.8446  -3.6679  -3.2620
    -2.4620  -2.3078

          k = 0.4167-0.0833 0.0000 (  4016 PWs)   bands (ev):

   -10.6098  -9.8744  -7.0469  -6.3271  -5.3890  -4.7331  -4.6025  -3.9036
    -2.6616  -1.3880

     the Fermi energy is    -4.2514 ev

!    total energy              =     -49.51666941 Ry
     Harris-Foulkes estimate   =     -49.51666927 Ry
     estimated scf accuracy    <       0.00000004 Ry

     The total energy is the sum of the following terms:

     one-electron contribution =    -144.99459258 Ry
     hartree contribution      =      73.05691003 Ry
     xc contribution           =     -39.22068808 Ry
     ewald contribution        =      61.64192690 Ry
     smearing contrib. (-TS)   =      -0.00022568 Ry

     convergence has been achieved in   7 iterations

     Forces acting on atoms (Ry/au):

     atom    1 type  1   force =     0.00000033   -0.00000032    0.00000109
     atom    2 type  1   force =    -0.00000040   -0.00000003    0.00000238
     atom    3 type  1   force =     0.00000019    0.00000052    0.00000054
     atom    4 type  1   force =    -0.00000012   -0.00000016   -0.00000001

     Total force =     0.000003     Total SCF correction =     0.000008
     SCF correction compared to forces is large: reduce conv_thr to get better values

     Writing output data file Al001_bc2.save

     init_run     :      0.84s CPU      0.84s WALL (       1 calls)
     electrons    :     10.71s CPU     10.28s WALL (       1 calls)
     forces       :      0.22s CPU      0.23s WALL (       1 calls)

     Called by init_run:
     wfcinit      :      0.60s CPU      0.58s WALL (       1 calls)
     potinit      :      0.06s CPU      0.07s WALL (       1 calls)

     Called by electrons:
     c_bands      :      8.94s CPU      8.43s WALL (       8 calls)
     sum_band     :      1.36s CPU      1.37s WALL (       8 calls)
     v_of_rho     :      0.34s CPU      0.35s WALL (       8 calls)
     newd         :      0.07s CPU      0.09s WALL (       8 calls)
     mix_rho      :      0.04s CPU      0.07s WALL (       8 calls)

     Called by c_bands:
     init_us_2    :      0.20s CPU      0.20s WALL (     324 calls)
     cegterg      :      8.72s CPU      8.21s WALL (     144 calls)

     Called by sum_band:
     sum_band:bec :      0.00s CPU      0.00s WALL (     144 calls)
     addusdens    :      0.08s CPU      0.08s WALL (       8 calls)

     Called by *egterg:
     h_psi        :      7.19s CPU      7.07s WALL (     611 calls)
     s_psi        :      0.31s CPU      0.15s WALL (     611 calls)
     g_psi        :      0.09s CPU      0.09s WALL (     449 calls)
     cdiaghg      :      0.13s CPU      0.13s WALL (     575 calls)

     Called by h_psi:
     add_vuspsi   :      0.32s CPU      0.17s WALL (     611 calls)

     General routines
     calbec       :      0.32s CPU      0.32s WALL (     827 calls)
     fft          :      0.14s CPU      0.15s WALL (     119 calls)
     fftw         :      6.81s CPU      6.84s WALL (   10388 calls)
     davcio       :      0.00s CPU      0.01s WALL (      18 calls)

     Parallel routines
     fft_scatter  :      0.71s CPU      0.72s WALL (   10507 calls)

     PWSCF        :    11.84s CPU        11.51s WALL


   This run was terminated on:  23: 4:15  20Jul2015            

=------------------------------------------------------------------------------=
   JOB DONE.
=------------------------------------------------------------------------------=
