
     Program PWSCF v.5.2.0 starts on 20Jul2015 at 23: 5:33 

     This program is part of the open-source Quantum ESPRESSO suite
     for quantum simulation of materials; please cite
         "P. Giannozzi et al., J. Phys.:Condens. Matter 21 395502 (2009);
          URL http://www.quantum-espresso.org", 
     in publications or presentations arising from this work. More details at
     http://www.quantum-espresso.org/quote

     Parallel version (MPI), running on     1 processors
     Waiting for input...
     Reading input from standard input

     Current dimensions of program PWSCF are:
     Max number of different atomic species (ntypx) = 10
     Max number of k-points (npk) =  40000
     Max angular momentum in pseudopotentials (lmaxx) =  3

     Subspace diagonalization in iterative solution of the eigenvalue problem:
     a serial algorithm will be used

     Found symmetry operation: I + ( -0.5000  0.0000  0.0000)
     This is a supercell, fractional translations are disabled

     G-vector sticks info
     --------------------
     sticks:   dense  smooth     PW     G-vecs:    dense   smooth      PW
     Sum         749     749    221                32157    32157    5047



     bravais-lattice index     =            0
     lattice parameter (alat)  =      10.8223  a.u.
     unit-cell volume          =    2655.9358 (a.u.)^3
     number of atoms/cell      =            4
     number of atomic types    =            1
     number of electrons       =        12.00
     number of Kohn-Sham states=           10
     kinetic-energy cutoff     =      20.0000  Ry
     charge density cutoff     =      80.0000  Ry
     convergence threshold     =      1.0E-06
     mixing beta               =       0.3000
     number of iterations used =            8  plain     mixing
     Exchange-correlation      =  SLA  PW   PBE  PBE ( 1  4  3  4 0 0)
     nstep                     =           50


     Effective Screening Medium Method
     =================================
     Boundary Conditions: Vacuum-Slab-Metal
     grid points for fit at edges     =        4 

     -->FCP optimiser activated<--
     Target Fermi energy              =   -4.2528 eV
                                      =   -0.3126 Ry
     Initial tot_charge               =  0.000000
     FCP relax step                   =      0.50
     FCP force convergence threshold  =   1.4E-02 V
                                      =   1.0E-03 Ry

     celldm(1)=  10.822277  celldm(2)=   0.000000  celldm(3)=   0.000000
     celldm(4)=   0.000000  celldm(5)=   0.000000  celldm(6)=   0.000000

     crystal axes: (cart. coord. in units of alat)
               a(1) = (   1.000000   0.000000   0.000000 )  
               a(2) = (   0.000000   1.000000   0.000000 )  
               a(3) = (   0.000000   0.000000   2.095374 )  

     reciprocal axes: (cart. coord. in units 2 pi/alat)
               b(1) = (  1.000000  0.000000  0.000000 )  
               b(2) = (  0.000000  1.000000  0.000000 )  
               b(3) = (  0.000000  0.000000  0.477242 )  


     PseudoPot. # 1 for Al read from file:
     /Users/otani/espresso-5.2.0_20150714/pseudo/Al.pbe-n-van.UPF
     MD5 check sum: b11ded24487aef5bc42d5c7a2e22a7b6
     Pseudo is Ultrasoft + core correction, Zval =  3.0
     Generated by new atomic code, or converted to UPF format
     Using radial grid of  893 points,  2 beta functions with: 
                l(1) =   0
                l(2) =   1
     Q(r) pseudized with  8 coefficients,  rinner =    0.900   0.900   0.900


     atomic species   valence    mass     pseudopotential
        Al             3.00    26.98154     Al( 1.00)

     No symmetry found



   Cartesian axes

     site n.     atom                  positions (alat units)
         1           Al  tau(   1) = (   0.0000000   0.0000000   0.0000000  )
         2           Al  tau(   2) = (   0.5000000   0.0000000   0.0000000  )
         3           Al  tau(   3) = (   0.0000000   0.5000000   0.0000000  )
         4           Al  tau(   4) = (   0.5000000   0.5000000   0.0000000  )

     number of k points=    18  Methfessel-Paxton smearing, width (Ry)=  0.0300
                       cart. coord. in units 2pi/alat
        k(    1) = (   0.0833333   0.0833333   0.0000000), wk =   0.1111111
        k(    2) = (   0.0833333   0.2500000   0.0000000), wk =   0.1111111
        k(    3) = (   0.0833333   0.4166667   0.0000000), wk =   0.1111111
        k(    4) = (   0.0833333  -0.4166667   0.0000000), wk =   0.1111111
        k(    5) = (   0.0833333  -0.2500000   0.0000000), wk =   0.1111111
        k(    6) = (   0.0833333  -0.0833333   0.0000000), wk =   0.1111111
        k(    7) = (   0.2500000   0.0833333   0.0000000), wk =   0.1111111
        k(    8) = (   0.2500000   0.2500000   0.0000000), wk =   0.1111111
        k(    9) = (   0.2500000   0.4166667   0.0000000), wk =   0.1111111
        k(   10) = (   0.2500000  -0.4166667   0.0000000), wk =   0.1111111
        k(   11) = (   0.2500000  -0.2500000   0.0000000), wk =   0.1111111
        k(   12) = (   0.2500000  -0.0833333   0.0000000), wk =   0.1111111
        k(   13) = (   0.4166667   0.0833333   0.0000000), wk =   0.1111111
        k(   14) = (   0.4166667   0.2500000   0.0000000), wk =   0.1111111
        k(   15) = (   0.4166667   0.4166667   0.0000000), wk =   0.1111111
        k(   16) = (   0.4166667  -0.4166667   0.0000000), wk =   0.1111111
        k(   17) = (   0.4166667  -0.2500000   0.0000000), wk =   0.1111111
        k(   18) = (   0.4166667  -0.0833333   0.0000000), wk =   0.1111111

     Dense  grid:    32157 G-vectors     FFT dimensions: (  32,  32,  72)

     Largest allocated arrays     est. size (Mb)     dimensions
        Kohn-Sham Wavefunctions         0.61 Mb     (    4019,   10)
        NL pseudopotentials             0.98 Mb     (    4019,   16)
        Each V/rho on FFT grid          1.12 Mb     (   73728)
        Each G-vector array             0.25 Mb     (   32157)
        G-vector shells                 0.02 Mb     (    2110)
     Largest temporary arrays     est. size (Mb)     dimensions
        Auxiliary wavefunctions         2.45 Mb     (    4019,   40)
        Each subspace H/S matrix        0.02 Mb     (      40,   40)
        Each <psi_i|beta_j> matrix      0.00 Mb     (      16,   10)
        Arrays for rho mixing           9.00 Mb     (   73728,    8)

     Check: negative/imaginary core charge=   -0.000012    0.000000

     Initial potential from superposition of free atoms
     Check: negative starting charge=   -0.000169

     starting charge   11.99014, renormalised to   12.00000

     negative rho (up, down):  1.687E-04 0.000E+00
     Starting wfc are   16 randomized atomic wfcs

     total cpu time spent up to now is        0.9 secs

     Self-consistent Calculation

     iteration #  1     ecut=    20.00 Ry     beta=0.30
     Davidson diagonalization with overlap
     ethr =  1.00E-02,  avg # of iterations =  2.7

     Threshold (ethr) on eigenvalues was too large:
     Diagonalizing with lowered threshold

     Davidson diagonalization with overlap
     ethr =  1.98E-04,  avg # of iterations =  8.1

     negative rho (up, down):  9.255E-05 0.000E+00

     total cpu time spent up to now is        4.5 secs

     total energy              =     -49.52180273 Ry
     Harris-Foulkes estimate   =     -49.53865198 Ry
     estimated scf accuracy    <       0.06962059 Ry

     iteration #  2     ecut=    20.00 Ry     beta=0.30
     Davidson diagonalization with overlap
     ethr =  5.80E-04,  avg # of iterations =  1.0

     negative rho (up, down):  2.529E-06 0.000E+00

     total cpu time spent up to now is        5.4 secs

     total energy              =     -49.51174556 Ry
     Harris-Foulkes estimate   =     -49.52335279 Ry
     estimated scf accuracy    <       0.02656880 Ry

     iteration #  3     ecut=    20.00 Ry     beta=0.30
     Davidson diagonalization with overlap
     ethr =  2.21E-04,  avg # of iterations =  1.0

     total cpu time spent up to now is        6.4 secs

     total energy              =     -49.51476871 Ry
     Harris-Foulkes estimate   =     -49.51493697 Ry
     estimated scf accuracy    <       0.00050656 Ry

     iteration #  4     ecut=    20.00 Ry     beta=0.30
     Davidson diagonalization with overlap
     ethr =  4.22E-06,  avg # of iterations = 13.2

     total cpu time spent up to now is        9.5 secs

     total energy              =     -49.51663239 Ry
     Harris-Foulkes estimate   =     -49.51667201 Ry
     estimated scf accuracy    <       0.00012764 Ry

     iteration #  5     ecut=    20.00 Ry     beta=0.30
     Davidson diagonalization with overlap
     ethr =  1.06E-06,  avg # of iterations =  6.5

     total cpu time spent up to now is       11.1 secs

     total energy              =     -49.51661587 Ry
     Harris-Foulkes estimate   =     -49.51674480 Ry
     estimated scf accuracy    <       0.00021617 Ry

     iteration #  6     ecut=    20.00 Ry     beta=0.30
     Davidson diagonalization with overlap
     ethr =  1.06E-06,  avg # of iterations =  3.7

     total cpu time spent up to now is       12.4 secs

     total energy              =     -49.51664165 Ry
     Harris-Foulkes estimate   =     -49.51672817 Ry
     estimated scf accuracy    <       0.00017120 Ry

     iteration #  7     ecut=    20.00 Ry     beta=0.30
     Davidson diagonalization with overlap
     ethr =  1.06E-06,  avg # of iterations =  1.0

     total cpu time spent up to now is       13.3 secs

     total energy              =     -49.51666017 Ry
     Harris-Foulkes estimate   =     -49.51666036 Ry
     estimated scf accuracy    <       0.00000185 Ry

     iteration #  8     ecut=    20.00 Ry     beta=0.30
     Davidson diagonalization with overlap
     ethr =  1.54E-08,  avg # of iterations =  9.0

     total cpu time spent up to now is       15.6 secs

     End of self-consistent calculation

          k = 0.0833 0.0833 0.0000 (  3999 PWs)   bands (ev):

   -11.3520  -7.7765  -7.7765  -6.0680  -6.0680  -5.3118  -4.2907  -3.4177
    -2.1239  -2.0764

          k = 0.0833 0.2500 0.0000 (  4011 PWs)   bands (ev):

   -11.1038  -8.9091  -7.5323  -5.8403  -5.3897  -5.0742  -4.4965  -3.9364
    -3.0067  -1.8455

          k = 0.0833 0.4167 0.0000 (  4016 PWs)   bands (ev):

   -10.6096  -9.8742  -7.0466  -6.3269  -5.3888  -4.7329  -4.6017  -3.9027
    -2.6616  -1.3873

          k = 0.0833-0.4167 0.0000 (  4016 PWs)   bands (ev):

   -10.6096  -9.8742  -7.0466  -6.3269  -5.3888  -4.7329  -4.6017  -3.9027
    -2.6616  -1.3873

          k = 0.0833-0.2500 0.0000 (  4011 PWs)   bands (ev):

   -11.1038  -8.9091  -7.5323  -5.8403  -5.3897  -5.0742  -4.4965  -3.9364
    -3.0063  -1.8455

          k = 0.0833-0.0833 0.0000 (  3999 PWs)   bands (ev):

   -11.3520  -7.7765  -7.7765  -6.0680  -6.0680  -5.3118  -4.2907  -3.4177
    -2.1244  -2.0764

          k = 0.2500 0.0833 0.0000 (  4011 PWs)   bands (ev):

   -11.1038  -8.9091  -7.5323  -5.8403  -5.3897  -5.0742  -4.4965  -3.9364
    -3.0062  -1.8455

          k = 0.2500 0.2500 0.0000 (  4007 PWs)   bands (ev):

   -10.8561  -8.6647  -8.6647  -6.5101  -4.8368  -4.2745  -4.2745  -2.9611
    -2.7723  -2.7723

          k = 0.2500 0.4167 0.0000 (  4019 PWs)   bands (ev):

   -10.3625  -9.6282  -8.1783  -7.4562  -4.3650  -3.8442  -3.6670  -3.2616
    -2.4620  -2.3068

          k = 0.2500-0.4167 0.0000 (  4019 PWs)   bands (ev):

   -10.3625  -9.6282  -8.1783  -7.4562  -4.3650  -3.8441  -3.6670  -3.2619
    -2.4620  -2.3066

          k = 0.2500-0.2500 0.0000 (  4007 PWs)   bands (ev):

   -10.8561  -8.6647  -8.6647  -6.5101  -4.8368  -4.2745  -4.2745  -2.9611
    -2.7723  -2.7723

          k = 0.2500-0.0833 0.0000 (  4011 PWs)   bands (ev):

   -11.1038  -8.9091  -7.5323  -5.8403  -5.3897  -5.0742  -4.4965  -3.9364
    -3.0062  -1.8455

          k = 0.4167 0.0833 0.0000 (  4016 PWs)   bands (ev):

   -10.6096  -9.8742  -7.0466  -6.3269  -5.3888  -4.7329  -4.6017  -3.9027
    -2.6616  -1.3873

          k = 0.4167 0.2500 0.0000 (  4019 PWs)   bands (ev):

   -10.3625  -9.6282  -8.1783  -7.4562  -4.3650  -3.8442  -3.6670  -3.2616
    -2.4620  -2.3068

          k = 0.4167 0.4167 0.0000 (  4005 PWs)   bands (ev):

    -9.8705  -9.1387  -9.1387  -8.4107  -3.8940  -3.1980  -3.1979  -2.5045
    -2.1140  -2.0497

          k = 0.4167-0.4167 0.0000 (  4005 PWs)   bands (ev):

    -9.8705  -9.1387  -9.1387  -8.4107  -3.8940  -3.1980  -3.1980  -2.5044
    -2.1140  -2.0495

          k = 0.4167-0.2500 0.0000 (  4019 PWs)   bands (ev):

   -10.3625  -9.6282  -8.1783  -7.4562  -4.3650  -3.8443  -3.6670  -3.2616
    -2.4618  -2.3068

          k = 0.4167-0.0833 0.0000 (  4016 PWs)   bands (ev):

   -10.6096  -9.8742  -7.0466  -6.3269  -5.3888  -4.7329  -4.6017  -3.9028
    -2.6616  -1.3873

     the Fermi energy is    -4.2510 ev

!    total energy              =     -49.51666970 Ry
     Harris-Foulkes estimate   =     -49.51667036 Ry
     estimated scf accuracy    <       0.00000024 Ry

     The total energy is the sum of the following terms:

     one-electron contribution =    -320.17598202 Ry
     hartree contribution      =     160.64841375 Ry
     xc contribution           =     -39.22097273 Ry
     ewald contribution        =     149.23209722 Ry
     smearing contrib. (-TS)   =      -0.00022591 Ry
     pot.stat. contrib. (-muN) =      -0.00000000 Ry

     convergence has been achieved in   8 iterations

     Forces acting on atoms (Ry/au):

     atom    1 type  1   force =    -0.00000000   -0.00000009    0.00000070
     atom    2 type  1   force =     0.00000038    0.00000026   -0.00000040
     atom    3 type  1   force =    -0.00000090    0.00000072    0.00000182
     atom    4 type  1   force =     0.00000053   -0.00000088    0.00000034

     Total force =     0.000003     Total SCF correction =     0.000010
     SCF correction compared to forces is large: reduce conv_thr to get better values

     BFGS Geometry Optimization

     FCP Optimisation: Force acting on FCP =   -0.000130 Ry


     bfgs converged in   1 scf cycles and   0 bfgs steps
     (criteria: energy <  1.0E-04, force <  1.0E-03)

     End of BFGS Geometry Optimization

     Final energy   =     -49.5166696971 Ry

     FCP Optimisation : converged ( criteria force <  1.0E-03 )
     FCP Optimisation : tot_charge =    0.000000

Begin final coordinates

ATOMIC_POSITIONS (bohr)
Al       0.000000000   0.000000000   0.000000000
Al       5.411138430   0.000000000   0.000000000
Al       0.000000000   5.411138430   0.000000000
Al       5.411138430   5.411138430   0.000000000
End final coordinates



     Writing output data file Al001_bc3_v00.save

     init_run     :      0.85s CPU      0.84s WALL (       1 calls)
     electrons    :     15.78s CPU     14.79s WALL (       1 calls)
     forces       :      0.21s CPU      0.22s WALL (       1 calls)

     Called by init_run:
     wfcinit      :      0.61s CPU      0.59s WALL (       1 calls)
     potinit      :      0.06s CPU      0.07s WALL (       1 calls)

     Called by electrons:
     c_bands      :     13.80s CPU     12.73s WALL (       9 calls)
     sum_band     :      1.51s CPU      1.52s WALL (       9 calls)
     v_of_rho     :      0.37s CPU      0.39s WALL (       9 calls)
     newd         :      0.07s CPU      0.10s WALL (       9 calls)
     mix_rho      :      0.05s CPU      0.08s WALL (       9 calls)

     Called by c_bands:
     init_us_2    :      0.21s CPU      0.22s WALL (     360 calls)
     cegterg      :     13.57s CPU     12.49s WALL (     162 calls)

     Called by sum_band:
     sum_band:bec :      0.00s CPU      0.00s WALL (     162 calls)
     addusdens    :      0.09s CPU      0.09s WALL (       9 calls)

     Called by *egterg:
     h_psi        :     10.56s CPU     10.38s WALL (    1010 calls)
     s_psi        :      0.47s CPU      0.24s WALL (    1010 calls)
     g_psi        :      0.15s CPU      0.15s WALL (     830 calls)
     cdiaghg      :      0.26s CPU      0.26s WALL (     974 calls)

     Called by h_psi:
     add_vuspsi   :      0.49s CPU      0.27s WALL (    1010 calls)

     General routines
     calbec       :      0.44s CPU      0.44s WALL (    1244 calls)
     fft          :      0.16s CPU      0.16s WALL (     132 calls)
     fftw         :      9.66s CPU      9.70s WALL (   14844 calls)
     davcio       :      0.00s CPU      0.02s WALL (      18 calls)

     Parallel routines
     fft_scatter  :      0.99s CPU      1.00s WALL (   14976 calls)

     PWSCF        :    16.90s CPU        16.03s WALL


   This run was terminated on:  23: 5:49  20Jul2015            

=------------------------------------------------------------------------------=
   JOB DONE.
=------------------------------------------------------------------------------=
