
     Program PWSCF v.6.1 (svn rev. 13369) starts on 19Aug2017 at  2:57: 0 

     This program is part of the open-source Quantum ESPRESSO suite
     for quantum simulation of materials; please cite
         "P. Giannozzi et al., J. Phys.:Condens. Matter 21 395502 (2009);
          URL http://www.quantum-espresso.org", 
     in publications or presentations arising from this work. More details at
     http://www.quantum-espresso.org/quote

     Parallel version (MPI), running on     2 processors
     R & G space division:  proc/nbgrp/npool/nimage =       2
     Waiting for input...
     Reading input from standard input

     Current dimensions of program PWSCF are:
     Max number of different atomic species (ntypx) = 10
     Max number of k-points (npk) =  40000
     Max angular momentum in pseudopotentials (lmaxx) =  3

     Subspace diagonalization in iterative solution of the eigenvalue problem:
     a serial algorithm will be used

     Found symmetry operation: I + ( -0.5000  0.0000  0.0000)
     This is a supercell, fractional translations are disabled

     Parallelization info
     --------------------
     sticks:   dense  smooth     PW     G-vecs:    dense   smooth      PW
     Min         374     374    110                16076    16076    2523
     Max         375     375    111                16081    16081    2524
     Sum         749     749    221                32157    32157    5047



     bravais-lattice index     =            0
     lattice parameter (alat)  =      10.8223  a.u.
     unit-cell volume          =    2655.9321 (a.u.)^3
     number of atoms/cell      =            4
     number of atomic types    =            1
     number of electrons       =        12.00
     number of Kohn-Sham states=           10
     kinetic-energy cutoff     =      20.0000  Ry
     charge density cutoff     =      80.0000  Ry
     convergence threshold     =      1.0E-06
     mixing beta               =       0.3000
     number of iterations used =            8  plain     mixing
     Exchange-correlation      =  SLA  PW   PBE  PBE ( 1  4  3  4 0 0)

     Effective Screening Medium Method
     =================================
     Boundary Conditions: Vacuum-Slab-Vacuum
     grid points for fit at edges     =        4 


     celldm(1)=  10.822273  celldm(2)=   0.000000  celldm(3)=   0.000000
     celldm(4)=   0.000000  celldm(5)=   0.000000  celldm(6)=   0.000000

     crystal axes: (cart. coord. in units of alat)
               a(1) = (   1.000000   0.000000   0.000000 )  
               a(2) = (   0.000000   1.000000   0.000000 )  
               a(3) = (   0.000000   0.000000   2.095374 )  

     reciprocal axes: (cart. coord. in units 2 pi/alat)
               b(1) = (  1.000000  0.000000  0.000000 )  
               b(2) = (  0.000000  1.000000  0.000000 )  
               b(3) = (  0.000000  0.000000  0.477242 )  


     PseudoPot. # 1 for Al read from file:
     /Users/otani/ESPRESSO/qe-6.1_printpot/pseudo/Al.pbe-n-van.UPF
     MD5 check sum: b11ded24487aef5bc42d5c7a2e22a7b6
     Pseudo is Ultrasoft + core correction, Zval =  3.0
     Generated by new atomic code, or converted to UPF format
     Using radial grid of  893 points,  2 beta functions with: 
                l(1) =   0
                l(2) =   1
     Q(r) pseudized with  8 coefficients,  rinner =    0.900   0.900   0.900


     atomic species   valence    mass     pseudopotential
        Al             3.00    26.98154     Al( 1.00)

     No symmetry found



   Cartesian axes

     site n.     atom                  positions (alat units)
         1           Al  tau(   1) = (   0.0000000   0.0000000   0.0000000  )
         2           Al  tau(   2) = (   0.5000000   0.0000000   0.0000000  )
         3           Al  tau(   3) = (   0.0000000   0.5000000   0.0000000  )
         4           Al  tau(   4) = (   0.5000000   0.5000000   0.0000000  )

     number of k points=    18  Methfessel-Paxton smearing, width (Ry)=  0.0300
                       cart. coord. in units 2pi/alat
        k(    1) = (   0.0833333   0.0833333   0.0000000), wk =   0.1111111
        k(    2) = (   0.0833333   0.2500000   0.0000000), wk =   0.1111111
        k(    3) = (   0.0833333   0.4166667   0.0000000), wk =   0.1111111
        k(    4) = (   0.0833333  -0.4166667   0.0000000), wk =   0.1111111
        k(    5) = (   0.0833333  -0.2500000   0.0000000), wk =   0.1111111
        k(    6) = (   0.0833333  -0.0833333   0.0000000), wk =   0.1111111
        k(    7) = (   0.2500000   0.0833333   0.0000000), wk =   0.1111111
        k(    8) = (   0.2500000   0.2500000   0.0000000), wk =   0.1111111
        k(    9) = (   0.2500000   0.4166667   0.0000000), wk =   0.1111111
        k(   10) = (   0.2500000  -0.4166667   0.0000000), wk =   0.1111111
        k(   11) = (   0.2500000  -0.2500000   0.0000000), wk =   0.1111111
        k(   12) = (   0.2500000  -0.0833333   0.0000000), wk =   0.1111111
        k(   13) = (   0.4166667   0.0833333   0.0000000), wk =   0.1111111
        k(   14) = (   0.4166667   0.2500000   0.0000000), wk =   0.1111111
        k(   15) = (   0.4166667   0.4166667   0.0000000), wk =   0.1111111
        k(   16) = (   0.4166667  -0.4166667   0.0000000), wk =   0.1111111
        k(   17) = (   0.4166667  -0.2500000   0.0000000), wk =   0.1111111
        k(   18) = (   0.4166667  -0.0833333   0.0000000), wk =   0.1111111

     Dense  grid:    32157 G-vectors     FFT dimensions: (  32,  32,  72)

     Estimated max dynamical RAM per process >      17.78MB

     Estimated total allocated dynamical RAM >      35.55MB

     Check: negative/imaginary core charge=   -0.000012    0.000000

     Initial potential from superposition of free atoms
     Check: negative starting charge=   -0.000169

     starting charge   11.99014, renormalised to   12.00000

     negative rho (up, down):  1.687E-04 0.000E+00
     Starting wfc are   16 randomized atomic wfcs

     total cpu time spent up to now is        0.4 secs

     Self-consistent Calculation

     iteration #  1     ecut=    20.00 Ry     beta=0.30
     Davidson diagonalization with overlap
     ethr =  1.00E-02,  avg # of iterations =  2.8

     Threshold (ethr) on eigenvalues was too large:
     Diagonalizing with lowered threshold

     Davidson diagonalization with overlap
     ethr =  3.54E-04,  avg # of iterations =  4.1

     negative rho (up, down):  9.308E-05 0.000E+00

     total cpu time spent up to now is        1.4 secs

     total energy              =     -49.52112428 Ry
     Harris-Foulkes estimate   =     -49.54025196 Ry
     estimated scf accuracy    <       0.07753872 Ry

     iteration #  2     ecut=    20.00 Ry     beta=0.30
     Davidson diagonalization with overlap
     ethr =  6.46E-04,  avg # of iterations =  1.0

     negative rho (up, down):  8.434E-06 0.000E+00

     total cpu time spent up to now is        1.7 secs

     total energy              =     -49.51158746 Ry
     Harris-Foulkes estimate   =     -49.52311416 Ry
     estimated scf accuracy    <       0.02707813 Ry

     iteration #  3     ecut=    20.00 Ry     beta=0.30
     Davidson diagonalization with overlap
     ethr =  2.26E-04,  avg # of iterations =  1.7

     negative rho (up, down):  4.004E-07 0.000E+00

     total cpu time spent up to now is        2.1 secs

     total energy              =     -49.51550234 Ry
     Harris-Foulkes estimate   =     -49.51574072 Ry
     estimated scf accuracy    <       0.00078376 Ry

     iteration #  4     ecut=    20.00 Ry     beta=0.30
     Davidson diagonalization with overlap
     ethr =  6.53E-06,  avg # of iterations =  5.6

     negative rho (up, down):  5.054E-08 0.000E+00

     total cpu time spent up to now is        2.8 secs

     total energy              =     -49.51664634 Ry
     Harris-Foulkes estimate   =     -49.51665533 Ry
     estimated scf accuracy    <       0.00003800 Ry

     iteration #  5     ecut=    20.00 Ry     beta=0.30
     Davidson diagonalization with overlap
     ethr =  3.17E-07,  avg # of iterations =  4.8

     total cpu time spent up to now is        3.4 secs

     total energy              =     -49.51667048 Ry
     Harris-Foulkes estimate   =     -49.51666797 Ry
     estimated scf accuracy    <       0.00000432 Ry

     iteration #  6     ecut=    20.00 Ry     beta=0.30
     Davidson diagonalization with overlap
     ethr =  3.60E-08,  avg # of iterations =  3.3

     total cpu time spent up to now is        3.9 secs

     total energy              =     -49.51666767 Ry
     Harris-Foulkes estimate   =     -49.51667319 Ry
     estimated scf accuracy    <       0.00001105 Ry

     iteration #  7     ecut=    20.00 Ry     beta=0.30
     Davidson diagonalization with overlap
     ethr =  3.60E-08,  avg # of iterations =  3.0

     total cpu time spent up to now is        4.3 secs

     total energy              =     -49.51666951 Ry
     Harris-Foulkes estimate   =     -49.51667043 Ry
     estimated scf accuracy    <       0.00000170 Ry

     iteration #  8     ecut=    20.00 Ry     beta=0.30
     Davidson diagonalization with overlap
     ethr =  1.42E-08,  avg # of iterations =  1.3

     total cpu time spent up to now is        4.6 secs

     End of self-consistent calculation

          k = 0.0833 0.0833 0.0000 (  3999 PWs)   bands (ev):

   -11.3515  -7.7760  -7.7760  -6.0675  -6.0675  -5.3119  -4.2902  -3.4173
    -2.1239  -2.0765

          k = 0.0833 0.2500 0.0000 (  4011 PWs)   bands (ev):

   -11.1034  -8.9086  -7.5318  -5.8398  -5.3892  -5.0742  -4.4960  -3.9359
    -3.0068  -1.8455

          k = 0.0833 0.4167 0.0000 (  4016 PWs)   bands (ev):

   -10.6091  -9.8737  -7.0462  -6.3264  -5.3883  -4.7324  -4.6017  -3.9028
    -2.6611  -1.3873

          k = 0.0833-0.4167 0.0000 (  4016 PWs)   bands (ev):

   -10.6091  -9.8737  -7.0462  -6.3264  -5.3883  -4.7324  -4.6017  -3.9028
    -2.6611  -1.3874

          k = 0.0833-0.2500 0.0000 (  4011 PWs)   bands (ev):

   -11.1034  -8.9086  -7.5318  -5.8398  -5.3892  -5.0742  -4.4960  -3.9359
    -3.0068  -1.8455

          k = 0.0833-0.0833 0.0000 (  3999 PWs)   bands (ev):

   -11.3515  -7.7760  -7.7760  -6.0675  -6.0675  -5.3119  -4.2902  -3.4173
    -2.1238  -2.0764

          k = 0.2500 0.0833 0.0000 (  4011 PWs)   bands (ev):

   -11.1034  -8.9086  -7.5318  -5.8398  -5.3892  -5.0742  -4.4960  -3.9359
    -3.0068  -1.8456

          k = 0.2500 0.2500 0.0000 (  4007 PWs)   bands (ev):

   -10.8556  -8.6643  -8.6642  -6.5096  -4.8368  -4.2740  -4.2740  -2.9606
    -2.7728  -2.7728

          k = 0.2500 0.4167 0.0000 (  4019 PWs)   bands (ev):

   -10.3620  -9.6277  -8.1778  -7.4557  -4.3651  -3.8439  -3.6672  -3.2614
    -2.4614  -2.3071

          k = 0.2500-0.4167 0.0000 (  4019 PWs)   bands (ev):

   -10.3620  -9.6277  -8.1778  -7.4557  -4.3651  -3.8439  -3.6672  -3.2614
    -2.4614  -2.3071

          k = 0.2500-0.2500 0.0000 (  4007 PWs)   bands (ev):

   -10.8556  -8.6642  -8.6642  -6.5096  -4.8368  -4.2740  -4.2740  -2.9606
    -2.7728  -2.7728

          k = 0.2500-0.0833 0.0000 (  4011 PWs)   bands (ev):

   -11.1034  -8.9086  -7.5318  -5.8398  -5.3892  -5.0742  -4.4960  -3.9359
    -3.0068  -1.8455

          k = 0.4167 0.0833 0.0000 (  4016 PWs)   bands (ev):

   -10.6091  -9.8737  -7.0462  -6.3264  -5.3883  -4.7324  -4.6017  -3.9028
    -2.6611  -1.3874

          k = 0.4167 0.2500 0.0000 (  4019 PWs)   bands (ev):

   -10.3620  -9.6277  -8.1778  -7.4557  -4.3651  -3.8439  -3.6672  -3.2614
    -2.4614  -2.3070

          k = 0.4167 0.4167 0.0000 (  4005 PWs)   bands (ev):

    -9.8700  -9.1382  -9.1382  -8.4102  -3.8941  -3.1981  -3.1981  -2.5045
    -2.1134  -2.0495

          k = 0.4167-0.4167 0.0000 (  4005 PWs)   bands (ev):

    -9.8700  -9.1382  -9.1382  -8.4102  -3.8941  -3.1981  -3.1981  -2.5046
    -2.1134  -2.0493

          k = 0.4167-0.2500 0.0000 (  4019 PWs)   bands (ev):

   -10.3620  -9.6277  -8.1778  -7.4557  -4.3651  -3.8439  -3.6672  -3.2614
    -2.4614  -2.3071

          k = 0.4167-0.0833 0.0000 (  4016 PWs)   bands (ev):

   -10.6091  -9.8737  -7.0462  -6.3264  -5.3883  -4.7324  -4.6017  -3.9028
    -2.6611  -1.3873

     the Fermi energy is    -4.2507 ev

!    total energy              =     -49.51666980 Ry
     Harris-Foulkes estimate   =     -49.51666975 Ry
     estimated scf accuracy    <       0.00000002 Ry

     The total energy is the sum of the following terms:

     one-electron contribution =      30.18612646 Ry
     hartree contribution      =     -14.53364081 Ry
     xc contribution           =     -39.22067633 Ry
     ewald contribution        =     -25.94825331 Ry
     smearing contrib. (-TS)   =      -0.00022582 Ry

     convergence has been achieved in   8 iterations

     Forces acting on atoms (cartesian axes, Ry/au):

     atom    1 type  1   force =     0.00000092   -0.00000108    0.00000102
     atom    2 type  1   force =    -0.00000086   -0.00000140    0.00000114
     atom    3 type  1   force =    -0.00000019    0.00000112    0.00000155
     atom    4 type  1   force =     0.00000013    0.00000136    0.00000216

     Total force =     0.000004     Total SCF correction =     0.000008
     SCF correction compared to forces is large: reduce conv_thr to get better values

     Writing output data file Al001_bc1.save

     init_run     :      0.39s CPU      0.38s WALL (       1 calls)
     electrons    :      4.87s CPU      4.24s WALL (       1 calls)
     forces       :      0.11s CPU      0.11s WALL (       1 calls)

     Called by init_run:
     wfcinit      :      0.25s CPU      0.24s WALL (       1 calls)
     potinit      :      0.04s CPU      0.04s WALL (       1 calls)

     Called by electrons:
     c_bands      :      4.17s CPU      3.51s WALL (       9 calls)
     sum_band     :      0.50s CPU      0.51s WALL (       9 calls)
     v_of_rho     :      0.15s CPU      0.16s WALL (       9 calls)
     newd         :      0.04s CPU      0.05s WALL (       9 calls)
     mix_rho      :      0.02s CPU      0.03s WALL (       9 calls)

     Called by c_bands:
     init_us_2    :      0.09s CPU      0.09s WALL (     360 calls)
     cegterg      :      4.07s CPU      3.40s WALL (     162 calls)

     Called by sum_band:
     sum_band:bec :      0.00s CPU      0.00s WALL (     162 calls)
     addusdens    :      0.04s CPU      0.04s WALL (       9 calls)

     Called by *egterg:
     h_psi        :      2.81s CPU      2.68s WALL (     675 calls)
     s_psi        :      0.25s CPU      0.09s WALL (     675 calls)
     g_psi        :      0.03s CPU      0.03s WALL (     495 calls)
     cdiaghg      :      0.12s CPU      0.12s WALL (     639 calls)

     Called by h_psi:
     h_psi:pot    :      2.76s CPU      2.64s WALL (     675 calls)
     h_psi:calbec :      0.15s CPU      0.15s WALL (     675 calls)
     vloc_psi     :      2.36s CPU      2.39s WALL (     675 calls)
     add_vuspsi   :      0.26s CPU      0.09s WALL (     675 calls)

     General routines
     calbec       :      0.21s CPU      0.21s WALL (     909 calls)
     fft          :      0.06s CPU      0.06s WALL (     132 calls)
     fftw         :      2.30s CPU      2.33s WALL (   11814 calls)
     davcio       :      0.00s CPU      0.00s WALL (      18 calls)

     Parallel routines
     fft_scatter  :      0.70s CPU      0.71s WALL (   11946 calls)

     PWSCF        :     5.41s CPU         4.80s WALL


   This run was terminated on:   2:57: 5  19Aug2017            

=------------------------------------------------------------------------------=
   JOB DONE.
=------------------------------------------------------------------------------=
