
     Program PWSCF v.6.beta (svn rev. 12992:12993) starts on 21Sep2016 at 16: 5:32 

     This program is part of the open-source Quantum ESPRESSO suite
     for quantum simulation of materials; please cite
         "P. Giannozzi et al., J. Phys.:Condens. Matter 21 395502 (2009);
          URL http://www.quantum-espresso.org", 
     in publications or presentations arising from this work. More details at
     http://www.quantum-espresso.org/quote

           HOST :    @host@
           ARCH :    x86_64
             CC :    cc
            CPP :    cpp
            F90 :    mpif90
            F77 :    gfortran
         DFLAGS :    -D__GFORTRAN -D__STD_F95 -D__FFTW -D__MPI
      BLAS LIBS :    
    LAPACK LIBS :    $(TOPDIR)/LAPACK/liblapack.a $(TOPDIR)/LAPACK/libblas.a
       FFT LIBS :    
      MASS LIBS :    

     Parallel version (MPI), running on     1 processors
     Waiting for input...
     Reading input from standard input

     Current dimensions of program PWSCF are:
     Max number of different atomic species (ntypx) = 10
     Max number of k-points (npk) =  40000
     Max angular momentum in pseudopotentials (lmaxx) =  3

     Subspace diagonalization in iterative solution of the eigenvalue problem:
     a serial algorithm will be used

     Found symmetry operation: I + ( -0.5000  0.0000  0.0000)
     This is a supercell, fractional translations are disabled

     G-vector sticks info
     --------------------
     sticks:   dense  smooth     PW     G-vecs:    dense   smooth      PW
     Sum         749     749    221                32157    32157    5047



     bravais-lattice index     =            0
     lattice parameter (alat)  =      10.8223  a.u.
     unit-cell volume          =    2655.9358 (a.u.)^3
     number of atoms/cell      =            4
     number of atomic types    =            1
     number of electrons       =        12.00
     number of Kohn-Sham states=           10
     kinetic-energy cutoff     =      20.0000  Ry
     charge density cutoff     =      80.0000  Ry
     convergence threshold     =      1.0E-06
     mixing beta               =       0.3000
     number of iterations used =            8  plain     mixing
     Exchange-correlation      =  SLA  PW   PBE  PBE ( 1  4  3  4 0 0)
     nstep                     =           50


     Effective Screening Medium Method
     =================================
     Boundary Conditions: Vacuum-Slab-Metal
     grid points for fit at edges     =        4 

     -->FCP optimiser activated<--
     Target Fermi energy              =   -3.7526 eV
                                      =   -0.2758 Ry
     Initial tot_charge               =  0.000000
     FCP relax step                   =      0.50
     FCP force convergence threshold  =   1.4E-02 V
                                      =   1.0E-03 Ry

     celldm(1)=  10.822277  celldm(2)=   0.000000  celldm(3)=   0.000000
     celldm(4)=   0.000000  celldm(5)=   0.000000  celldm(6)=   0.000000

     crystal axes: (cart. coord. in units of alat)
               a(1) = (   1.000000   0.000000   0.000000 )  
               a(2) = (   0.000000   1.000000   0.000000 )  
               a(3) = (   0.000000   0.000000   2.095374 )  

     reciprocal axes: (cart. coord. in units 2 pi/alat)
               b(1) = (  1.000000  0.000000  0.000000 )  
               b(2) = (  0.000000  1.000000  0.000000 )  
               b(3) = (  0.000000  0.000000  0.477242 )  


     PseudoPot. # 1 for Al read from file:
     /home/pietro/trunk/espresso/pseudo/Al.pbe-n-van.UPF
     MD5 check sum: b11ded24487aef5bc42d5c7a2e22a7b6
     Pseudo is Ultrasoft + core correction, Zval =  3.0
     Generated by new atomic code, or converted to UPF format
     Using radial grid of  893 points,  2 beta functions with: 
                l(1) =   0
                l(2) =   1
     Q(r) pseudized with  8 coefficients,  rinner =    0.900   0.900   0.900


     atomic species   valence    mass     pseudopotential
        Al             3.00    26.98154     Al( 1.00)

     No symmetry found



   Cartesian axes

     site n.     atom                  positions (alat units)
         1           Al  tau(   1) = (   0.0000000   0.0000000   0.0000000  )
         2           Al  tau(   2) = (   0.5000000   0.0000000   0.0000000  )
         3           Al  tau(   3) = (   0.0000000   0.5000000   0.0000000  )
         4           Al  tau(   4) = (   0.5000000   0.5000000   0.0000000  )

     number of k points=    18  Marzari-Vanderbilt smearing, width (Ry)=  0.0300
                       cart. coord. in units 2pi/alat
        k(    1) = (   0.0833333   0.0833333   0.0000000), wk =   0.1111111
        k(    2) = (   0.0833333   0.2500000   0.0000000), wk =   0.1111111
        k(    3) = (   0.0833333   0.4166667   0.0000000), wk =   0.1111111
        k(    4) = (   0.0833333  -0.4166667   0.0000000), wk =   0.1111111
        k(    5) = (   0.0833333  -0.2500000   0.0000000), wk =   0.1111111
        k(    6) = (   0.0833333  -0.0833333   0.0000000), wk =   0.1111111
        k(    7) = (   0.2500000   0.0833333   0.0000000), wk =   0.1111111
        k(    8) = (   0.2500000   0.2500000   0.0000000), wk =   0.1111111
        k(    9) = (   0.2500000   0.4166667   0.0000000), wk =   0.1111111
        k(   10) = (   0.2500000  -0.4166667   0.0000000), wk =   0.1111111
        k(   11) = (   0.2500000  -0.2500000   0.0000000), wk =   0.1111111
        k(   12) = (   0.2500000  -0.0833333   0.0000000), wk =   0.1111111
        k(   13) = (   0.4166667   0.0833333   0.0000000), wk =   0.1111111
        k(   14) = (   0.4166667   0.2500000   0.0000000), wk =   0.1111111
        k(   15) = (   0.4166667   0.4166667   0.0000000), wk =   0.1111111
        k(   16) = (   0.4166667  -0.4166667   0.0000000), wk =   0.1111111
        k(   17) = (   0.4166667  -0.2500000   0.0000000), wk =   0.1111111
        k(   18) = (   0.4166667  -0.0833333   0.0000000), wk =   0.1111111

     Dense  grid:    32157 G-vectors     FFT dimensions: (  32,  32,  72)

     Estimated max dynamical RAM per process >      35.50Mb

     Check: negative/imaginary core charge=   -0.000012    0.000000

     Initial potential from superposition of free atoms
     Check: negative starting charge=   -0.000169

     starting charge   11.99014, renormalised to   12.00000

     negative rho (up, down):  1.687E-04 0.000E+00
     Starting wfc are   16 randomized atomic wfcs

     total cpu time spent up to now is        1.2 secs

     per-process dynamical memory:    29.4 Mb

     Self-consistent Calculation

     iteration #  1     ecut=    20.00 Ry     beta=0.30
     Davidson diagonalization with overlap
     ethr =  1.00E-02,  avg # of iterations =  2.7

     Threshold (ethr) on eigenvalues was too large:
     Diagonalizing with lowered threshold

     Davidson diagonalization with overlap
     ethr =  2.02E-04,  avg # of iterations =  7.7

     negative rho (up, down):  9.183E-05 0.000E+00

     total cpu time spent up to now is        5.9 secs

     total energy              =     -49.52172463 Ry
     Harris-Foulkes estimate   =     -49.53851829 Ry
     estimated scf accuracy    <       0.06955917 Ry

     iteration #  2     ecut=    20.00 Ry     beta=0.30
     Davidson diagonalization with overlap
     ethr =  5.80E-04,  avg # of iterations =  1.0

     negative rho (up, down):  2.654E-06 0.000E+00

     total cpu time spent up to now is        7.1 secs

     total energy              =     -49.51194538 Ry
     Harris-Foulkes estimate   =     -49.52332580 Ry
     estimated scf accuracy    <       0.02628613 Ry

     iteration #  3     ecut=    20.00 Ry     beta=0.30
     Davidson diagonalization with overlap
     ethr =  2.19E-04,  avg # of iterations =  1.4

     negative rho (up, down):  1.027E-08 0.000E+00

     total cpu time spent up to now is        8.3 secs

     total energy              =     -49.51502404 Ry
     Harris-Foulkes estimate   =     -49.51522114 Ry
     estimated scf accuracy    <       0.00058279 Ry

     iteration #  4     ecut=    20.00 Ry     beta=0.30
     Davidson diagonalization with overlap
     ethr =  4.86E-06,  avg # of iterations = 13.0

     total cpu time spent up to now is       12.5 secs

     total energy              =     -49.51683347 Ry
     Harris-Foulkes estimate   =     -49.51683255 Ry
     estimated scf accuracy    <       0.00002747 Ry

     iteration #  5     ecut=    20.00 Ry     beta=0.30
     Davidson diagonalization with overlap
     ethr =  2.29E-07,  avg # of iterations =  8.7

     total cpu time spent up to now is       15.5 secs

     total energy              =     -49.51687681 Ry
     Harris-Foulkes estimate   =     -49.51688951 Ry
     estimated scf accuracy    <       0.00002164 Ry

     iteration #  6     ecut=    20.00 Ry     beta=0.30
     Davidson diagonalization with overlap
     ethr =  1.80E-07,  avg # of iterations =  4.6

     total cpu time spent up to now is       17.6 secs

     total energy              =     -49.51686640 Ry
     Harris-Foulkes estimate   =     -49.51690355 Ry
     estimated scf accuracy    <       0.00006322 Ry

     iteration #  7     ecut=    20.00 Ry     beta=0.30
     Davidson diagonalization with overlap
     ethr =  1.80E-07,  avg # of iterations =  3.4

     total cpu time spent up to now is       19.4 secs

     total energy              =     -49.51687973 Ry
     Harris-Foulkes estimate   =     -49.51688721 Ry
     estimated scf accuracy    <       0.00001854 Ry

     iteration #  8     ecut=    20.00 Ry     beta=0.30
     Davidson diagonalization with overlap
     ethr =  1.55E-07,  avg # of iterations =  1.0

     total cpu time spent up to now is       20.6 secs

     End of self-consistent calculation

          k = 0.0833 0.0833 0.0000 (  3999 PWs)   bands (ev):

   -11.3709  -7.7953  -7.7953  -6.0873  -6.0873  -5.3255  -4.3099  -3.4374
    -2.1419  -2.0904

          k = 0.0833 0.2500 0.0000 (  4011 PWs)   bands (ev):

   -11.1228  -8.9280  -7.5512  -5.8595  -5.4087  -5.0878  -4.5157  -3.9558
    -3.0203  -1.8596

          k = 0.0833 0.4167 0.0000 (  4016 PWs)   bands (ev):

   -10.6285  -9.8931  -7.0655  -6.3458  -5.4081  -4.7522  -4.6154  -3.9165
    -2.6809  -1.4014

          k = 0.0833-0.4167 0.0000 (  4016 PWs)   bands (ev):

   -10.6285  -9.8931  -7.0655  -6.3458  -5.4081  -4.7522  -4.6154  -3.9165
    -2.6809  -1.4014

          k = 0.0833-0.2500 0.0000 (  4011 PWs)   bands (ev):

   -11.1228  -8.9280  -7.5512  -5.8595  -5.4087  -5.0878  -4.5157  -3.9558
    -3.0201  -1.8596

          k = 0.0833-0.0833 0.0000 (  3999 PWs)   bands (ev):

   -11.3709  -7.7953  -7.7953  -6.0873  -6.0873  -5.3255  -4.3099  -3.4374
    -2.1422  -2.0904

          k = 0.2500 0.0833 0.0000 (  4011 PWs)   bands (ev):

   -11.1228  -8.9280  -7.5512  -5.8595  -5.4087  -5.0878  -4.5157  -3.9558
    -3.0202  -1.8595

          k = 0.2500 0.2500 0.0000 (  4007 PWs)   bands (ev):

   -10.8750  -8.6836  -8.6836  -6.5291  -4.8505  -4.2937  -4.2937  -2.9807
    -2.7861  -2.7861

          k = 0.2500 0.4167 0.0000 (  4019 PWs)   bands (ev):

   -10.3814  -9.6471  -8.1972  -7.4751  -4.3787  -3.8637  -3.6807  -3.2809
    -2.4809  -2.3206

          k = 0.2500-0.4167 0.0000 (  4019 PWs)   bands (ev):

   -10.3814  -9.6471  -8.1972  -7.4751  -4.3787  -3.8637  -3.6808  -3.2809
    -2.4811  -2.3206

          k = 0.2500-0.2500 0.0000 (  4007 PWs)   bands (ev):

   -10.8750  -8.6836  -8.6836  -6.5291  -4.8505  -4.2937  -4.2937  -2.9808
    -2.7863  -2.7863

          k = 0.2500-0.0833 0.0000 (  4011 PWs)   bands (ev):

   -11.1228  -8.9280  -7.5512  -5.8595  -5.4087  -5.0878  -4.5157  -3.9558
    -3.0201  -1.8596

          k = 0.4167 0.0833 0.0000 (  4016 PWs)   bands (ev):

   -10.6285  -9.8931  -7.0655  -6.3458  -5.4081  -4.7522  -4.6154  -3.9165
    -2.6805  -1.4007

          k = 0.4167 0.2500 0.0000 (  4019 PWs)   bands (ev):

   -10.3814  -9.6471  -8.1972  -7.4751  -4.3787  -3.8637  -3.6806  -3.2809
    -2.4809  -2.3206

          k = 0.4167 0.4167 0.0000 (  4005 PWs)   bands (ev):

    -9.8894  -9.1576  -9.1576  -8.4296  -3.9078  -3.2118  -3.2117  -2.5183
    -2.1334  -2.0695

          k = 0.4167-0.4167 0.0000 (  4005 PWs)   bands (ev):

    -9.8894  -9.1576  -9.1576  -8.4296  -3.9078  -3.2118  -3.2117  -2.5182
    -2.1334  -2.0694

          k = 0.4167-0.2500 0.0000 (  4019 PWs)   bands (ev):

   -10.3814  -9.6471  -8.1972  -7.4751  -4.3787  -3.8637  -3.6808  -3.2810
    -2.4809  -2.3206

          k = 0.4167-0.0833 0.0000 (  4016 PWs)   bands (ev):

   -10.6285  -9.8931  -7.0655  -6.3458  -5.4081  -4.7522  -4.6154  -3.9165
    -2.6808  -1.4014

     the Fermi energy is    -4.2587 ev

!    total energy              =     -49.51688057 Ry
     Harris-Foulkes estimate   =     -49.51688150 Ry
     estimated scf accuracy    <       0.00000085 Ry

     The total energy is the sum of the following terms:

     one-electron contribution =    -320.16309250 Ry
     hartree contribution      =     160.63576170 Ry
     xc contribution           =     -39.21900121 Ry
     ewald contribution        =     149.23209722 Ry
     smearing contrib. (-TS)   =      -0.00264578 Ry
     pot.stat. contrib. (-muN) =      -0.00000000 Ry

     convergence has been achieved in   8 iterations

     Forces acting on atoms (Ry/au):

     atom    1 type  1   force =    -0.00000159   -0.00000105    0.00000026
     atom    2 type  1   force =     0.00000183    0.00000258   -0.00000029
     atom    3 type  1   force =    -0.00000225   -0.00000032    0.00000156
     atom    4 type  1   force =     0.00000201   -0.00000122   -0.00000023

     Total force =     0.000005     Total SCF correction =     0.000014
     SCF correction compared to forces is large: reduce conv_thr to get better values

     BFGS Geometry Optimization

     FCP Optimisation: Force acting on FCP =    0.037200 Ry

     new conv_thr            =       0.0000010000 Ry


ATOMIC_POSITIONS (bohr)
Al       0.000000000   0.000000000   0.000000000
Al       5.411138430   0.000000000   0.000000000
Al       0.000000000   5.411138430   0.000000000
Al       5.411138430   5.411138430   0.000000000



     Writing output data file Al001_bc3_vp05.save
     Check: negative starting charge=   -0.000169
     NEW-OLD atomic charge density approx. for the potential

     Check: negative/imaginary core charge=   -0.000012    0.000000
     Check: negative starting charge=   -0.000169
     extrapolated charge   12.00000, renormalised to   12.01529

     total cpu time spent up to now is       21.3 secs

     per-process dynamical memory:    36.7 Mb

     Self-consistent Calculation

     iteration #  1     ecut=    20.00 Ry     beta=0.30
     Davidson diagonalization with overlap
     ethr =  1.00E-06,  avg # of iterations =  1.3

     Threshold (ethr) on eigenvalues was too large:
     Diagonalizing with lowered threshold

     Davidson diagonalization with overlap
     ethr =  8.35E-09,  avg # of iterations =  5.1

     total cpu time spent up to now is       24.4 secs

     total energy              =     -49.51663651 Ry
     Harris-Foulkes estimate   =     -49.91650362 Ry
     estimated scf accuracy    <       0.00000198 Ry

     iteration #  2     ecut=    20.00 Ry     beta=0.30
     Davidson diagonalization with overlap
     ethr =  1.65E-08,  avg # of iterations = 15.5

     total cpu time spent up to now is       28.3 secs

     total energy              =     -49.51737140 Ry
     Harris-Foulkes estimate   =     -49.51736532 Ry
     estimated scf accuracy    <       0.00059751 Ry

     iteration #  3     ecut=    20.00 Ry     beta=0.30
     Davidson diagonalization with overlap
     ethr =  1.65E-08,  avg # of iterations =  1.0

     total cpu time spent up to now is       29.4 secs

     total energy              =     -49.51746057 Ry
     Harris-Foulkes estimate   =     -49.51737334 Ry
     estimated scf accuracy    <       0.00061211 Ry

     iteration #  4     ecut=    20.00 Ry     beta=0.30
     Davidson diagonalization with overlap
     ethr =  1.65E-08,  avg # of iterations =  8.1

     total cpu time spent up to now is       31.7 secs

     total energy              =     -49.51754143 Ry
     Harris-Foulkes estimate   =     -49.51750062 Ry
     estimated scf accuracy    <       0.00102520 Ry

     iteration #  5     ecut=    20.00 Ry     beta=0.30
     Davidson diagonalization with overlap
     ethr =  1.65E-08,  avg # of iterations =  5.9

     total cpu time spent up to now is       33.5 secs

     total energy              =     -49.51709405 Ry
     Harris-Foulkes estimate   =     -49.51756191 Ry
     estimated scf accuracy    <       0.00117408 Ry

     iteration #  6     ecut=    20.00 Ry     beta=0.30
     Davidson diagonalization with overlap
     ethr =  1.65E-08,  avg # of iterations = 15.7

     total cpu time spent up to now is       37.3 secs

     total energy              =     -49.51712193 Ry
     Harris-Foulkes estimate   =     -49.51711889 Ry
     estimated scf accuracy    <       0.00002081 Ry

     iteration #  7     ecut=    20.00 Ry     beta=0.30
     Davidson diagonalization with overlap
     ethr =  1.65E-08,  avg # of iterations =  1.0

     total cpu time spent up to now is       38.5 secs

     total energy              =     -49.51713002 Ry
     Harris-Foulkes estimate   =     -49.51713120 Ry
     estimated scf accuracy    <       0.00003048 Ry

     iteration #  8     ecut=    20.00 Ry     beta=0.30
     Davidson diagonalization with overlap
     ethr =  1.65E-08,  avg # of iterations =  1.0

     total cpu time spent up to now is       39.6 secs

     total energy              =     -49.51711937 Ry
     Harris-Foulkes estimate   =     -49.51712882 Ry
     estimated scf accuracy    <       0.00002888 Ry

     iteration #  9     ecut=    20.00 Ry     beta=0.30
     Davidson diagonalization with overlap
     ethr =  1.65E-08,  avg # of iterations =  5.1

     total cpu time spent up to now is       41.4 secs

     End of self-consistent calculation

          k = 0.0833 0.0833 0.0000 (  3999 PWs)   bands (ev):

   -11.0160  -7.4403  -7.4403  -5.7321  -5.7321  -4.9816  -3.9546  -3.0818
    -1.7880  -1.7445

          k = 0.0833 0.2500 0.0000 (  4011 PWs)   bands (ev):

   -10.7678  -8.5730  -7.1962  -5.5043  -5.0535  -4.7439  -4.1605  -3.6004
    -2.6757  -1.5136

          k = 0.0833 0.4167 0.0000 (  4016 PWs)   bands (ev):

   -10.2736  -9.5381  -6.7105  -5.9907  -5.0529  -4.3969  -4.2713  -3.5722
    -2.3257  -1.0553

          k = 0.0833-0.4167 0.0000 (  4016 PWs)   bands (ev):

   -10.2736  -9.5381  -6.7105  -5.9907  -5.0529  -4.3969  -4.2713  -3.5722
    -2.3257  -1.0553

          k = 0.0833-0.2500 0.0000 (  4011 PWs)   bands (ev):

   -10.7678  -8.5730  -7.1962  -5.5043  -5.0535  -4.7439  -4.1605  -3.6004
    -2.6757  -1.5136

          k = 0.0833-0.0833 0.0000 (  3999 PWs)   bands (ev):

   -11.0160  -7.4403  -7.4403  -5.7321  -5.7321  -4.9816  -3.9546  -3.0818
    -1.7881  -1.7445

          k = 0.2500 0.0833 0.0000 (  4011 PWs)   bands (ev):

   -10.7678  -8.5730  -7.1962  -5.5043  -5.0535  -4.7439  -4.1605  -3.6004
    -2.6757  -1.5136

          k = 0.2500 0.2500 0.0000 (  4007 PWs)   bands (ev):

   -10.5200  -8.3286  -8.3286  -6.1740  -4.5064  -3.9385  -3.9385  -2.6251
    -2.4416  -2.4416

          k = 0.2500 0.4167 0.0000 (  4019 PWs)   bands (ev):

   -10.0264  -9.2921  -7.8422  -7.1201  -4.0346  -3.5084  -3.3364  -2.9257
    -2.1259  -1.9758

          k = 0.2500-0.4167 0.0000 (  4019 PWs)   bands (ev):

   -10.0264  -9.2921  -7.8422  -7.1201  -4.0346  -3.5084  -3.3364  -2.9257
    -2.1259  -1.9758

          k = 0.2500-0.2500 0.0000 (  4007 PWs)   bands (ev):

   -10.5200  -8.3286  -8.3286  -6.1740  -4.5064  -3.9385  -3.9385  -2.6251
    -2.4416  -2.4416

          k = 0.2500-0.0833 0.0000 (  4011 PWs)   bands (ev):

   -10.7678  -8.5730  -7.1962  -5.5043  -5.0535  -4.7439  -4.1605  -3.6004
    -2.6757  -1.5136

          k = 0.4167 0.0833 0.0000 (  4016 PWs)   bands (ev):

   -10.2736  -9.5381  -6.7105  -5.9907  -5.0529  -4.3969  -4.2713  -3.5722
    -2.3256  -1.0553

          k = 0.4167 0.2500 0.0000 (  4019 PWs)   bands (ev):

   -10.0264  -9.2921  -7.8422  -7.1201  -4.0346  -3.5084  -3.3364  -2.9257
    -2.1259  -1.9758

          k = 0.4167 0.4167 0.0000 (  4005 PWs)   bands (ev):

    -9.5344  -8.8026  -8.8026  -8.0746  -3.5635  -2.8672  -2.8672  -2.1736
    -1.7780  -1.7139

          k = 0.4167-0.4167 0.0000 (  4005 PWs)   bands (ev):

    -9.5344  -8.8026  -8.8026  -8.0746  -3.5635  -2.8672  -2.8672  -2.1735
    -1.7780  -1.7139

          k = 0.4167-0.2500 0.0000 (  4019 PWs)   bands (ev):

   -10.0264  -9.2921  -7.8422  -7.1201  -4.0346  -3.5084  -3.3364  -2.9257
    -2.1259  -1.9758

          k = 0.4167-0.0833 0.0000 (  4016 PWs)   bands (ev):

   -10.2736  -9.5381  -6.7105  -5.9907  -5.0529  -4.3969  -4.2713  -3.5722
    -2.3257  -1.0553

     the Fermi energy is    -3.9036 ev

!    total energy              =     -49.51709953 Ry
     Harris-Foulkes estimate   =     -49.51709849 Ry
     estimated scf accuracy    <       0.00000090 Ry

     The total energy is the sum of the following terms:

     one-electron contribution =    -320.45581463 Ry
     hartree contribution      =     160.92859585 Ry
     xc contribution           =     -39.22376400 Ry
     ewald contribution        =     149.23209722 Ry
     smearing contrib. (-TS)   =      -0.00260068 Ry
     pot.stat. contrib. (-muN) =       0.00438671 Ry

     convergence has been achieved in   9 iterations

     Forces acting on atoms (Ry/au):

     atom    1 type  1   force =     0.00000016    0.00000006    0.00004548
     atom    2 type  1   force =    -0.00000014   -0.00000001    0.00004714
     atom    3 type  1   force =    -0.00000016    0.00000007    0.00004705
     atom    4 type  1   force =     0.00000015   -0.00000011    0.00004548

     Total force =     0.000093     Total SCF correction =     0.001601
     SCF correction compared to forces is large: reduce conv_thr to get better values

     BFGS Geometry Optimization

     FCP Optimisation: Force acting on FCP =    0.011103 Ry

     new conv_thr            =       0.0000010000 Ry


ATOMIC_POSITIONS (bohr)
Al       0.000000000   0.000000000   0.000000000
Al       5.411138430   0.000000000   0.000000000
Al       0.000000000   5.411138430   0.000000000
Al       5.411138430   5.411138430   0.000000000



     Writing output data file Al001_bc3_vp05.save
     Check: negative starting charge=   -0.000169
     NEW-OLD atomic charge density approx. for the potential

     Check: negative/imaginary core charge=   -0.000012    0.000000
     Check: negative starting charge=   -0.000169
     extrapolated charge   12.01529, renormalised to   12.01985

     total cpu time spent up to now is       42.2 secs

     per-process dynamical memory:    36.7 Mb

     Self-consistent Calculation

     iteration #  1     ecut=    20.00 Ry     beta=0.30
     Davidson diagonalization with overlap
     ethr =  1.00E-06,  avg # of iterations =  1.0

     Threshold (ethr) on eigenvalues was too large:
     Diagonalizing with lowered threshold

     Davidson diagonalization with overlap
     ethr =  4.24E-08,  avg # of iterations =  5.7

     total cpu time spent up to now is       45.1 secs

     total energy              =     -49.51703926 Ry
     Harris-Foulkes estimate   =     -49.63643092 Ry
     estimated scf accuracy    <       0.00001253 Ry

     iteration #  2     ecut=    20.00 Ry     beta=0.30
     Davidson diagonalization with overlap
     ethr =  1.04E-07,  avg # of iterations =  6.9

     total cpu time spent up to now is       47.0 secs

     total energy              =     -49.51728527 Ry
     Harris-Foulkes estimate   =     -49.51729979 Ry
     estimated scf accuracy    <       0.00007151 Ry

     iteration #  3     ecut=    20.00 Ry     beta=0.30
     Davidson diagonalization with overlap
     ethr =  1.04E-07,  avg # of iterations =  1.0

     total cpu time spent up to now is       48.2 secs

     total energy              =     -49.51727970 Ry
     Harris-Foulkes estimate   =     -49.51726991 Ry
     estimated scf accuracy    <       0.00004077 Ry

     iteration #  4     ecut=    20.00 Ry     beta=0.30
     Davidson diagonalization with overlap
     ethr =  1.04E-07,  avg # of iterations =  1.0

     total cpu time spent up to now is       49.3 secs

     total energy              =     -49.51726645 Ry
     Harris-Foulkes estimate   =     -49.51729628 Ry
     estimated scf accuracy    <       0.00006365 Ry

     iteration #  5     ecut=    20.00 Ry     beta=0.30
     Davidson diagonalization with overlap
     ethr =  1.04E-07,  avg # of iterations =  4.0

     total cpu time spent up to now is       50.9 secs

     End of self-consistent calculation

          k = 0.0833 0.0833 0.0000 (  3999 PWs)   bands (ev):

   -10.9170  -7.3414  -7.3414  -5.6331  -5.6331  -4.8861  -3.8556  -2.9826
    -1.6893  -1.6484

          k = 0.0833 0.2500 0.0000 (  4011 PWs)   bands (ev):

   -10.6689  -8.4740  -7.0972  -5.4053  -4.9546  -4.6484  -4.0615  -3.5013
    -2.5800  -1.4175

          k = 0.0833 0.4167 0.0000 (  4016 PWs)   bands (ev):

   -10.1746  -9.4392  -6.6115  -5.8918  -4.9539  -4.2979  -4.1757  -3.4765
    -2.2266  -0.9591

          k = 0.0833-0.4167 0.0000 (  4016 PWs)   bands (ev):

   -10.1746  -9.4392  -6.6115  -5.8918  -4.9539  -4.2979  -4.1757  -3.4765
    -2.2266  -0.9591

          k = 0.0833-0.2500 0.0000 (  4011 PWs)   bands (ev):

   -10.6689  -8.4740  -7.0972  -5.4053  -4.9546  -4.6484  -4.0615  -3.5013
    -2.5800  -1.4175

          k = 0.0833-0.0833 0.0000 (  3999 PWs)   bands (ev):

   -10.9170  -7.3414  -7.3414  -5.6331  -5.6331  -4.8861  -3.8556  -2.9826
    -1.6893  -1.6484

          k = 0.2500 0.0833 0.0000 (  4011 PWs)   bands (ev):

   -10.6689  -8.4740  -7.0972  -5.4053  -4.9546  -4.6484  -4.0615  -3.5013
    -2.5799  -1.4175

          k = 0.2500 0.2500 0.0000 (  4007 PWs)   bands (ev):

   -10.4211  -8.2297  -8.2297  -6.0750  -4.4109  -3.8395  -3.8395  -2.5260
    -2.3459  -2.3459

          k = 0.2500 0.4167 0.0000 (  4019 PWs)   bands (ev):

    -9.9275  -9.1932  -7.7433  -7.0211  -3.9390  -3.4094  -3.2408  -2.8267
    -2.0269  -1.8800

          k = 0.2500-0.4167 0.0000 (  4019 PWs)   bands (ev):

    -9.9275  -9.1932  -7.7433  -7.0211  -3.9390  -3.4094  -3.2408  -2.8267
    -2.0269  -1.8800

          k = 0.2500-0.2500 0.0000 (  4007 PWs)   bands (ev):

   -10.4211  -8.2297  -8.2297  -6.0750  -4.4109  -3.8395  -3.8395  -2.5260
    -2.3459  -2.3459

          k = 0.2500-0.0833 0.0000 (  4011 PWs)   bands (ev):

   -10.6689  -8.4740  -7.0972  -5.4053  -4.9546  -4.6484  -4.0615  -3.5013
    -2.5800  -1.4175

          k = 0.4167 0.0833 0.0000 (  4016 PWs)   bands (ev):

   -10.1746  -9.4392  -6.6115  -5.8918  -4.9539  -4.2979  -4.1757  -3.4765
    -2.2266  -0.9591

          k = 0.4167 0.2500 0.0000 (  4019 PWs)   bands (ev):

    -9.9275  -9.1932  -7.7433  -7.0211  -3.9390  -3.4094  -3.2408  -2.8267
    -2.0269  -1.8800

          k = 0.4167 0.4167 0.0000 (  4005 PWs)   bands (ev):

    -9.4355  -8.7037  -8.7037  -7.9756  -3.4679  -2.7716  -2.7716  -2.0779
    -1.6789  -1.6147

          k = 0.4167-0.4167 0.0000 (  4005 PWs)   bands (ev):

    -9.4355  -8.7037  -8.7037  -7.9756  -3.4679  -2.7716  -2.7716  -2.0778
    -1.6789  -1.6147

          k = 0.4167-0.2500 0.0000 (  4019 PWs)   bands (ev):

    -9.9275  -9.1932  -7.7433  -7.0211  -3.9390  -3.4094  -3.2408  -2.8267
    -2.0269  -1.8800

          k = 0.4167-0.0833 0.0000 (  4016 PWs)   bands (ev):

   -10.1746  -9.4392  -6.6115  -5.8918  -4.9539  -4.2979  -4.1757  -3.4765
    -2.2266  -0.9591

     the Fermi energy is    -3.8047 ev

!    total energy              =     -49.51723490 Ry
     Harris-Foulkes estimate   =     -49.51723000 Ry
     estimated scf accuracy    <       0.00000041 Ry

     The total energy is the sum of the following terms:

     one-electron contribution =    -320.55791069 Ry
     hartree contribution      =     161.03097722 Ry
     xc contribution           =     -39.22536257 Ry
     ewald contribution        =     149.23209722 Ry
     smearing contrib. (-TS)   =      -0.00258777 Ry
     pot.stat. contrib. (-muN) =       0.00555168 Ry

     convergence has been achieved in   5 iterations

     Forces acting on atoms (Ry/au):

     atom    1 type  1   force =    -0.00000031   -0.00000022    0.00004133
     atom    2 type  1   force =     0.00000050   -0.00000054    0.00004550
     atom    3 type  1   force =    -0.00000011    0.00000011    0.00004489
     atom    4 type  1   force =    -0.00000008    0.00000065    0.00004298

     Total force =     0.000087     Total SCF correction =     0.000678
     SCF correction compared to forces is large: reduce conv_thr to get better values

     BFGS Geometry Optimization

     FCP Optimisation: Force acting on FCP =    0.003832 Ry

     new conv_thr            =       0.0000010000 Ry


ATOMIC_POSITIONS (bohr)
Al       0.000000000   0.000000000   0.000000000
Al       5.411138430   0.000000000   0.000000000
Al       0.000000000   5.411138430   0.000000000
Al       5.411138430   5.411138430   0.000000000



     Writing output data file Al001_bc3_vp05.save
     Check: negative starting charge=   -0.000169
     NEW-OLD atomic charge density approx. for the potential

     Check: negative/imaginary core charge=   -0.000012    0.000000
     Check: negative starting charge=   -0.000169
     extrapolated charge   12.01985, renormalised to   12.02143

     total cpu time spent up to now is       51.7 secs

     per-process dynamical memory:    36.7 Mb

     Self-consistent Calculation

     iteration #  1     ecut=    20.00 Ry     beta=0.30
     Davidson diagonalization with overlap
     ethr =  1.00E-06,  avg # of iterations =  1.2

     Threshold (ethr) on eigenvalues was too large:
     Diagonalizing with lowered threshold

     Davidson diagonalization with overlap
     ethr =  4.75E-09,  avg # of iterations =  5.1

     total cpu time spent up to now is       54.6 secs

     total energy              =     -49.51723453 Ry
     Harris-Foulkes estimate   =     -49.55844030 Ry
     estimated scf accuracy    <       0.00000135 Ry

     iteration #  2     ecut=    20.00 Ry     beta=0.30
     Davidson diagonalization with overlap
     ethr =  1.12E-08,  avg # of iterations =  5.7

     total cpu time spent up to now is       56.2 secs

     total energy              =     -49.51730618 Ry
     Harris-Foulkes estimate   =     -49.51730406 Ry
     estimated scf accuracy    <       0.00000330 Ry

     iteration #  3     ecut=    20.00 Ry     beta=0.30
     Davidson diagonalization with overlap
     ethr =  1.12E-08,  avg # of iterations =  5.3

     total cpu time spent up to now is       58.1 secs

     total energy              =     -49.51731238 Ry
     Harris-Foulkes estimate   =     -49.51731736 Ry
     estimated scf accuracy    <       0.00001619 Ry

     iteration #  4     ecut=    20.00 Ry     beta=0.30
     Davidson diagonalization with overlap
     ethr =  1.12E-08,  avg # of iterations =  4.9

     total cpu time spent up to now is       59.8 secs

     total energy              =     -49.51729985 Ry
     Harris-Foulkes estimate   =     -49.51730029 Ry
     estimated scf accuracy    <       0.00000375 Ry

     iteration #  5     ecut=    20.00 Ry     beta=0.30
     Davidson diagonalization with overlap
     ethr =  1.12E-08,  avg # of iterations =  1.0

     total cpu time spent up to now is       61.0 secs

     total energy              =     -49.51729607 Ry
     Harris-Foulkes estimate   =     -49.51729633 Ry
     estimated scf accuracy    <       0.00000258 Ry

     iteration #  6     ecut=    20.00 Ry     beta=0.30
     Davidson diagonalization with overlap
     ethr =  1.12E-08,  avg # of iterations =  1.0

     total cpu time spent up to now is       62.1 secs

     total energy              =     -49.51729285 Ry
     Harris-Foulkes estimate   =     -49.51729272 Ry
     estimated scf accuracy    <       0.00000161 Ry

     iteration #  7     ecut=    20.00 Ry     beta=0.30
     Davidson diagonalization with overlap
     ethr =  1.12E-08,  avg # of iterations =  5.0

     total cpu time spent up to now is       63.9 secs

     total energy              =     -49.51728201 Ry
     Harris-Foulkes estimate   =     -49.51728239 Ry
     estimated scf accuracy    <       0.00000162 Ry

     iteration #  8     ecut=    20.00 Ry     beta=0.30
     Davidson diagonalization with overlap
     ethr =  1.12E-08,  avg # of iterations =  1.0

     total cpu time spent up to now is       65.0 secs

     total energy              =     -49.51728372 Ry
     Harris-Foulkes estimate   =     -49.51728370 Ry
     estimated scf accuracy    <       0.00000124 Ry

     iteration #  9     ecut=    20.00 Ry     beta=0.30
     Davidson diagonalization with overlap
     ethr =  1.03E-08,  avg # of iterations =  1.0

     total cpu time spent up to now is       66.2 secs

     total energy              =     -49.51728360 Ry
     Harris-Foulkes estimate   =     -49.51728364 Ry
     estimated scf accuracy    <       0.00000125 Ry

     iteration # 10     ecut=    20.00 Ry     beta=0.30
     Davidson diagonalization with overlap
     ethr =  1.03E-08,  avg # of iterations =  1.0

     total cpu time spent up to now is       67.3 secs

     total energy              =     -49.51728366 Ry
     Harris-Foulkes estimate   =     -49.51728384 Ry
     estimated scf accuracy    <       0.00000119 Ry

     iteration # 11     ecut=    20.00 Ry     beta=0.30
     Davidson diagonalization with overlap
     ethr =  9.90E-09,  avg # of iterations =  1.0

     total cpu time spent up to now is       68.5 secs

     End of self-consistent calculation

          k = 0.0833 0.0833 0.0000 (  3999 PWs)   bands (ev):

   -10.8854  -7.3097  -7.3097  -5.6015  -5.6015  -4.8547  -3.8239  -2.9510
    -1.6576  -1.6169

          k = 0.0833 0.2500 0.0000 (  4011 PWs)   bands (ev):

   -10.6372  -8.4424  -7.0655  -5.3737  -4.9229  -4.6170  -4.0299  -3.4697
    -2.5485  -1.3859

          k = 0.0833 0.4167 0.0000 (  4016 PWs)   bands (ev):

   -10.1430  -9.4075  -6.5799  -5.8601  -4.9222  -4.2662  -4.1443  -3.4451
    -2.1950  -0.9276

          k = 0.0833-0.4167 0.0000 (  4016 PWs)   bands (ev):

   -10.1430  -9.4075  -6.5799  -5.8601  -4.9222  -4.2662  -4.1443  -3.4451
    -2.1950  -0.9276

          k = 0.0833-0.2500 0.0000 (  4011 PWs)   bands (ev):

   -10.6372  -8.4424  -7.0655  -5.3737  -4.9229  -4.6170  -4.0299  -3.4697
    -2.5485  -1.3859

          k = 0.0833-0.0833 0.0000 (  3999 PWs)   bands (ev):

   -10.8854  -7.3097  -7.3097  -5.6015  -5.6015  -4.8547  -3.8239  -2.9510
    -1.6577  -1.6169

          k = 0.2500 0.0833 0.0000 (  4011 PWs)   bands (ev):

   -10.6372  -8.4424  -7.0655  -5.3737  -4.9229  -4.6170  -4.0299  -3.4697
    -2.5485  -1.3859

          k = 0.2500 0.2500 0.0000 (  4007 PWs)   bands (ev):

   -10.3895  -8.1980  -8.1980  -6.0434  -4.3795  -3.8078  -3.8078  -2.4944
    -2.3144  -2.3144

          k = 0.2500 0.4167 0.0000 (  4019 PWs)   bands (ev):

    -9.8958  -9.1615  -7.7116  -6.9895  -3.9075  -3.3778  -3.2093  -2.7951
    -1.9953  -1.8485

          k = 0.2500-0.4167 0.0000 (  4019 PWs)   bands (ev):

    -9.8958  -9.1615  -7.7116  -6.9895  -3.9075  -3.3778  -3.2093  -2.7951
    -1.9953  -1.8485

          k = 0.2500-0.2500 0.0000 (  4007 PWs)   bands (ev):

   -10.3895  -8.1980  -8.1980  -6.0434  -4.3795  -3.8078  -3.8078  -2.4944
    -2.3144  -2.3144

          k = 0.2500-0.0833 0.0000 (  4011 PWs)   bands (ev):

   -10.6372  -8.4424  -7.0655  -5.3737  -4.9229  -4.6170  -4.0299  -3.4697
    -2.5485  -1.3859

          k = 0.4167 0.0833 0.0000 (  4016 PWs)   bands (ev):

   -10.1430  -9.4075  -6.5799  -5.8601  -4.9222  -4.2662  -4.1443  -3.4451
    -2.1950  -0.9276

          k = 0.4167 0.2500 0.0000 (  4019 PWs)   bands (ev):

    -9.8958  -9.1615  -7.7116  -6.9895  -3.9075  -3.3778  -3.2093  -2.7951
    -1.9953  -1.8485

          k = 0.4167 0.4167 0.0000 (  4005 PWs)   bands (ev):

    -9.4038  -8.6720  -8.6720  -7.9440  -3.4364  -2.7401  -2.7401  -2.0464
    -1.6473  -1.5831

          k = 0.4167-0.4167 0.0000 (  4005 PWs)   bands (ev):

    -9.4038  -8.6720  -8.6720  -7.9440  -3.4364  -2.7401  -2.7401  -2.0463
    -1.6473  -1.5832

          k = 0.4167-0.2500 0.0000 (  4019 PWs)   bands (ev):

    -9.8958  -9.1615  -7.7116  -6.9895  -3.9075  -3.3778  -3.2093  -2.7951
    -1.9953  -1.8485

          k = 0.4167-0.0833 0.0000 (  4016 PWs)   bands (ev):

   -10.1430  -9.4075  -6.5799  -5.8601  -4.9222  -4.2662  -4.1443  -3.4451
    -2.1950  -0.9276

     the Fermi energy is    -3.7727 ev

!    total energy              =     -49.51728300 Ry
     Harris-Foulkes estimate   =     -49.51728481 Ry
     estimated scf accuracy    <       0.00000091 Ry

     The total energy is the sum of the following terms:

     one-electron contribution =    -320.59850284 Ry
     hartree contribution      =     161.07179642 Ry
     xc contribution           =     -39.22603346 Ry
     ewald contribution        =     149.23209722 Ry
     smearing contrib. (-TS)   =      -0.00258213 Ry
     pot.stat. contrib. (-muN) =       0.00594178 Ry

     convergence has been achieved in  11 iterations

     Forces acting on atoms (Ry/au):

     atom    1 type  1   force =    -0.00000022    0.00000017   -0.00006121
     atom    2 type  1   force =     0.00000020    0.00000048   -0.00006310
     atom    3 type  1   force =    -0.00000044   -0.00000020   -0.00006257
     atom    4 type  1   force =     0.00000046   -0.00000044   -0.00006071

     Total force =     0.000124     Total SCF correction =     0.001598
     SCF correction compared to forces is large: reduce conv_thr to get better values

     BFGS Geometry Optimization

     FCP Optimisation: Force acting on FCP =    0.001482 Ry

     new conv_thr            =       0.0000010000 Ry


ATOMIC_POSITIONS (bohr)
Al       0.000000000   0.000000000   0.000000000
Al       5.411138430   0.000000000   0.000000000
Al       0.000000000   5.411138430   0.000000000
Al       5.411138430   5.411138430   0.000000000



     Writing output data file Al001_bc3_vp05.save
     Check: negative starting charge=   -0.000169
     NEW-OLD atomic charge density approx. for the potential

     Check: negative/imaginary core charge=   -0.000012    0.000000
     Check: negative starting charge=   -0.000169
     extrapolated charge   12.02143, renormalised to   12.02204

     total cpu time spent up to now is       69.3 secs

     per-process dynamical memory:    36.7 Mb

     Self-consistent Calculation

     iteration #  1     ecut=    20.00 Ry     beta=0.30
     Davidson diagonalization with overlap
     ethr =  1.00E-06,  avg # of iterations =  1.0

     Threshold (ethr) on eigenvalues was too large:
     Diagonalizing with lowered threshold

     Davidson diagonalization with overlap
     ethr =  7.83E-08,  avg # of iterations =  2.6

     total cpu time spent up to now is       71.6 secs

     total energy              =     -49.51730508 Ry
     Harris-Foulkes estimate   =     -49.53324451 Ry
     estimated scf accuracy    <       0.00001110 Ry

     iteration #  2     ecut=    20.00 Ry     beta=0.30
     Davidson diagonalization with overlap
     ethr =  9.23E-08,  avg # of iterations =  1.0

     total cpu time spent up to now is       72.9 secs

     End of self-consistent calculation

          k = 0.0833 0.0833 0.0000 (  3999 PWs)   bands (ev):

   -10.8654  -7.2897  -7.2897  -5.5815  -5.5815  -4.8356  -3.8039  -2.9310
    -1.6377  -1.5976

          k = 0.0833 0.2500 0.0000 (  4011 PWs)   bands (ev):

   -10.6172  -8.4224  -7.0456  -5.3537  -4.9029  -4.5978  -4.0098  -3.4497
    -2.5293  -1.3667

          k = 0.0833 0.4167 0.0000 (  4016 PWs)   bands (ev):

   -10.1230  -9.3875  -6.5599  -5.8401  -4.9022  -4.2462  -4.1251  -3.4259
    -2.1750  -0.9083

          k = 0.0833-0.4167 0.0000 (  4016 PWs)   bands (ev):

   -10.1230  -9.3875  -6.5599  -5.8401  -4.9022  -4.2462  -4.1251  -3.4259
    -2.1750  -0.9083

          k = 0.0833-0.2500 0.0000 (  4011 PWs)   bands (ev):

   -10.6172  -8.4224  -7.0456  -5.3537  -4.9029  -4.5978  -4.0098  -3.4497
    -2.5293  -1.3667

          k = 0.0833-0.0833 0.0000 (  3999 PWs)   bands (ev):

   -10.8654  -7.2897  -7.2897  -5.5815  -5.5815  -4.8356  -3.8039  -2.9310
    -1.6377  -1.5976

          k = 0.2500 0.0833 0.0000 (  4011 PWs)   bands (ev):

   -10.6172  -8.4224  -7.0456  -5.3537  -4.9029  -4.5978  -4.0098  -3.4496
    -2.5293  -1.3667

          k = 0.2500 0.2500 0.0000 (  4007 PWs)   bands (ev):

   -10.3695  -8.1780  -8.1780  -6.0234  -4.3604  -3.7878  -3.7878  -2.4743
    -2.2952  -2.2952

          k = 0.2500 0.4167 0.0000 (  4019 PWs)   bands (ev):

    -9.8759  -9.1415  -7.6916  -6.9695  -3.8884  -3.3577  -3.1902  -2.7751
    -1.9753  -1.8293

          k = 0.2500-0.4167 0.0000 (  4019 PWs)   bands (ev):

    -9.8759  -9.1415  -7.6916  -6.9695  -3.8884  -3.3577  -3.1902  -2.7751
    -1.9753  -1.8293

          k = 0.2500-0.2500 0.0000 (  4007 PWs)   bands (ev):

   -10.3695  -8.1780  -8.1780  -6.0234  -4.3604  -3.7878  -3.7878  -2.4743
    -2.2952  -2.2952

          k = 0.2500-0.0833 0.0000 (  4011 PWs)   bands (ev):

   -10.6172  -8.4224  -7.0456  -5.3537  -4.9029  -4.5978  -4.0098  -3.4496
    -2.5293  -1.3667

          k = 0.4167 0.0833 0.0000 (  4016 PWs)   bands (ev):

   -10.1230  -9.3875  -6.5599  -5.8401  -4.9022  -4.2462  -4.1251  -3.4259
    -2.1750  -0.9083

          k = 0.4167 0.2500 0.0000 (  4019 PWs)   bands (ev):

    -9.8759  -9.1415  -7.6916  -6.9695  -3.8884  -3.3577  -3.1902  -2.7751
    -1.9753  -1.8293

          k = 0.4167 0.4167 0.0000 (  4005 PWs)   bands (ev):

    -9.3838  -8.6520  -8.6520  -7.9240  -3.4173  -2.7210  -2.7209  -2.0272
    -1.6273  -1.5630

          k = 0.4167-0.4167 0.0000 (  4005 PWs)   bands (ev):

    -9.3838  -8.6520  -8.6520  -7.9240  -3.4173  -2.7210  -2.7210  -2.0272
    -1.6273  -1.5631

          k = 0.4167-0.2500 0.0000 (  4019 PWs)   bands (ev):

    -9.8759  -9.1415  -7.6916  -6.9695  -3.8884  -3.3577  -3.1902  -2.7751
    -1.9753  -1.8293

          k = 0.4167-0.0833 0.0000 (  4016 PWs)   bands (ev):

   -10.1230  -9.3875  -6.5599  -5.8401  -4.9022  -4.2462  -4.1251  -3.4259
    -2.1750  -0.9083

     the Fermi energy is    -3.7529 ev

!    total energy              =     -49.51731400 Ry
     Harris-Foulkes estimate   =     -49.51731526 Ry
     estimated scf accuracy    <       0.00000095 Ry

     The total energy is the sum of the following terms:

     one-electron contribution =    -320.59022716 Ry
     hartree contribution      =     161.06355514 Ry
     xc contribution           =     -39.22623682 Ry
     ewald contribution        =     149.23209722 Ry
     smearing contrib. (-TS)   =      -0.00258091 Ry
     pot.stat. contrib. (-muN) =       0.00607853 Ry

     convergence has been achieved in   2 iterations

     Forces acting on atoms (Ry/au):

     atom    1 type  1   force =    -0.00000072    0.00000006    0.00022124
     atom    2 type  1   force =     0.00000035    0.00000082    0.00022212
     atom    3 type  1   force =    -0.00000076   -0.00000033    0.00022377
     atom    4 type  1   force =     0.00000114   -0.00000055    0.00022007

     Total force =     0.000444     Total SCF correction =     0.001601
     SCF correction compared to forces is large: reduce conv_thr to get better values

     BFGS Geometry Optimization

     FCP Optimisation: Force acting on FCP =    0.000024 Ry


     bfgs converged in   1 scf cycles and   0 bfgs steps
     (criteria: energy <  1.0E-04, force <  1.0E-03)

     End of BFGS Geometry Optimization

     Final energy   =     -49.5173140024 Ry

     FCP Optimisation : converged ( criteria force <  1.0E-03 )
     FCP Optimisation : tot_charge =   -0.022037

Begin final coordinates

ATOMIC_POSITIONS (bohr)
Al       0.000000000   0.000000000   0.000000000
Al       5.411138430   0.000000000   0.000000000
Al       0.000000000   5.411138430   0.000000000
Al       5.411138430   5.411138430   0.000000000
End final coordinates



     Writing output data file Al001_bc3_vp05.save

     init_run     :      1.18s CPU      1.18s WALL (       1 calls)
     electrons    :     68.57s CPU     68.77s WALL (       5 calls)
     update_pot   :      0.88s CPU      0.88s WALL (       4 calls)
     forces       :      2.26s CPU      2.29s WALL (       5 calls)

     Called by init_run:
     wfcinit      :      0.76s CPU      0.75s WALL (       1 calls)
     potinit      :      0.12s CPU      0.12s WALL (       1 calls)

     Called by electrons:
     c_bands      :     56.92s CPU     57.08s WALL (      40 calls)
     sum_band     :      8.06s CPU      8.11s WALL (      40 calls)
     v_of_rho     :      3.06s CPU      3.05s WALL (      40 calls)
     newd         :      0.63s CPU      0.63s WALL (      40 calls)
     mix_rho      :      0.14s CPU      0.14s WALL (      40 calls)

     Called by c_bands:
     init_us_2    :      1.07s CPU      1.02s WALL (    1548 calls)
     cegterg      :     55.95s CPU     56.16s WALL (     720 calls)

     Called by sum_band:
     sum_band:bec :      0.01s CPU      0.00s WALL (     720 calls)
     addusdens    :      0.56s CPU      0.58s WALL (      40 calls)

     Called by *egterg:
     h_psi        :     41.58s CPU     41.78s WALL (    3628 calls)
     s_psi        :      2.16s CPU      2.05s WALL (    3628 calls)
     g_psi        :      0.26s CPU      0.25s WALL (    2890 calls)
     cdiaghg      :      0.77s CPU      0.73s WALL (    3448 calls)

     Called by h_psi:
     h_psi:pot    :     41.42s CPU     41.56s WALL (    3628 calls)
     h_psi:calbec :      2.70s CPU      2.66s WALL (    3628 calls)
     vloc_psi     :     36.70s CPU     36.85s WALL (    3628 calls)
     add_vuspsi   :      2.01s CPU      2.04s WALL (    3628 calls)

     General routines
     calbec       :      3.96s CPU      3.87s WALL (    4708 calls)
     fft          :      0.87s CPU      0.84s WALL (     599 calls)
     fftw         :     39.02s CPU     39.27s WALL (   52388 calls)
     davcio       :      0.00s CPU      0.01s WALL (      18 calls)

     Parallel routines
     fft_scatter  :      3.33s CPU      3.35s WALL (   52987 calls)

     PWSCF        :  1m13.23s CPU     1m13.48s WALL


   This run was terminated on:  16: 6:45  21Sep2016            

=------------------------------------------------------------------------------=
   JOB DONE.
=------------------------------------------------------------------------------=
