
     Program PWSCF v.4.99       starts on 23Apr2012 at 22:32:37 

     This program is part of the open-source Quantum ESPRESSO suite
     for quantum simulation of materials; please cite
         "P. Giannozzi et al., J. Phys.:Condens. Matter 21 395502 (2009);
          URL http://www.quantum-espresso.org", 
     in publications or presentations arising from this work. More details at
     http://www.quantum-espresso.org/quote.php

     Serial version

     Current dimensions of program PWSCF are:
     Max number of different atomic species (ntypx) = 10
     Max number of k-points (npk) =  40000
     Max angular momentum in pseudopotentials (lmaxx) =  3
     Waiting for input...
     Reading input from standard input

     G-vector sticks info
     --------------------
     sticks:   dense  smooth     PW     G-vecs:    dense   smooth      PW
     Sum         163     163     61                23647    23647    5473



     bravais-lattice index     =            0
     lattice parameter (alat)  =       7.6534  a.u.
     unit-cell volume          =    1941.1667 (a.u.)^3
     number of atoms/cell      =            7
     number of atomic types    =            1
     number of electrons       =        21.00
     number of Kohn-Sham states=           15
     kinetic-energy cutoff     =      20.0000  Ry
     charge density cutoff     =      80.0000  Ry
     convergence threshold     =      1.0E-06
     mixing beta               =       0.5000
     number of iterations used =            8  plain     mixing
     Exchange-correlation      =  SLA  PW   PBE  PBE ( 1 4 3 4 0)
     EXX-fraction              =        0.00

     Effective Screening Medium Method
     =================================
     field strength (Ry/a.u.)         =       0.00 
     ESM offset from cell edge (a.u.) =       0.00 
     grid points for fit at edges     =          4 
     Boundary Conditions: Vacuum-Slab-Metal


     celldm(1)=   7.653394  celldm(2)=   0.000000  celldm(3)=   0.000000
     celldm(4)=   0.000000  celldm(5)=   0.000000  celldm(6)=   0.000000

     crystal axes: (cart. coord. in units of alat)
               a(1) = (   0.707107   0.000000   0.000000 )  
               a(2) = (   0.353553   0.612372   0.000000 )  
               a(3) = (   0.000000   0.000000  10.000000 )  

     reciprocal axes: (cart. coord. in units 2 pi/alat)
               b(1) = (  1.414214 -0.816497  0.000000 )  
               b(2) = (  0.000000  1.632993  0.000000 )  
               b(3) = (  0.000000  0.000000  0.100000 )  


     PseudoPot. # 1 for Al read from file:
     /home/Brandon/src/espresso/pseudo/Al.pbe-rrkj.UPF
     MD5 check sum: b5320f8fdc07ab0d74f109f4aa58256b
     Pseudo is Norm-conserving, Zval =  3.0
     Generated by new atomic code, or converted to UPF format
     Using radial grid of  879 points,  4 beta functions with: 
                l(1) =   0
                l(2) =   0
                l(3) =   1
                l(4) =   1

     atomic species   valence    mass     pseudopotential
        Al             3.00    26.98154     Al( 1.00)

     No symmetry found



   Cartesian axes

     site n.     atom                  positions (alat units)
         1           Al  tau(   1) = (   0.0000000   0.0000000  -1.7320512  )
         2           Al  tau(   2) = (   0.0000000   0.4082492  -1.1547008  )
         3           Al  tau(   3) = (   0.3535529   0.2041234  -0.5773504  )
         4           Al  tau(   4) = (   0.0000000   0.0000000   0.0000000  )
         5           Al  tau(   5) = (   0.0000000   0.4082492   0.5773504  )
         6           Al  tau(   6) = (   0.3535529   0.2041234   1.1547008  )
         7           Al  tau(   7) = (   0.0000000   0.0000000   1.7320512  )

     number of k points=    34  Methfessel-Paxton smearing, width (Ry)=  0.0500
                       cart. coord. in units 2pi/alat
        k(    1) = (   0.0000000   0.0000000   0.0000000), wk =   0.0312500
        k(    2) = (   0.0000000   0.2041241   0.0000000), wk =   0.0625000
        k(    3) = (   0.0000000   0.4082483   0.0000000), wk =   0.0625000
        k(    4) = (   0.0000000   0.6123724   0.0000000), wk =   0.0625000
        k(    5) = (   0.0000000  -0.8164966   0.0000000), wk =   0.0312500
        k(    6) = (   0.1767767  -0.1020621   0.0000000), wk =   0.0625000
        k(    7) = (   0.1767767   0.1020621   0.0000000), wk =   0.0625000
        k(    8) = (   0.1767767   0.3061862   0.0000000), wk =   0.0625000
        k(    9) = (   0.1767767   0.5103104   0.0000000), wk =   0.0625000
        k(   10) = (   0.1767767  -0.9185587   0.0000000), wk =   0.0625000
        k(   11) = (   0.1767767  -0.7144345   0.0000000), wk =   0.0625000
        k(   12) = (   0.1767767  -0.5103104   0.0000000), wk =   0.0625000
        k(   13) = (   0.1767767  -0.3061862   0.0000000), wk =   0.0625000
        k(   14) = (   0.3535534  -0.2041241   0.0000000), wk =   0.0625000
        k(   15) = (   0.3535534   0.0000000   0.0000000), wk =   0.0625000
        k(   16) = (   0.3535534   0.2041241   0.0000000), wk =   0.0625000
        k(   17) = (   0.3535534   0.4082483   0.0000000), wk =   0.0625000
        k(   18) = (   0.3535534  -1.0206207   0.0000000), wk =   0.0625000
        k(   19) = (   0.3535534  -0.8164966   0.0000000), wk =   0.0625000
        k(   20) = (   0.3535534  -0.6123724   0.0000000), wk =   0.0625000
        k(   21) = (   0.3535534  -0.4082483   0.0000000), wk =   0.0625000
        k(   22) = (   0.5303301  -0.3061862   0.0000000), wk =   0.0625000
        k(   23) = (   0.5303301  -0.1020621   0.0000000), wk =   0.0625000
        k(   24) = (   0.5303301   0.1020621   0.0000000), wk =   0.0625000
        k(   25) = (   0.5303301   0.3061862   0.0000000), wk =   0.0625000
        k(   26) = (   0.5303301  -1.1226828   0.0000000), wk =   0.0625000
        k(   27) = (   0.5303301  -0.9185587   0.0000000), wk =   0.0625000
        k(   28) = (   0.5303301  -0.7144345   0.0000000), wk =   0.0625000
        k(   29) = (   0.5303301  -0.5103104   0.0000000), wk =   0.0625000
        k(   30) = (  -0.7071068   0.4082483   0.0000000), wk =   0.0312500
        k(   31) = (  -0.7071068   0.6123724   0.0000000), wk =   0.0625000
        k(   32) = (  -0.7071068   0.8164966   0.0000000), wk =   0.0625000
        k(   33) = (  -0.7071068   1.0206207   0.0000000), wk =   0.0625000
        k(   34) = (  -0.7071068  -0.4082483   0.0000000), wk =   0.0312500

     Dense  grid:    23647 G-vectors     FFT dimensions: (  15,  15, 225)

     Largest allocated arrays     est. size (Mb)     dimensions
        Kohn-Sham Wavefunctions         0.68 Mb     (   2982,   15)
        NL pseudopotentials             2.55 Mb     (   2982,   56)
        Each V/rho on FFT grid          0.77 Mb     (  50625)
        Each G-vector array             0.18 Mb     (  23647)
        G-vector shells                 0.04 Mb     (   4718)
     Largest temporary arrays     est. size (Mb)     dimensions
        Auxiliary wavefunctions         2.73 Mb     (   2982,   60)
        Each subspace H/S matrix        0.05 Mb     (  60,  60)
        Each <psi_i|beta_j> matrix      0.01 Mb     (     56,   15)
        Arrays for rho mixing           6.18 Mb     (  50625,   8)

     Initial potential from superposition of free atoms

     starting charge   20.98187, renormalised to   21.00000

     negative rho (up, down):  0.215E-04 0.000E+00
     Starting wfc are   28 randomized atomic wfcs

     total cpu time spent up to now is        5.7 secs

     per-process dynamical memory:    12.0 Mb

     Self-consistent Calculation

     iteration #  1     ecut=    20.00 Ry     beta=0.50
     Davidson diagonalization with overlap
     ethr =  1.00E-02,  avg # of iterations =  4.6

     total cpu time spent up to now is       15.2 secs

     total energy              =     -28.48254217 Ry
     Harris-Foulkes estimate   =     -28.88691878 Ry
     estimated scf accuracy    <       0.58153184 Ry

     iteration #  2     ecut=    20.00 Ry     beta=0.50
     Davidson diagonalization with overlap
     c_bands:  2 eigenvalues not converged
     c_bands:  1 eigenvalues not converged
     c_bands:  2 eigenvalues not converged
     c_bands:  1 eigenvalues not converged
     c_bands:  1 eigenvalues not converged
     c_bands:  1 eigenvalues not converged
     c_bands:  1 eigenvalues not converged
     c_bands:  1 eigenvalues not converged
     c_bands:  1 eigenvalues not converged
     c_bands:  2 eigenvalues not converged
     c_bands:  1 eigenvalues not converged
     ethr =  2.77E-03,  avg # of iterations = 17.9

     total cpu time spent up to now is       42.3 secs

     total energy              =     -24.43478038 Ry
     Harris-Foulkes estimate   =     -32.98671470 Ry
     estimated scf accuracy    <     167.90410339 Ry

     iteration #  3     ecut=    20.00 Ry     beta=0.50
     Davidson diagonalization with overlap
     c_bands:  1 eigenvalues not converged
     ethr =  2.77E-03,  avg # of iterations = 14.4

     total cpu time spent up to now is       64.0 secs

     total energy              =     -28.86949767 Ry
     Harris-Foulkes estimate   =     -28.91768492 Ry
     estimated scf accuracy    <       0.80038049 Ry

     iteration #  4     ecut=    20.00 Ry     beta=0.50
     Davidson diagonalization with overlap
     ethr =  2.77E-03,  avg # of iterations =  3.5

     total cpu time spent up to now is       70.5 secs

     total energy              =     -28.84499433 Ry
     Harris-Foulkes estimate   =     -29.01572684 Ry
     estimated scf accuracy    <       4.86576073 Ry

     iteration #  5     ecut=    20.00 Ry     beta=0.50
     Davidson diagonalization with overlap
     ethr =  2.77E-03,  avg # of iterations =  2.0

     total cpu time spent up to now is       76.3 secs

     total energy              =     -28.93455479 Ry
     Harris-Foulkes estimate   =     -28.96624252 Ry
     estimated scf accuracy    <       0.92137491 Ry

     iteration #  6     ecut=    20.00 Ry     beta=0.50
     Davidson diagonalization with overlap
     ethr =  2.77E-03,  avg # of iterations =  1.0

     total cpu time spent up to now is       82.1 secs

     total energy              =     -28.95167066 Ry
     Harris-Foulkes estimate   =     -28.95399405 Ry
     estimated scf accuracy    <       0.03241399 Ry

     iteration #  7     ecut=    20.00 Ry     beta=0.50
     Davidson diagonalization with overlap
     c_bands:  2 eigenvalues not converged
     c_bands:  1 eigenvalues not converged
     c_bands:  1 eigenvalues not converged
     c_bands:  1 eigenvalues not converged
     c_bands:  3 eigenvalues not converged
     c_bands:  1 eigenvalues not converged
     c_bands:  1 eigenvalues not converged
     c_bands:  3 eigenvalues not converged
     ethr =  1.54E-04,  avg # of iterations = 13.1

     total cpu time spent up to now is       96.2 secs

     total energy              =     -28.96574887 Ry
     Harris-Foulkes estimate   =     -28.97969911 Ry
     estimated scf accuracy    <       0.19887284 Ry

     iteration #  8     ecut=    20.00 Ry     beta=0.50
     Davidson diagonalization with overlap
     ethr =  1.54E-04,  avg # of iterations =  2.3

     total cpu time spent up to now is      102.2 secs

     total energy              =     -28.96540156 Ry
     Harris-Foulkes estimate   =     -28.97273479 Ry
     estimated scf accuracy    <       0.01463730 Ry

     iteration #  9     ecut=    20.00 Ry     beta=0.50
     Davidson diagonalization with overlap
     ethr =  6.97E-05,  avg # of iterations =  3.9

     total cpu time spent up to now is      108.6 secs

     total energy              =     -28.95461168 Ry
     Harris-Foulkes estimate   =     -28.96628200 Ry
     estimated scf accuracy    <       0.00914707 Ry

     iteration # 10     ecut=    20.00 Ry     beta=0.50
     Davidson diagonalization with overlap
     ethr =  4.36E-05,  avg # of iterations =  3.0

     total cpu time spent up to now is      114.6 secs

     total energy              =     -28.94810310 Ry
     Harris-Foulkes estimate   =     -28.95578015 Ry
     estimated scf accuracy    <       0.01232349 Ry

     iteration # 11     ecut=    20.00 Ry     beta=0.50
     Davidson diagonalization with overlap
     ethr =  4.36E-05,  avg # of iterations =  1.4

     total cpu time spent up to now is      120.2 secs

     total energy              =     -28.93084739 Ry
     Harris-Foulkes estimate   =     -28.94843646 Ry
     estimated scf accuracy    <       0.01237341 Ry

     iteration # 12     ecut=    20.00 Ry     beta=0.50
     Davidson diagonalization with overlap
     c_bands:  1 eigenvalues not converged
     c_bands:  2 eigenvalues not converged
     ethr =  4.36E-05,  avg # of iterations =  3.7

     total cpu time spent up to now is      126.8 secs

     total energy              =     -28.92831466 Ry
     Harris-Foulkes estimate   =     -28.93135743 Ry
     estimated scf accuracy    <       0.00560032 Ry

     iteration # 13     ecut=    20.00 Ry     beta=0.50
     Davidson diagonalization with overlap
     c_bands:  1 eigenvalues not converged
     c_bands:  1 eigenvalues not converged
     ethr =  2.67E-05,  avg # of iterations =  6.0

     total cpu time spent up to now is      134.1 secs

     total energy              =     -28.92984578 Ry
     Harris-Foulkes estimate   =     -28.92889237 Ry
     estimated scf accuracy    <       0.00310054 Ry

     iteration # 14     ecut=    20.00 Ry     beta=0.50
     Davidson diagonalization with overlap
     c_bands:  1 eigenvalues not converged
     c_bands:  1 eigenvalues not converged
     c_bands:  1 eigenvalues not converged
     c_bands:  1 eigenvalues not converged
     c_bands:  1 eigenvalues not converged
     ethr =  1.48E-05,  avg # of iterations =  8.5

     total cpu time spent up to now is      142.2 secs

     total energy              =     -28.92906440 Ry
     Harris-Foulkes estimate   =     -28.93042572 Ry
     estimated scf accuracy    <       0.00124823 Ry

     iteration # 15     ecut=    20.00 Ry     beta=0.50
     Davidson diagonalization with overlap
     c_bands:  1 eigenvalues not converged
     c_bands:  1 eigenvalues not converged
     c_bands:  1 eigenvalues not converged
     c_bands:  1 eigenvalues not converged
     c_bands:  1 eigenvalues not converged
     c_bands:  1 eigenvalues not converged
     ethr =  5.94E-06,  avg # of iterations = 10.5

     total cpu time spent up to now is      150.8 secs

     total energy              =     -28.92869913 Ry
     Harris-Foulkes estimate   =     -28.92920705 Ry
     estimated scf accuracy    <       0.00017785 Ry

     iteration # 16     ecut=    20.00 Ry     beta=0.50
     Davidson diagonalization with overlap
     c_bands:  2 eigenvalues not converged
     c_bands:  1 eigenvalues not converged
     c_bands:  1 eigenvalues not converged
     c_bands:  1 eigenvalues not converged
     c_bands:  1 eigenvalues not converged
     c_bands:  1 eigenvalues not converged
     c_bands:  1 eigenvalues not converged
     ethr =  8.47E-07,  avg # of iterations = 10.5

     total cpu time spent up to now is      163.1 secs

     total energy              =     -28.92883011 Ry
     Harris-Foulkes estimate   =     -28.92879744 Ry
     estimated scf accuracy    <       0.00002112 Ry

     iteration # 17     ecut=    20.00 Ry     beta=0.50
     Davidson diagonalization with overlap
     c_bands:  1 eigenvalues not converged
     c_bands:  1 eigenvalues not converged
     c_bands:  1 eigenvalues not converged
     c_bands:  1 eigenvalues not converged
     ethr =  1.01E-07,  avg # of iterations =  8.1

     total cpu time spent up to now is      173.5 secs

     total energy              =     -28.92882326 Ry
     Harris-Foulkes estimate   =     -28.92884184 Ry
     estimated scf accuracy    <       0.00002424 Ry

     iteration # 18     ecut=    20.00 Ry     beta=0.50
     Davidson diagonalization with overlap
     c_bands:  1 eigenvalues not converged
     c_bands:  1 eigenvalues not converged
     c_bands:  1 eigenvalues not converged
     ethr =  1.01E-07,  avg # of iterations =  2.8

     total cpu time spent up to now is      179.4 secs

     total energy              =     -28.92860473 Ry
     Harris-Foulkes estimate   =     -28.92882463 Ry
     estimated scf accuracy    <       0.00000812 Ry

     iteration # 19     ecut=    20.00 Ry     beta=0.50
     Davidson diagonalization with overlap
     ethr =  3.87E-08,  avg # of iterations =  2.1

     total cpu time spent up to now is      185.2 secs

     total energy              =     -28.92861941 Ry
     Harris-Foulkes estimate   =     -28.92860537 Ry
     estimated scf accuracy    <       0.00004797 Ry

     iteration # 20     ecut=    20.00 Ry     beta=0.50
     Davidson diagonalization with overlap
     ethr =  3.87E-08,  avg # of iterations =  1.0

     total cpu time spent up to now is      190.7 secs

     End of self-consistent calculation

          k = 0.0000 0.0000 0.0000 (  2893 PWs)   bands (ev):

   -14.9050 -14.5449 -13.9506 -13.1165 -12.0421 -10.7855  -9.2909  -7.8159
    -5.9966  -4.1523  -2.3635  -0.9472  -0.2425   0.0966   0.1700

          k = 0.0000 0.2041 0.0000 (  2891 PWs)   bands (ev):

   -14.5310 -14.1716 -13.5786 -12.7462 -11.6738 -10.4194  -8.9251  -7.4642
    -5.6459  -3.8083  -2.0266  -0.6022   0.1232   0.4690   0.5361

          k = 0.0000 0.4082 0.0000 (  2909 PWs)   bands (ev):

   -13.4142 -13.0572 -12.4680 -11.6410 -10.5753  -9.3290  -7.8411  -6.4155
    -4.6265  -2.9159  -1.9339  -1.4657  -1.0539  -0.7046  -0.2152

          k = 0.0000 0.6124 0.0000 (  2936 PWs)   bands (ev):

   -11.5712 -11.2184 -10.6365  -9.8204  -8.7714  -7.5568  -6.2153  -5.8392
    -5.4494  -4.8477  -4.4709  -4.0045  -3.0144  -2.7195  -1.8282

          k = 0.0000-0.8165 0.0000 (  2982 PWs)   bands (ev):

    -9.0388  -9.0280  -8.7218  -8.6572  -8.1540  -8.0938  -7.3795  -7.3343
    -6.4875  -5.9264  -4.9565  -4.8522  -3.5358  -3.3989  -2.2582

          k = 0.1768-0.1021 0.0000 (  2891 PWs)   bands (ev):

   -14.5310 -14.1716 -13.5786 -12.7462 -11.6738 -10.4194  -8.9251  -7.4642
    -5.6459  -3.8083  -2.0265  -0.6019   0.1246   0.4704   0.5396

          k = 0.1768 0.1021 0.0000 (  2891 PWs)   bands (ev):

   -14.5310 -14.1716 -13.5786 -12.7462 -11.6738 -10.4194  -8.9251  -7.4642
    -5.6459  -3.8083  -2.0265  -0.6022   0.1249   0.4699   0.5361

          k = 0.1768 0.3062 0.0000 (  2894 PWs)   bands (ev):

   -13.7855 -13.4277 -12.8372 -12.0084 -10.9404  -9.6910  -8.1996  -6.7633
    -4.9551  -3.1467  -1.4280  -0.1142   0.5398   0.7495   0.8184

          k = 0.1768 0.5103 0.0000 (  2934 PWs)   bands (ev):

   -12.3056 -11.9510 -11.3660 -10.5450  -9.4875  -8.2531  -6.7866  -5.3943
    -3.9757  -3.5679  -3.1080  -2.6601  -2.0100  -1.6961  -1.0247

          k = 0.1768-0.9186 0.0000 (  2943 PWs)   bands (ev):

   -10.1137  -9.7651  -9.1910  -8.3904  -7.4082  -7.2186  -6.9140  -6.5016
    -6.0792  -5.3788  -4.4905  -4.3541  -3.2912  -3.1705  -1.9846

          k = 0.1768-0.7144 0.0000 (  2943 PWs)   bands (ev):

   -10.1137  -9.7651  -9.1910  -8.3904  -7.4082  -7.2186  -6.9140  -6.5016
    -6.0792  -5.3788  -4.4905  -4.3541  -3.2913  -3.1707  -1.9858

          k = 0.1768-0.5103 0.0000 (  2934 PWs)   bands (ev):

   -12.3056 -11.9510 -11.3660 -10.5450  -9.4875  -8.2531  -6.7866  -5.3943
    -3.9757  -3.5679  -3.1080  -2.6602  -2.0100  -1.6960  -1.0314

          k = 0.1768-0.3062 0.0000 (  2894 PWs)   bands (ev):

   -13.7855 -13.4277 -12.8372 -12.0084 -10.9404  -9.6910  -8.1996  -6.7633
    -4.9551  -3.1467  -1.4276  -0.1140   0.5400   0.7503   0.8162

          k = 0.3536-0.2041 0.0000 (  2909 PWs)   bands (ev):

   -13.4142 -13.0572 -12.4680 -11.6410 -10.5753  -9.3290  -7.8411  -6.4155
    -4.6265  -2.9161  -1.9342  -1.4659  -1.0536  -0.7045  -0.2142

          k = 0.3536 0.0000 0.0000 (  2894 PWs)   bands (ev):

   -13.7855 -13.4277 -12.8372 -12.0084 -10.9404  -9.6910  -8.1996  -6.7633
    -4.9551  -3.1467  -1.4280  -0.1143   0.5404   0.7502   0.8226

          k = 0.3536 0.2041 0.0000 (  2909 PWs)   bands (ev):

   -13.4142 -13.0572 -12.4680 -11.6410 -10.5753  -9.3290  -7.8411  -6.4155
    -4.6265  -2.9159  -1.9342  -1.4660  -1.0537  -0.7045  -0.2148

          k = 0.3536 0.4082 0.0000 (  2934 PWs)   bands (ev):

   -12.3056 -11.9510 -11.3660 -10.5450  -9.4875  -8.2531  -6.7866  -5.3943
    -3.9757  -3.5679  -3.1079  -2.6602  -2.0101  -1.6961  -1.0251

          k = 0.3536-1.0206 0.0000 (  2964 PWs)   bands (ev):

   -10.4764 -10.1265  -9.5496  -8.7419  -7.7070  -6.5214  -5.2631  -4.8174
    -4.8070  -4.5788  -4.3282  -3.9043  -3.6089  -3.3497  -3.0959

          k = 0.3536-0.8165 0.0000 (  2968 PWs)   bands (ev):

    -7.9658  -7.9540  -7.6581  -7.5835  -7.0996  -7.0242  -6.3316  -6.2970
    -5.4807  -5.1971  -4.8818  -4.8406  -4.4226  -4.1831  -3.6106

          k = 0.3536-0.6124 0.0000 (  2964 PWs)   bands (ev):

   -10.4764 -10.1265  -9.5496  -8.7419  -7.7070  -6.5214  -5.2631  -4.8174
    -4.8070  -4.5788  -4.3282  -3.9043  -3.6089  -3.3493  -3.0931

          k = 0.3536-0.4082 0.0000 (  2934 PWs)   bands (ev):

   -12.3056 -11.9510 -11.3660 -10.5450  -9.4875  -8.2531  -6.7866  -5.3943
    -3.9757  -3.5679  -3.1079  -2.6601  -2.0100  -1.6960  -1.0305

          k = 0.5303-0.3062 0.0000 (  2936 PWs)   bands (ev):

   -11.5712 -11.2184 -10.6365  -9.8204  -8.7714  -7.5568  -6.2153  -5.8392
    -5.4494  -4.8477  -4.4709  -4.0045  -3.0143  -2.7195  -1.8284

          k = 0.5303-0.1021 0.0000 (  2934 PWs)   bands (ev):

   -12.3056 -11.9510 -11.3660 -10.5450  -9.4875  -8.2531  -6.7866  -5.3943
    -3.9757  -3.5679  -3.1079  -2.6601  -2.0101  -1.6961  -1.0323

          k = 0.5303 0.1021 0.0000 (  2934 PWs)   bands (ev):

   -12.3056 -11.9510 -11.3660 -10.5450  -9.4875  -8.2531  -6.7866  -5.3943
    -3.9757  -3.5679  -3.1080  -2.6602  -2.0101  -1.6961  -1.0324

          k = 0.5303 0.3062 0.0000 (  2936 PWs)   bands (ev):

   -11.5712 -11.2184 -10.6365  -9.8204  -8.7714  -7.5568  -6.2153  -5.8392
    -5.4494  -4.8477  -4.4709  -4.0045  -3.0143  -2.7193  -1.8281

          k = 0.5303-1.1227 0.0000 (  2943 PWs)   bands (ev):

   -10.1137  -9.7651  -9.1910  -8.3904  -7.4082  -7.2186  -6.9140  -6.5016
    -6.0792  -5.3788  -4.4905  -4.3541  -3.2911  -3.1705  -1.9851

          k = 0.5303-0.9186 0.0000 (  2968 PWs)   bands (ev):

    -7.9658  -7.9540  -7.6581  -7.5835  -7.0996  -7.0241  -6.3316  -6.2970
    -5.4807  -5.1971  -4.8818  -4.8406  -4.4226  -4.1831  -3.6106

          k = 0.5303-0.7144 0.0000 (  2968 PWs)   bands (ev):

    -7.9658  -7.9540  -7.6581  -7.5835  -7.0996  -7.0242  -6.3316  -6.2970
    -5.4807  -5.1971  -4.8818  -4.8406  -4.4226  -4.1831  -3.6106

          k = 0.5303-0.5103 0.0000 (  2943 PWs)   bands (ev):

   -10.1137  -9.7651  -9.1910  -8.3904  -7.4082  -7.2186  -6.9140  -6.5016
    -6.0792  -5.3788  -4.4905  -4.3541  -3.2914  -3.1706  -1.9817

          k =-0.7071 0.4082 0.0000 (  2982 PWs)   bands (ev):

    -9.0388  -9.0280  -8.7218  -8.6571  -8.1540  -8.0938  -7.3795  -7.3343
    -6.4875  -5.9264  -4.9565  -4.8522  -3.5358  -3.3988  -2.2583

          k =-0.7071 0.6124 0.0000 (  2943 PWs)   bands (ev):

   -10.1137  -9.7651  -9.1910  -8.3904  -7.4082  -7.2186  -6.9140  -6.5016
    -6.0792  -5.3788  -4.4905  -4.3541  -3.2911  -3.1705  -1.9826

          k =-0.7071 0.8165 0.0000 (  2964 PWs)   bands (ev):

   -10.4764 -10.1265  -9.5496  -8.7419  -7.7070  -6.5214  -5.2631  -4.8174
    -4.8070  -4.5788  -4.3282  -3.9043  -3.6089  -3.3499  -3.0880

          k =-0.7071 1.0206 0.0000 (  2943 PWs)   bands (ev):

   -10.1137  -9.7651  -9.1910  -8.3904  -7.4082  -7.2186  -6.9140  -6.5016
    -6.0792  -5.3788  -4.4905  -4.3541  -3.2912  -3.1707  -1.9846

          k =-0.7071-0.4082 0.0000 (  2982 PWs)   bands (ev):

    -9.0388  -9.0280  -8.7218  -8.6572  -8.1540  -8.0938  -7.3795  -7.3343
    -6.4875  -5.9264  -4.9565  -4.8522  -3.5358  -3.3988  -2.2582

     the Fermi energy is    -4.0109 ev

!    total energy              =     -28.92859874 Ry
     Harris-Foulkes estimate   =     -28.92862008 Ry
     estimated scf accuracy    <       0.00000054 Ry

     The total energy is the sum of the following terms:

     one-electron contribution =  -14454.44204843 Ry
     hartree contribution      =    7228.05733278 Ry
     xc contribution           =     -11.06497892 Ry
     ewald contribution        =    7208.51839567 Ry
     smearing contrib. (-TS)   =       0.00270016 Ry

     ESM Charge and Potential
     ========================

    z (A)   Tot chg (e/A)   Avg v_hartree        Avg v_local  Avg v_hart+v_loc
                                     (eV)               (eV)              (eV)
    ==========================================================================
   -20.16      0.0000       7475.5558562      -7475.5920509        -0.0361948
   -19.98      0.0000       9172.8267062      -9172.8713934        -0.0446872
   -19.80      0.0000      10376.7337975     -10376.7844596        -0.0506621
   -19.62      0.0000      10834.0104071     -10834.0633797        -0.0529726
   -19.44      0.0000      10834.2178159     -10834.2707421        -0.0529262
   -19.26      0.0000      10833.9677408     -10834.0207246        -0.0529838
   -19.08      0.0000      10834.2587045     -10834.3116203        -0.0529159
   -18.90      0.0000      10833.9289144     -10833.9819084        -0.0529940
   -18.72      0.0000      10834.2951996     -10834.3481064        -0.0529068
   -18.54      0.0000      10833.8949982     -10833.9480011        -0.0530030
   -18.36      0.0000      10834.3263084     -10834.3792077        -0.0528993
   -18.18      0.0000      10833.8668993     -10833.9199097        -0.0530103
   -18.00      0.0000      10834.3512166     -10834.4041103        -0.0528937
   -17.82      0.0000      10833.8453328     -10833.8983486        -0.0530158
   -17.64      0.0000      10834.3693143     -10834.4222045        -0.0528902
   -17.46      0.0000      10833.8307989     -10833.8838180        -0.0530191
   -17.28      0.0000      10834.3802146     -10834.4331038        -0.0528892
   -17.10      0.0000      10833.8235680     -10833.8765881        -0.0530201
   -16.92      0.0000      10834.3837651     -10834.4366560        -0.0528909
   -16.74      0.0000      10833.8236742     -10833.8766926        -0.0530184
   -16.56      0.0000      10834.3800500     -10834.4329453        -0.0528953
   -16.38      0.0000      10833.8309163     -10833.8839303        -0.0530140
   -16.20      0.0000      10834.3693847     -10834.4222875        -0.0529028
   -16.02      0.0000      10833.8448679     -10833.8978747        -0.0530068
   -15.84      0.0000      10834.3523022     -10834.4052154        -0.0529132
   -15.66      0.0000      10833.8648949     -10833.9178916        -0.0529967
   -15.48      0.0000      10834.3295317     -10834.3824585        -0.0529267
   -15.30      0.0000      10833.8901798     -10833.9431636        -0.0529838
   -15.12      0.0000      10834.3019711     -10834.3549144        -0.0529433
   -14.94      0.0000      10833.9197526     -10833.9727210        -0.0529684
   -14.76      0.0000      10834.2706532     -10834.3236159        -0.0529628
   -14.58      0.0000      10833.9525270     -10834.0054775        -0.0529506
   -14.40      0.0000      10834.2367077     -10834.2896928        -0.0529851
   -14.22      0.0000      10833.9873391     -10834.0402701        -0.0529310
   -14.04      0.0000      10834.2013206     -10834.2543310        -0.0530104
   -13.86      0.0000      10834.0229899     -10834.0759004        -0.0529106
   -13.68      0.0000      10834.1656915     -10834.2187305        -0.0530390
   -13.50      0.0000      10834.0582864     -10834.1111775        -0.0528911
   -13.32      0.0000      10834.1309908     -10834.1840630        -0.0530723
   -13.14      0.0000      10834.0920831     -10834.1449592        -0.0528761
   -12.96      0.0000      10834.0983174     -10834.1514313        -0.0531139
   -12.78      0.0000      10834.1233183     -10834.1761914        -0.0528730
   -12.60      0.0000      10834.0686585     -10834.1218317        -0.0531732
   -12.42      0.0000      10834.1510452     -10834.2039437        -0.0528985
   -12.24      0.0000      10834.0428482     -10834.0961210        -0.0532728
   -12.06      0.0000      10834.1744489     -10834.2274382        -0.0529893
   -11.88      0.0000      10834.0215206     -10834.0749875        -0.0534668
   -11.70      0.0000      10834.1928416     -10834.2460777        -0.0532361
   -11.52      0.0000      10834.0050417     -10834.0589350        -0.0538933
   -11.34      0.0001      10834.2056036     -10834.2594613        -0.0538577
   -11.16      0.0001      10833.9933772     -10834.0482638        -0.0548865
   -10.98      0.0002      10834.2120091     -10834.2673930        -0.0553839
   -10.80      0.0003      10833.9857931     -10834.0430649        -0.0572718
   -10.62      0.0004      10834.2107611     -10834.2698859        -0.0591248
   -10.44      0.0007      10833.9801271     -10834.0432218        -0.0630947
   -10.26      0.0011      10834.1988451     -10834.2671578        -0.0683127
   -10.08      0.0017      10833.9709877     -10834.0484175        -0.0774298
    -9.90      0.0026      10834.1686341     -10834.2596214        -0.0909873
    -9.72      0.0042      10833.9452314     -10834.0581449        -0.1129135
    -9.54      0.0066      10834.1007298     -10834.2478729        -0.1471431
    -9.36      0.0104      10833.8706665     -10834.0717208        -0.2010543
    -9.18      0.0163      10833.9460277     -10834.2326919        -0.2866642
    -9.00      0.0256      10833.6681774     -10834.0882350        -0.4200576
    -8.82      0.0396      10833.5829100     -10834.2149064        -0.6319965
    -8.64      0.0604      10833.1474445     -10834.1060530        -0.9586086
    -8.46      0.0900      10832.7242510     -10834.1881138        -1.4638628
    -8.28      0.1302      10831.8812625     -10833.9677320        -2.0864695
    -8.10      0.1808      10830.7623569     -10833.9288803        -3.1665234
    -7.92      0.2373      10829.0405636     -10834.3274001        -5.2868365
    -7.74      0.2904      10826.6466862     -10835.0631004        -8.4164142
    -7.56      0.3304      10823.4149167     -10835.4344468       -12.0195301
    -7.38      0.3537      10819.1581176     -10834.6307440       -15.4726264
    -7.20      0.3629      10813.9563159     -10832.0010525       -18.0447366
    -7.02      0.3635      10807.5553380     -10826.5934416       -19.0381037
    -6.84      0.3610      10800.2500996     -10818.4269143       -18.1768147
    -6.66      0.3599      10791.6813931     -10807.3833886       -15.7019955
    -6.48      0.3604      10782.2799749     -10794.6025803       -12.3226053
    -6.30      0.3586      10771.5617461     -10780.3992888        -8.8375427
    -6.12      0.3532      10760.0655266     -10766.0501133        -5.9845867
    -5.94      0.3488      10747.2303749     -10751.5297510        -4.2993760
    -5.76      0.3515      10733.6784697     -10737.9154364        -4.2369668
    -5.58      0.3604      10718.7637438     -10724.5823423        -5.8185986
    -5.40      0.3681      10703.1198196     -10711.7348029        -8.6149833
    -5.22      0.3682      10686.0560908     -10698.1555530       -12.0994622
    -5.04      0.3619      10668.2449009     -10683.7851101       -15.5402091
    -4.86      0.3551      10649.0347409     -10667.1537160       -18.1189751
    -4.68      0.3520      10629.1008822     -10648.1957335       -19.0948512
    -4.50      0.3537      10607.8160105     -10625.9985653       -18.1825548
    -4.32      0.3596      10585.7841447     -10601.4268578       -15.6427131
    -4.14      0.3660      10562.4139961     -10574.6172809       -12.2032848
    -3.96      0.3670      10538.2224471     -10546.9057970        -8.6833498
    -3.78      0.3611      10512.7195011     -10518.5433353        -5.8238343
    -3.60      0.3542      10486.3564951     -10490.5180312        -4.1615361
    -3.42      0.3534      10458.7731663     -10462.9123233        -4.1391571
    -3.24      0.3591      10430.2897620     -10436.0548787        -5.7651167
    -3.06      0.3648      10400.6371850     -10409.2331468        -8.5959618
    -2.88      0.3646      10369.9876282     -10382.0883683       -12.1007401
    -2.70      0.3599      10338.2222444     -10353.7649176       -15.5426732
    -2.52      0.3558      10305.4031389     -10323.5134654       -18.1103266
    -2.34      0.3551      10271.5616686     -10290.6323839       -19.0707153
    -2.16      0.3577      10236.6111236     -10254.7636880       -18.1525645
    -1.98      0.3625      10200.7004976     -10216.3227377       -15.6222401
    -1.80      0.3663      10163.5947389     -10175.8035891       -12.2088502
    -1.62      0.3643      10125.5679523     -10134.2906179        -8.7226656
    -1.44      0.3561      10086.2832028     -10092.1791386        -5.8959358
    -1.26      0.3481      10046.1603248     -10050.4168708        -4.2565460
    -1.08      0.3476      10004.7741198     -10009.0170980        -4.2429781
    -0.90      0.3549       9962.6169166      -9968.4748217        -5.8579051
    -0.72      0.3631       9919.1399735      -9927.8006973        -8.6607239
    -0.54      0.3659       9874.8816738      -9887.0082748       -12.1266010
    -0.36      0.3638       9829.2477075      -9844.7732512       -15.5255437
    -0.18      0.3611       9782.8468933      -9800.9009382       -18.0540449
     0.00      0.3602       9735.0720197      -9754.0569318       -18.9849121
     0.18      0.3611       9686.5439131      -9704.5963333       -18.0524202
     0.36      0.3638       9636.6456793      -9652.1680075       -15.5223282
     0.54      0.3659       9585.9726483      -9598.0945044       -12.1218561
     0.72      0.3631       9533.9355962      -9542.5901217        -8.6545255
     0.90      0.3549       9481.1016896      -9486.9520168        -5.8503272
     1.08      0.3477       9426.9669409      -9431.2010180        -4.2340771
     1.26      0.3481       9372.0388930      -9376.2852436        -4.2463506
     1.44      0.3561       9315.8728576      -9321.7573046        -5.8844470
     1.62      0.3643       9258.8405874      -9267.5504529        -8.7098655
     1.80      0.3663       9200.5809647      -9212.7756848       -12.1947201
     1.98      0.3625       9141.3675986      -9156.9743798       -15.6067812
     2.16      0.3577       9080.9935307      -9099.1293436       -18.1358128
     2.34      0.3551       9019.6234817      -9038.6762237       -19.0527421
     2.52      0.3558       8957.1810463      -8975.2722733       -18.0912270
     2.70      0.3599       8893.6788271      -8909.2013752       -15.5225482
     2.88      0.3646       8829.1602209      -8841.2399005       -12.0796796
     3.06      0.3648       8763.4886215      -8772.0626537        -8.5740322
     3.24      0.3591       8696.8563472      -8702.5987049        -5.7423577
     3.42      0.3534       8629.0197217      -8633.1353040        -4.1155823
     3.60      0.3542       8560.3166005      -8564.4537374        -4.1371369
     3.78      0.3611       8490.3616083      -8496.1601889        -5.7985806
     3.96      0.3670       8419.5758099      -8428.2330034        -8.6571935
     4.14      0.3660       8347.4522004      -8359.6283636       -12.1761632
     4.32      0.3596       8274.5306813      -8290.1452355       -15.6145543
     4.50      0.3537       8200.2508926      -8218.4041748       -18.1532822
     4.68      0.3520       8125.2406326      -8144.3050194       -19.0643868
     4.86      0.3551       8048.8668372      -8066.9540778       -18.0872406
     5.04      0.3619       7971.7779900      -7987.2851191       -15.5071292
     5.22      0.3682       7893.2858415      -7905.3508096       -12.0649681
     5.40      0.3681       7814.0464188      -7822.6254371        -8.5790183
     5.58      0.3604       7733.3914237      -7739.1725457        -5.7811220
     5.76      0.3515       7651.9987339      -7656.1966908        -4.1979569
     5.94      0.3488       7569.2560257      -7573.5148586        -4.2588329
     6.12      0.3532       7485.7795454      -7491.7220777        -5.9425322
     6.30      0.3587       7400.9851433      -7409.7791639        -8.7940205
     6.48      0.3604       7315.3877593      -7327.6654377       -12.2776784
     6.66      0.3599       7228.5020580      -7244.1578035       -15.6557455
     6.84      0.3610       7140.7515939      -7158.8809351       -18.1293413
     7.02      0.3635       7051.7725590      -7070.7620854       -18.9895265
     7.20      0.3630       6961.8513930      -6979.8465853       -17.9951922
     7.38      0.3538       6870.7709711      -6886.1932337       -15.4222625
     7.56      0.3305       6778.7034114      -6790.6719056       -11.9684943
     7.74      0.2904       6685.6541498      -6694.0189947        -8.3648449
     7.92      0.2373       6591.7223936      -6596.9572492        -5.2348556
     8.10      0.1808       6497.1634628      -6500.2776965        -3.1142337
     8.28      0.1302       6401.9565138      -6403.9904680        -2.0339542
     8.46      0.0900       6306.5181589      -6307.9293462        -1.4111873
     8.64      0.0604       6210.6163633      -6211.5221856        -0.9058223
     8.82      0.0396       6114.7689104      -6115.3480463        -0.5791359
     9.00      0.0256       6018.5311183      -6018.8982668        -0.3671485
     9.18      0.0163       5922.5235228      -5922.7572477        -0.2337249
     9.36      0.0104       5826.1280305      -5826.2761274        -0.1480969
     9.54      0.0066       5730.0692144      -5730.1633902        -0.0941759
     9.72      0.0042       5633.5974132      -5633.6573547        -0.0599415
     9.90      0.0026       5537.5276884      -5537.5657022        -0.0380139
    10.08      0.0017       5441.0183371      -5441.0427939        -0.0244568
    10.26      0.0011       5344.9481360      -5344.9634772        -0.0153412
    10.44      0.0007       5248.4229225      -5248.4330476        -0.0101251
    10.62      0.0004       5152.3500496      -5152.3562069        -0.0061573
    10.80      0.0003       5055.8242221      -5055.8285285        -0.0043064
    10.98      0.0002       4959.7411576      -4959.7435779        -0.0024203
    11.16      0.0001       4863.2275252      -4863.2294499        -0.0019248
    11.34      0.0001       4767.1245822      -4767.1254796        -0.0008974
    11.52      0.0000       4670.6348843      -4670.6358189        -0.0009345
    11.70      0.0000       4574.5017320      -4574.5020104        -0.0002784
    11.88      0.0000       4478.0469221      -4478.0474324        -0.0005102
    12.06      0.0000       4381.8734435      -4381.8734770        -0.0000335
    12.24      0.0000       4285.4635632      -4285.4638811        -0.0003178
    12.42      0.0000       4189.2404431      -4189.2403870         0.0000561
    12.60      0.0000       4092.8843387      -4092.8845580        -0.0002193
    12.78      0.0000       3996.6035166      -3996.6034361         0.0000806
    12.96      0.0000       3900.3085215      -3900.3086822        -0.0001607
    13.14      0.0000       3803.9635649      -3803.9634880         0.0000769
    13.32      0.0000       3707.7351989      -3707.7353185        -0.0001196
    13.50      0.0000       3611.3216052      -3611.3215436         0.0000615
    13.68      0.0000       3515.1633223      -3515.1634090        -0.0000866
    13.86      0.0000       3418.6787508      -3418.6787090         0.0000418
    14.04      0.0000       3322.5917508      -3322.5918090        -0.0000582
    14.22      0.0000       3226.0361787      -3226.0361574         0.0000213
    14.40      0.0000       3130.0192935      -3130.0193266        -0.0000331
    14.58      0.0000       3033.3950907      -3033.3950891         0.0000016
    14.76      0.0000       2937.4447532      -2937.4447640        -0.0000108
    14.94      0.0000       2840.7566724      -2840.7566886        -0.0000162
    15.12      0.0000       2744.8669689      -2744.8669602         0.0000087
    15.30      0.0000       2648.1220512      -2648.1220829        -0.0000317
    15.48      0.0000       2552.2848580      -2552.2848328         0.0000252
    15.66      0.0000       2455.4922557      -2455.4923003        -0.0000446
    15.84      0.0000       2359.6974558      -2359.6974170         0.0000387
    16.02      0.0000       2262.8681782      -2262.8682329        -0.0000547
    16.20      0.0000       2167.1039510      -2167.1039018         0.0000492
    16.38      0.0000       2070.2505411      -2070.2506031        -0.0000619
    16.56      0.0000       1974.5037169      -1974.5036602         0.0000567
    16.74      0.0000       1877.6398698      -1877.6399361        -0.0000663
    16.92      0.0000       1781.8963349      -1781.8962738         0.0000612
    17.10      0.0000       1685.0364713      -1685.0365393        -0.0000680
    17.28      0.0000       1589.2816128      -1589.2815499         0.0000629
    17.46      0.0000       1492.4404212      -1492.4404883        -0.0000671
    17.64      0.0000       1396.6595931      -1396.6595312         0.0000619
    17.82      0.0000       1299.8515582      -1299.8516220        -0.0000638
    18.00      0.0000       1204.0305551      -1204.0304967         0.0000585
    18.18      0.0000       1107.2694870      -1107.2695453        -0.0000583
    18.36      0.0000       1011.3950073      -1011.3949544         0.0000529
    18.54      0.0000        914.6935898       -914.6936407        -0.0000509
    18.72      0.0000        818.7536720       -818.7536267         0.0000454
    18.90      0.0000        722.1230450       -722.1230871        -0.0000420
    19.08      0.0000        626.1074633       -626.1074270         0.0000363
    19.26      0.0000        529.5568540       -529.5568858        -0.0000318
    19.44      0.0000        433.4574567       -433.4574307         0.0000260
    19.62      0.0000        806.4716996       -806.4739956        -0.0022959
    19.80      0.0000       1950.1856685      -1950.1939275        -0.0082590
    19.98      0.0000       3611.3460797      -3611.3628430        -0.0167633
    20.16      0.0000       5537.4302724      -5537.4567454        -0.0264730


     convergence has been achieved in  20 iterations

     Forces acting on atoms (Ry/au):

     atom    1 type  1   force =    -0.00000094   -0.00000008   -0.00197771
     atom    2 type  1   force =     0.00000305   -0.00000396    0.00704751
     atom    3 type  1   force =    -0.00000240    0.00000350   -0.00549540
     atom    4 type  1   force =    -0.00000033    0.00000404   -0.00003569
     atom    5 type  1   force =    -0.00000102    0.00000014    0.00545367
     atom    6 type  1   force =     0.00000148   -0.00000116   -0.00699069
     atom    7 type  1   force =     0.00000015   -0.00000247    0.00199832

     Total force =     0.012899     Total SCF correction =     0.001350
     SCF correction compared to forces is large: reduce conv_thr to get better values

     Writing output data file Al111.save

     init_run     :      5.07s CPU      5.39s WALL (       1 calls)
     electrons    :    182.18s CPU    185.11s WALL (       1 calls)
     forces       :      1.50s CPU      1.58s WALL (       1 calls)

     Called by init_run:
     wfcinit      :      4.32s CPU      4.43s WALL (       1 calls)
     potinit      :      0.28s CPU      0.33s WALL (       1 calls)

     Called by electrons:
     c_bands      :    165.06s CPU    167.47s WALL (      20 calls)
     sum_band     :     15.01s CPU     15.25s WALL (      20 calls)
     v_of_rho     :      1.78s CPU      1.87s WALL (      21 calls)
     mix_rho      :      0.13s CPU      0.24s WALL (      20 calls)

     Called by c_bands:
     init_us_2    :      2.08s CPU      2.42s WALL (    1428 calls)
     cegterg      :    160.18s CPU    161.69s WALL (     680 calls)

     Called by *egterg:
     h_psi        :    122.79s CPU    123.09s WALL (    4805 calls)
     g_psi        :      2.17s CPU      2.19s WALL (    4091 calls)
     cdiaghg      :      5.65s CPU      5.67s WALL (    4771 calls)

     Called by h_psi:
     add_vuspsi   :     14.68s CPU     14.60s WALL (    4805 calls)

     General routines
     calbec       :     16.92s CPU     16.84s WALL (    4839 calls)
     fft          :      0.45s CPU      0.42s WALL (     234 calls)
     fftw         :     96.28s CPU     96.88s WALL (   80144 calls)
     davcio       :      0.02s CPU      0.65s WALL (    2108 calls)

     EXX routines

     PWSCF        :  3m 8.98s CPU     3m12.59s WALL


   This run was terminated on:  22:35:50  23Apr2012            

=------------------------------------------------------------------------------=
   JOB DONE.
=------------------------------------------------------------------------------=
