
     Program PWSCF v.4.3.2      starts on  5Oct2011 at 23:31: 0 

     This program is part of the open-source Quantum ESPRESSO suite
     for quantum simulation of materials; please cite
         "P. Giannozzi et al., J. Phys.:Condens. Matter 21 395502 (2009);
          URL http://www.quantum-espresso.org", 
     in publications or presentations arising from this work. More details at
     http://www.quantum-espresso.org/quote.php

     Parallel version (MPI), running on    12 processors
     R & G space division:  proc/pool =   12

     Current dimensions of program PWSCF are:
     Max number of different atomic species (ntypx) = 10
     Max number of k-points (npk) =  40000
     Max angular momentum in pseudopotentials (lmaxx) =  3
     Waiting for input...
     Reading input from stdin

     Subspace diagonalization in iterative solution of the eigenvalue problem:
     a serial algorithm will be used


     Parallelization info
     --------------------
     sticks:   dense  smooth     PW     G-vecs:    dense   smooth      PW
     Min          13      13      5                 1955     1955     435
     Max          14      14      6                 1996     1996     467
     Sum         163     163     61                23647    23647    5473



     bravais-lattice index     =            0
     lattice parameter (alat)  =       7.6534  a.u.
     unit-cell volume          =    1941.1667 (a.u.)^3
     number of atoms/cell      =            7
     number of atomic types    =            1
     number of electrons       =        21.00
     number of Kohn-Sham states=           15
     kinetic-energy cutoff     =      20.0000  Ry
     charge density cutoff     =      80.0000  Ry
     convergence threshold     =      1.0E-06
     mixing beta               =       0.5000
     number of iterations used =            8  plain     mixing
     Exchange-correlation      =  SLA  PW   PBE  PBE ( 1 4 3 4 0)
     EXX-fraction              =        0.00

     Effective Screening Medium Method
     =================================
     field strength (Ry/a.u.)         =       0.00 
     ESM offset from cell edge (a.u.) =       0.00 
     grid points for fit at edges     =          4 
     Boundary Conditions: Vacuum-Slab-Metal


     celldm(1)=   7.653394  celldm(2)=   0.000000  celldm(3)=   0.000000
     celldm(4)=   0.000000  celldm(5)=   0.000000  celldm(6)=   0.000000

     crystal axes: (cart. coord. in units of alat)
               a(1) = (   0.707107   0.000000   0.000000 )  
               a(2) = (   0.353553   0.612372   0.000000 )  
               a(3) = (   0.000000   0.000000  10.000000 )  

     reciprocal axes: (cart. coord. in units 2 pi/alat)
               b(1) = (  1.414214 -0.816497  0.000000 )  
               b(2) = (  0.000000  1.632993  0.000000 )  
               b(3) = (  0.000000  0.000000  0.100000 )  


     PseudoPot. # 1 for Al read from file:
     /p/lscratchd/wood37/data/old_scratcha/esm_code_svn/trunk/espresso/pseudo/Al.pbe-rrkj.UPF
     MD5 check sum: b5320f8fdc07ab0d74f109f4aa58256b
     Pseudo is Norm-conserving, Zval =  3.0
     Generated by new atomic code, or converted to UPF format
     Using radial grid of  879 points,  4 beta functions with: 
                l(1) =   0
                l(2) =   0
                l(3) =   1
                l(4) =   1

     atomic species   valence    mass     pseudopotential
        Al             3.00    26.98154     Al( 1.00)

     No symmetry found



   Cartesian axes

     site n.     atom                  positions (alat units)
         1           Al  tau(   1) = (   0.0000000   0.0000000  -1.7320512  )
         2           Al  tau(   2) = (   0.0000000   0.4082492  -1.1547008  )
         3           Al  tau(   3) = (   0.3535529   0.2041234  -0.5773504  )
         4           Al  tau(   4) = (   0.0000000   0.0000000   0.0000000  )
         5           Al  tau(   5) = (   0.0000000   0.4082492   0.5773504  )
         6           Al  tau(   6) = (   0.3535529   0.2041234   1.1547008  )
         7           Al  tau(   7) = (   0.0000000   0.0000000   1.7320512  )

     number of k points=    34  Methfessel-Paxton smearing, width (Ry)=  0.0500
                       cart. coord. in units 2pi/alat
        k(    1) = (   0.0000000   0.0000000   0.0000000), wk =   0.0312500
        k(    2) = (   0.0000000   0.2041241   0.0000000), wk =   0.0625000
        k(    3) = (   0.0000000   0.4082483   0.0000000), wk =   0.0625000
        k(    4) = (   0.0000000   0.6123724   0.0000000), wk =   0.0625000
        k(    5) = (   0.0000000  -0.8164966   0.0000000), wk =   0.0312500
        k(    6) = (   0.1767767  -0.1020621   0.0000000), wk =   0.0625000
        k(    7) = (   0.1767767   0.1020621   0.0000000), wk =   0.0625000
        k(    8) = (   0.1767767   0.3061862   0.0000000), wk =   0.0625000
        k(    9) = (   0.1767767   0.5103104   0.0000000), wk =   0.0625000
        k(   10) = (   0.1767767  -0.9185587   0.0000000), wk =   0.0625000
        k(   11) = (   0.1767767  -0.7144345   0.0000000), wk =   0.0625000
        k(   12) = (   0.1767767  -0.5103104   0.0000000), wk =   0.0625000
        k(   13) = (   0.1767767  -0.3061862   0.0000000), wk =   0.0625000
        k(   14) = (   0.3535534  -0.2041241   0.0000000), wk =   0.0625000
        k(   15) = (   0.3535534   0.0000000   0.0000000), wk =   0.0625000
        k(   16) = (   0.3535534   0.2041241   0.0000000), wk =   0.0625000
        k(   17) = (   0.3535534   0.4082483   0.0000000), wk =   0.0625000
        k(   18) = (   0.3535534  -1.0206207   0.0000000), wk =   0.0625000
        k(   19) = (   0.3535534  -0.8164966   0.0000000), wk =   0.0625000
        k(   20) = (   0.3535534  -0.6123724   0.0000000), wk =   0.0625000
        k(   21) = (   0.3535534  -0.4082483   0.0000000), wk =   0.0625000
        k(   22) = (   0.5303301  -0.3061862   0.0000000), wk =   0.0625000
        k(   23) = (   0.5303301  -0.1020621   0.0000000), wk =   0.0625000
        k(   24) = (   0.5303301   0.1020621   0.0000000), wk =   0.0625000
        k(   25) = (   0.5303301   0.3061862   0.0000000), wk =   0.0625000
        k(   26) = (   0.5303301  -1.1226828   0.0000000), wk =   0.0625000
        k(   27) = (   0.5303301  -0.9185587   0.0000000), wk =   0.0625000
        k(   28) = (   0.5303301  -0.7144345   0.0000000), wk =   0.0625000
        k(   29) = (   0.5303301  -0.5103104   0.0000000), wk =   0.0625000
        k(   30) = (  -0.7071068   0.4082483   0.0000000), wk =   0.0312500
        k(   31) = (  -0.7071068   0.6123724   0.0000000), wk =   0.0625000
        k(   32) = (  -0.7071068   0.8164966   0.0000000), wk =   0.0625000
        k(   33) = (  -0.7071068   1.0206207   0.0000000), wk =   0.0625000
        k(   34) = (  -0.7071068  -0.4082483   0.0000000), wk =   0.0312500

     Dense  grid:    23647 G-vectors     FFT dimensions: (  15,  15, 225)

     Largest allocated arrays     est. size (Mb)     dimensions
        Kohn-Sham Wavefunctions         0.06 Mb     (    264,   15)
        NL pseudopotentials             0.23 Mb     (    264,   56)
        Each V/rho on FFT grid          0.07 Mb     (   4275)
        Each G-vector array             0.01 Mb     (   1963)
        G-vector shells                 0.01 Mb     (    963)
     Largest temporary arrays     est. size (Mb)     dimensions
        Auxiliary wavefunctions         0.24 Mb     (    264,   60)
        Each subspace H/S matrix        0.05 Mb     (  60,  60)
        Each <psi_i|beta_j> matrix      0.01 Mb     (     56,   15)
        Arrays for rho mixing           0.52 Mb     (   4275,   8)

     Initial potential from superposition of free atoms

     starting charge   20.98187, renormalised to   21.00500

     negative rho (up, down):  0.215E-04 0.000E+00
     Starting wfc are   28 atomic wfcs

     total cpu time spent up to now is        0.6 secs

     per-process dynamical memory:     9.2 Mb

     Self-consistent Calculation

     iteration #  1     ecut=    20.00 Ry     beta=0.50
     Davidson diagonalization with overlap
     ethr =  1.00E-02,  avg # of iterations =  4.6

     negative rho (up, down):  0.430E-05 0.000E+00

     total cpu time spent up to now is        2.3 secs

     total energy              =     -27.59945573 Ry
     Harris-Foulkes estimate   =     -28.88943918 Ry
     estimated scf accuracy    <       1.26928922 Ry

     iteration #  2     ecut=    20.00 Ry     beta=0.50
     Davidson diagonalization with overlap
     c_bands:  3 eigenvalues not converged
     c_bands:  5 eigenvalues not converged
     c_bands:  5 eigenvalues not converged
     c_bands:  3 eigenvalues not converged
     c_bands:  2 eigenvalues not converged
     c_bands:  3 eigenvalues not converged
     c_bands:  3 eigenvalues not converged
     c_bands:  2 eigenvalues not converged
     c_bands:  3 eigenvalues not converged
     c_bands:  3 eigenvalues not converged
     c_bands:  3 eigenvalues not converged
     c_bands:  3 eigenvalues not converged
     c_bands:  2 eigenvalues not converged
     c_bands:  1 eigenvalues not converged
     c_bands:  1 eigenvalues not converged
     c_bands:  2 eigenvalues not converged
     c_bands:  5 eigenvalues not converged
     c_bands:  2 eigenvalues not converged
     c_bands:  2 eigenvalues not converged
     c_bands:  5 eigenvalues not converged
     c_bands:  3 eigenvalues not converged
     c_bands:  3 eigenvalues not converged
     c_bands:  5 eigenvalues not converged
     c_bands:  3 eigenvalues not converged
     c_bands:  1 eigenvalues not converged
     c_bands:  3 eigenvalues not converged
     c_bands:  5 eigenvalues not converged
     ethr =  6.04E-03,  avg # of iterations = 25.5

     negative rho (up, down):  0.132E-05 0.000E+00

     total cpu time spent up to now is        8.1 secs

     total energy              =      -9.58153406 Ry
     Harris-Foulkes estimate   =     -66.00998641 Ry
     estimated scf accuracy    <    1070.25177794 Ry

     iteration #  3     ecut=    20.00 Ry     beta=0.50
     Davidson diagonalization with overlap
     c_bands:  3 eigenvalues not converged
     c_bands:  5 eigenvalues not converged
     c_bands:  4 eigenvalues not converged
     c_bands:  5 eigenvalues not converged
     c_bands:  4 eigenvalues not converged
     c_bands:  4 eigenvalues not converged
     c_bands:  4 eigenvalues not converged
     c_bands:  3 eigenvalues not converged
     c_bands:  5 eigenvalues not converged
     c_bands:  5 eigenvalues not converged
     c_bands:  3 eigenvalues not converged
     c_bands:  4 eigenvalues not converged
     c_bands:  4 eigenvalues not converged
     c_bands:  4 eigenvalues not converged
     c_bands:  4 eigenvalues not converged
     c_bands:  3 eigenvalues not converged
     c_bands:  5 eigenvalues not converged
     c_bands:  1 eigenvalues not converged
     c_bands:  5 eigenvalues not converged
     c_bands:  3 eigenvalues not converged
     c_bands:  3 eigenvalues not converged
     c_bands:  3 eigenvalues not converged
     c_bands:  5 eigenvalues not converged
     c_bands:  1 eigenvalues not converged
     c_bands:  1 eigenvalues not converged
     c_bands:  5 eigenvalues not converged
     c_bands:  5 eigenvalues not converged
     c_bands:  5 eigenvalues not converged
     c_bands:  5 eigenvalues not converged
     c_bands:  5 eigenvalues not converged
     c_bands:  5 eigenvalues not converged
     ethr =  6.04E-03,  avg # of iterations = 20.0

     negative rho (up, down):  0.107E-06 0.000E+00

     total cpu time spent up to now is       13.1 secs

     total energy              =     -27.05211038 Ry
     Harris-Foulkes estimate   =     -28.51438994 Ry
     estimated scf accuracy    <      49.56566008 Ry

     iteration #  4     ecut=    20.00 Ry     beta=0.50
     Davidson diagonalization with overlap
     ethr =  6.04E-03,  avg # of iterations = 12.2

     total cpu time spent up to now is       15.5 secs

     total energy              =     -28.42666459 Ry
     Harris-Foulkes estimate   =     -29.62598661 Ry
     estimated scf accuracy    <      39.75140333 Ry

     iteration #  5     ecut=    20.00 Ry     beta=0.50
     Davidson diagonalization with overlap
     ethr =  6.04E-03,  avg # of iterations =  1.9

     total cpu time spent up to now is       16.2 secs

     total energy              =     -28.89964660 Ry
     Harris-Foulkes estimate   =     -28.97803917 Ry
     estimated scf accuracy    <       1.93855789 Ry

     iteration #  6     ecut=    20.00 Ry     beta=0.50
     Davidson diagonalization with overlap
     ethr =  6.04E-03,  avg # of iterations =  1.0

     negative rho (up, down):  0.679E-02 0.000E+00

     total cpu time spent up to now is       16.8 secs

     total energy              =     -28.98778224 Ry
     Harris-Foulkes estimate   =     -28.95571516 Ry
     estimated scf accuracy    <       3.92304836 Ry

     iteration #  7     ecut=    20.00 Ry     beta=0.50
     Davidson diagonalization with overlap
     ethr =  6.04E-03,  avg # of iterations =  1.0

     negative rho (up, down):  0.362E-01 0.000E+00

     total cpu time spent up to now is       17.5 secs

     total energy              =     -29.13358479 Ry
     Harris-Foulkes estimate   =     -29.00980189 Ry
     estimated scf accuracy    <       8.11144099 Ry

     iteration #  8     ecut=    20.00 Ry     beta=0.50
     Davidson diagonalization with overlap
     ethr =  6.04E-03,  avg # of iterations =  1.0

     negative rho (up, down):  0.355E-01 0.000E+00

     total cpu time spent up to now is       18.1 secs

     total energy              =     -28.68769423 Ry
     Harris-Foulkes estimate   =     -29.28447148 Ry
     estimated scf accuracy    <      22.51428858 Ry

     iteration #  9     ecut=    20.00 Ry     beta=0.50
     Davidson diagonalization with overlap
     ethr =  6.04E-03,  avg # of iterations =  1.0

     negative rho (up, down):  0.249E-01 0.000E+00

     total cpu time spent up to now is       18.7 secs

     total energy              =     -28.97992838 Ry
     Harris-Foulkes estimate   =     -29.07346472 Ry
     estimated scf accuracy    <       0.69778113 Ry

     iteration # 10     ecut=    20.00 Ry     beta=0.50
     Davidson diagonalization with overlap
     ethr =  3.32E-03,  avg # of iterations =  1.0

     negative rho (up, down):  0.202E-01 0.000E+00

     total cpu time spent up to now is       19.3 secs

     total energy              =     -28.88886815 Ry
     Harris-Foulkes estimate   =     -28.99140744 Ry
     estimated scf accuracy    <       0.05872560 Ry

     iteration # 11     ecut=    20.00 Ry     beta=0.50
     Davidson diagonalization with overlap
     c_bands:  2 eigenvalues not converged
     c_bands:  5 eigenvalues not converged
     c_bands:  5 eigenvalues not converged
     c_bands:  2 eigenvalues not converged
     c_bands:  5 eigenvalues not converged
     c_bands:  2 eigenvalues not converged
     ethr =  2.80E-04,  avg # of iterations = 11.1

     negative rho (up, down):  0.224E-01 0.000E+00

     total cpu time spent up to now is       21.1 secs

     total energy              =     -28.68301158 Ry
     Harris-Foulkes estimate   =     -28.91555912 Ry
     estimated scf accuracy    <       0.22031471 Ry

     iteration # 12     ecut=    20.00 Ry     beta=0.50
     Davidson diagonalization with overlap
     c_bands:  4 eigenvalues not converged
     c_bands:  4 eigenvalues not converged
     c_bands:  1 eigenvalues not converged
     c_bands:  4 eigenvalues not converged
     c_bands:  4 eigenvalues not converged
     c_bands:  2 eigenvalues not converged
     c_bands:  1 eigenvalues not converged
     c_bands:  1 eigenvalues not converged
     c_bands:  2 eigenvalues not converged
     c_bands:  1 eigenvalues not converged
     c_bands:  2 eigenvalues not converged
     c_bands:  1 eigenvalues not converged
     c_bands:  1 eigenvalues not converged
     c_bands:  3 eigenvalues not converged
     c_bands:  1 eigenvalues not converged
     c_bands:  1 eigenvalues not converged
     c_bands:  3 eigenvalues not converged
     c_bands:  3 eigenvalues not converged
     c_bands:  1 eigenvalues not converged
     c_bands:  1 eigenvalues not converged
     c_bands:  1 eigenvalues not converged
     ethr =  2.80E-04,  avg # of iterations = 16.1

     negative rho (up, down):  0.428E-02 0.000E+00

     total cpu time spent up to now is       23.5 secs

     total energy              =     -29.07165915 Ry
     Harris-Foulkes estimate   =     -29.01746205 Ry
     estimated scf accuracy    <      24.79971599 Ry

     iteration # 13     ecut=    20.00 Ry     beta=0.50
     Davidson diagonalization with overlap
     c_bands:  1 eigenvalues not converged
     c_bands:  1 eigenvalues not converged
     c_bands:  1 eigenvalues not converged
     ethr =  2.80E-04,  avg # of iterations = 10.9

     negative rho (up, down):  0.876E-02 0.000E+00

     total cpu time spent up to now is       25.3 secs

     total energy              =     -28.85478271 Ry
     Harris-Foulkes estimate   =     -29.16748110 Ry
     estimated scf accuracy    <      16.97965044 Ry

     iteration # 14     ecut=    20.00 Ry     beta=0.50
     Davidson diagonalization with overlap
     ethr =  2.80E-04,  avg # of iterations =  5.1

     negative rho (up, down):  0.499E-02 0.000E+00

     total cpu time spent up to now is       26.4 secs

     total energy              =     -28.90639878 Ry
     Harris-Foulkes estimate   =     -28.92461992 Ry
     estimated scf accuracy    <       3.29056343 Ry

     iteration # 15     ecut=    20.00 Ry     beta=0.50
     Davidson diagonalization with overlap
     ethr =  2.80E-04,  avg # of iterations =  1.6

     negative rho (up, down):  0.729E-03 0.000E+00

     total cpu time spent up to now is       27.4 secs

     total energy              =     -28.91079082 Ry
     Harris-Foulkes estimate   =     -28.90895639 Ry
     estimated scf accuracy    <       2.50814733 Ry

     iteration # 16     ecut=    20.00 Ry     beta=0.50
     Davidson diagonalization with overlap
     ethr =  2.80E-04,  avg # of iterations =  6.0

     negative rho (up, down):  0.943E-03 0.000E+00

     total cpu time spent up to now is       28.9 secs

     total energy              =     -28.93998224 Ry
     Harris-Foulkes estimate   =     -28.93506493 Ry
     estimated scf accuracy    <       0.53799226 Ry

     iteration # 17     ecut=    20.00 Ry     beta=0.50
     Davidson diagonalization with overlap
     ethr =  2.80E-04,  avg # of iterations =  1.0

     negative rho (up, down):  0.504E-04 0.000E+00

     total cpu time spent up to now is       29.6 secs

     total energy              =     -28.92325394 Ry
     Harris-Foulkes estimate   =     -28.94459878 Ry
     estimated scf accuracy    <       0.07478956 Ry

     iteration # 18     ecut=    20.00 Ry     beta=0.50
     Davidson diagonalization with overlap
     ethr =  2.80E-04,  avg # of iterations =  1.0

     total cpu time spent up to now is       30.2 secs

     total energy              =     -28.93070456 Ry
     Harris-Foulkes estimate   =     -28.92694925 Ry
     estimated scf accuracy    <       0.20060147 Ry

     iteration # 19     ecut=    20.00 Ry     beta=0.50
     Davidson diagonalization with overlap
     ethr =  2.80E-04,  avg # of iterations =  1.9

     total cpu time spent up to now is       30.9 secs

     total energy              =     -28.93000451 Ry
     Harris-Foulkes estimate   =     -28.93923185 Ry
     estimated scf accuracy    <       0.14524685 Ry

     iteration # 20     ecut=    20.00 Ry     beta=0.50
     Davidson diagonalization with overlap
     ethr =  2.80E-04,  avg # of iterations =  1.0

     negative rho (up, down):  0.201E-05 0.000E+00

     total cpu time spent up to now is       32.0 secs

     total energy              =     -28.92735652 Ry
     Harris-Foulkes estimate   =     -28.93089466 Ry
     estimated scf accuracy    <       0.02909223 Ry

     iteration # 21     ecut=    20.00 Ry     beta=0.50
     Davidson diagonalization with overlap
     ethr =  1.39E-04,  avg # of iterations =  1.9

     negative rho (up, down):  0.112E-04 0.000E+00

     total cpu time spent up to now is       32.7 secs

     total energy              =     -28.92793657 Ry
     Harris-Foulkes estimate   =     -28.92807456 Ry
     estimated scf accuracy    <       0.00049877 Ry

     iteration # 22     ecut=    20.00 Ry     beta=0.50
     Davidson diagonalization with overlap
     c_bands:  2 eigenvalues not converged
     c_bands:  3 eigenvalues not converged
     c_bands:  2 eigenvalues not converged
     c_bands:  2 eigenvalues not converged
     c_bands:  4 eigenvalues not converged
     c_bands:  2 eigenvalues not converged
     c_bands:  2 eigenvalues not converged
     c_bands:  2 eigenvalues not converged
     c_bands:  2 eigenvalues not converged
     c_bands:  4 eigenvalues not converged
     c_bands:  4 eigenvalues not converged
     c_bands:  2 eigenvalues not converged
     c_bands:  4 eigenvalues not converged
     c_bands:  1 eigenvalues not converged
     c_bands:  4 eigenvalues not converged
     c_bands:  2 eigenvalues not converged
     c_bands:  2 eigenvalues not converged
     c_bands:  2 eigenvalues not converged
     c_bands:  2 eigenvalues not converged
     c_bands:  1 eigenvalues not converged
     c_bands:  1 eigenvalues not converged
     c_bands:  2 eigenvalues not converged
     c_bands:  2 eigenvalues not converged
     c_bands:  4 eigenvalues not converged
     c_bands:  2 eigenvalues not converged
     ethr =  2.37E-06,  avg # of iterations = 19.1

     total cpu time spent up to now is       35.8 secs

     total energy              =     -28.93016361 Ry
     Harris-Foulkes estimate   =     -28.92969574 Ry
     estimated scf accuracy    <       0.00426333 Ry

     iteration # 23     ecut=    20.00 Ry     beta=0.50
     Davidson diagonalization with overlap
     c_bands:  4 eigenvalues not converged
     c_bands:  1 eigenvalues not converged
     c_bands:  1 eigenvalues not converged
     c_bands:  1 eigenvalues not converged
     c_bands:  1 eigenvalues not converged
     c_bands:  4 eigenvalues not converged
     c_bands:  4 eigenvalues not converged
     c_bands:  1 eigenvalues not converged
     c_bands:  2 eigenvalues not converged
     c_bands:  2 eigenvalues not converged
     c_bands:  1 eigenvalues not converged
     c_bands:  1 eigenvalues not converged
     c_bands:  1 eigenvalues not converged
     c_bands:  1 eigenvalues not converged
     c_bands:  1 eigenvalues not converged
     c_bands:  1 eigenvalues not converged
     c_bands:  1 eigenvalues not converged
     c_bands:  1 eigenvalues not converged
     ethr =  2.37E-06,  avg # of iterations = 12.8

     total cpu time spent up to now is       37.4 secs

     total energy              =     -28.93060645 Ry
     Harris-Foulkes estimate   =     -28.93017023 Ry
     estimated scf accuracy    <       0.00571423 Ry

     iteration # 24     ecut=    20.00 Ry     beta=0.50
     Davidson diagonalization with overlap
     c_bands:  3 eigenvalues not converged
     c_bands:  3 eigenvalues not converged
     c_bands:  3 eigenvalues not converged
     c_bands:  1 eigenvalues not converged
     c_bands:  1 eigenvalues not converged
     c_bands:  1 eigenvalues not converged
     ethr =  2.37E-06,  avg # of iterations =  7.4

     negative rho (up, down):  0.115E-03 0.000E+00

     total cpu time spent up to now is       38.5 secs

     total energy              =     -28.92860117 Ry
     Harris-Foulkes estimate   =     -28.93058751 Ry
     estimated scf accuracy    <       0.00509987 Ry

     iteration # 25     ecut=    20.00 Ry     beta=0.50
     Davidson diagonalization with overlap
     c_bands:  1 eigenvalues not converged
     ethr =  2.37E-06,  avg # of iterations =  5.1

     negative rho (up, down):  0.748E-04 0.000E+00

     total cpu time spent up to now is       39.6 secs

     total energy              =     -28.92878853 Ry
     Harris-Foulkes estimate   =     -28.92880840 Ry
     estimated scf accuracy    <       0.00314216 Ry

     iteration # 26     ecut=    20.00 Ry     beta=0.50
     Davidson diagonalization with overlap
     ethr =  2.37E-06,  avg # of iterations =  1.4

     negative rho (up, down):  0.646E-04 0.000E+00

     total cpu time spent up to now is       40.2 secs

     total energy              =     -28.92899260 Ry
     Harris-Foulkes estimate   =     -28.92887069 Ry
     estimated scf accuracy    <       0.00066344 Ry

     iteration # 27     ecut=    20.00 Ry     beta=0.50
     Davidson diagonalization with overlap
     ethr =  2.37E-06,  avg # of iterations =  1.0

     negative rho (up, down):  0.581E-04 0.000E+00

     total cpu time spent up to now is       40.8 secs

     total energy              =     -28.92914353 Ry
     Harris-Foulkes estimate   =     -28.92900731 Ry
     estimated scf accuracy    <       0.00048946 Ry

     iteration # 28     ecut=    20.00 Ry     beta=0.50
     Davidson diagonalization with overlap
     ethr =  2.33E-06,  avg # of iterations =  1.0

     negative rho (up, down):  0.192E-05 0.000E+00

     total cpu time spent up to now is       41.4 secs

     total energy              =     -28.92972147 Ry
     Harris-Foulkes estimate   =     -28.92915252 Ry
     estimated scf accuracy    <       0.00024379 Ry

     iteration # 29     ecut=    20.00 Ry     beta=0.50
     Davidson diagonalization with overlap
     ethr =  1.16E-06,  avg # of iterations =  2.6

     negative rho (up, down):  0.302E-05 0.000E+00

     total cpu time spent up to now is       42.2 secs

     total energy              =     -28.92972771 Ry
     Harris-Foulkes estimate   =     -28.92973766 Ry
     estimated scf accuracy    <       0.00008411 Ry

     iteration # 30     ecut=    20.00 Ry     beta=0.50
     Davidson diagonalization with overlap
     ethr =  4.00E-07,  avg # of iterations =  7.4

     negative rho (up, down):  0.607E-05 0.000E+00

     total cpu time spent up to now is       43.6 secs

     total energy              =     -28.92984803 Ry
     Harris-Foulkes estimate   =     -28.92977421 Ry
     estimated scf accuracy    <       0.00007946 Ry

     iteration # 31     ecut=    20.00 Ry     beta=0.50
     Davidson diagonalization with overlap
     ethr =  3.78E-07,  avg # of iterations =  2.7

     negative rho (up, down):  0.103E-04 0.000E+00

     total cpu time spent up to now is       44.3 secs

     total energy              =     -28.92999466 Ry
     Harris-Foulkes estimate   =     -28.92985330 Ry
     estimated scf accuracy    <       0.00014979 Ry

     iteration # 32     ecut=    20.00 Ry     beta=0.50
     Davidson diagonalization with overlap
     ethr =  3.78E-07,  avg # of iterations =  2.3

     total cpu time spent up to now is       45.0 secs

     total energy              =     -28.92981473 Ry
     Harris-Foulkes estimate   =     -28.92999583 Ry
     estimated scf accuracy    <       0.00014646 Ry

     iteration # 33     ecut=    20.00 Ry     beta=0.50
     Davidson diagonalization with overlap
     ethr =  3.78E-07,  avg # of iterations =  1.0

     total cpu time spent up to now is       45.7 secs

     total energy              =     -28.92983333 Ry
     Harris-Foulkes estimate   =     -28.92981750 Ry
     estimated scf accuracy    <       0.00007379 Ry

     iteration # 34     ecut=    20.00 Ry     beta=0.50
     Davidson diagonalization with overlap
     ethr =  3.51E-07,  avg # of iterations =  1.1

     total cpu time spent up to now is       46.3 secs

     total energy              =     -28.92982897 Ry
     Harris-Foulkes estimate   =     -28.92983731 Ry
     estimated scf accuracy    <       0.00001981 Ry

     iteration # 35     ecut=    20.00 Ry     beta=0.50
     Davidson diagonalization with overlap
     ethr =  9.43E-08,  avg # of iterations =  2.7

     negative rho (up, down):  0.148E-06 0.000E+00

     total cpu time spent up to now is       47.1 secs

     total energy              =     -28.92978731 Ry
     Harris-Foulkes estimate   =     -28.92983230 Ry
     estimated scf accuracy    <       0.00000702 Ry

     iteration # 36     ecut=    20.00 Ry     beta=0.50
     Davidson diagonalization with overlap
     ethr =  3.34E-08,  avg # of iterations =  4.1

     total cpu time spent up to now is       48.2 secs

     total energy              =     -28.92981410 Ry
     Harris-Foulkes estimate   =     -28.92979288 Ry
     estimated scf accuracy    <       0.00000336 Ry

     iteration # 37     ecut=    20.00 Ry     beta=0.50
     Davidson diagonalization with overlap
     ethr =  1.60E-08,  avg # of iterations =  1.8

     total cpu time spent up to now is       48.8 secs

     total energy              =     -28.92981330 Ry
     Harris-Foulkes estimate   =     -28.92981427 Ry
     estimated scf accuracy    <       0.00000232 Ry

     iteration # 38     ecut=    20.00 Ry     beta=0.50
     Davidson diagonalization with overlap
     ethr =  1.10E-08,  avg # of iterations =  1.0

     total cpu time spent up to now is       49.5 secs

     total energy              =     -28.92981379 Ry
     Harris-Foulkes estimate   =     -28.92981336 Ry
     estimated scf accuracy    <       0.00000156 Ry

     iteration # 39     ecut=    20.00 Ry     beta=0.50
     Davidson diagonalization with overlap
     ethr =  7.45E-09,  avg # of iterations =  1.8

     total cpu time spent up to now is       50.1 secs

     total energy              =     -28.92980480 Ry
     Harris-Foulkes estimate   =     -28.92981383 Ry
     estimated scf accuracy    <       0.00000113 Ry

     iteration # 40     ecut=    20.00 Ry     beta=0.50
     Davidson diagonalization with overlap
     ethr =  5.38E-09,  avg # of iterations =  4.3

     total cpu time spent up to now is       51.1 secs

     End of self-consistent calculation

          k = 0.0000 0.0000 0.0000 (  2893 PWs)   bands (ev):

   -13.4378 -13.0776 -12.4829 -11.6499 -10.5755  -9.3194  -7.8256  -6.3517
    -4.5340  -2.6941  -0.9191   0.4135   0.6610   1.1484   1.4477

          k = 0.0000 0.2041 0.0000 (  2891 PWs)   bands (ev):

   -13.0638 -12.7043 -12.1108 -11.2795 -10.2072  -8.9533  -7.4598  -6.0000
    -4.1833  -2.3499  -0.5811   0.7672   1.0366   1.5129   1.8170

          k = 0.0000 0.4082 0.0000 (  2909 PWs)   bands (ev):

   -11.9470 -11.5898 -11.0003 -10.1743  -9.1087  -7.8628  -6.3757  -4.9512
    -3.1637  -1.4558  -0.4709   0.0002   0.4095   0.7474   1.2514

          k = 0.0000 0.6124 0.0000 (  2936 PWs)   bands (ev):

   -10.1040  -9.7511  -9.1688  -8.3537  -7.3047  -6.0905  -4.7494  -4.3720
    -3.9824  -3.3812  -3.0060  -2.5379  -1.5479  -1.2562  -0.3624

          k = 0.0000-0.8165 0.0000 (  2982 PWs)   bands (ev):

    -7.5717  -7.5608  -7.2544  -7.1898  -6.6863  -6.6260  -5.9127  -5.8676
    -5.0207  -4.4600  -3.4907  -3.3856  -2.0709  -1.9332  -0.7950

          k = 0.1768-0.1021 0.0000 (  2891 PWs)   bands (ev):

   -13.0638 -12.7043 -12.1108 -11.2795 -10.2072  -8.9533  -7.4598  -6.0000
    -4.1833  -2.3499  -0.5811   0.7672   1.0365   1.5129   1.8169

          k = 0.1768 0.1021 0.0000 (  2891 PWs)   bands (ev):

   -13.0638 -12.7043 -12.1108 -11.2795 -10.2072  -8.9533  -7.4598  -6.0000
    -4.1833  -2.3499  -0.5811   0.7672   1.0365   1.5129   1.8170

          k = 0.1768 0.3062 0.0000 (  2894 PWs)   bands (ev):

   -12.3184 -11.9604 -11.3695 -10.5417  -9.4737  -8.2248  -6.7343  -5.2990
    -3.4924  -1.6878   0.0209   1.3047   1.7585   1.9848   2.1994

          k = 0.1768 0.5103 0.0000 (  2934 PWs)   bands (ev):

   -10.8384 -10.4837  -9.8983  -9.0783  -8.0208  -6.7869  -5.3212  -3.9298
    -2.5101  -2.1023  -1.6426  -1.1927  -0.5450  -0.2337   0.4352

          k = 0.1768-0.9186 0.0000 (  2943 PWs)   bands (ev):

    -8.6465  -8.2978  -7.7233  -6.9237  -5.9413  -5.7516  -5.4467  -5.0342
    -4.6125  -3.9124  -3.0252  -2.8873  -1.8265  -1.7050  -0.5192

          k = 0.1768-0.7144 0.0000 (  2943 PWs)   bands (ev):

    -8.6465  -8.2978  -7.7233  -6.9237  -5.9413  -5.7516  -5.4467  -5.0342
    -4.6125  -3.9124  -3.0252  -2.8873  -1.8265  -1.7050  -0.5192

          k = 0.1768-0.5103 0.0000 (  2934 PWs)   bands (ev):

   -10.8384 -10.4837  -9.8983  -9.0783  -8.0208  -6.7869  -5.3212  -3.9298
    -2.5101  -2.1023  -1.6426  -1.1927  -0.5450  -0.2337   0.4352

          k = 0.1768-0.3062 0.0000 (  2894 PWs)   bands (ev):

   -12.3184 -11.9604 -11.3695 -10.5417  -9.4737  -8.2248  -6.7343  -5.2990
    -3.4924  -1.6878   0.0209   1.3047   1.7585   1.9848   2.1994

          k = 0.3536-0.2041 0.0000 (  2909 PWs)   bands (ev):

   -11.9470 -11.5898 -11.0003 -10.1743  -9.1087  -7.8628  -6.3757  -4.9512
    -3.1637  -1.4558  -0.4709   0.0002   0.4095   0.7474   1.2513

          k = 0.3536 0.0000 0.0000 (  2894 PWs)   bands (ev):

   -12.3184 -11.9604 -11.3695 -10.5417  -9.4737  -8.2248  -6.7343  -5.2990
    -3.4924  -1.6878   0.0209   1.3048   1.7585   1.9848   2.1991

          k = 0.3536 0.2041 0.0000 (  2909 PWs)   bands (ev):

   -11.9470 -11.5898 -11.0003 -10.1743  -9.1087  -7.8628  -6.3757  -4.9512
    -3.1637  -1.4558  -0.4709   0.0002   0.4095   0.7474   1.2513

          k = 0.3536 0.4082 0.0000 (  2934 PWs)   bands (ev):

   -10.8384 -10.4837  -9.8983  -9.0783  -8.0208  -6.7869  -5.3212  -3.9298
    -2.5101  -2.1023  -1.6426  -1.1927  -0.5450  -0.2337   0.4352

          k = 0.3536-1.0206 0.0000 (  2964 PWs)   bands (ev):

    -9.0092  -8.6591  -8.0819  -7.2752  -6.2403  -5.0550  -3.7970  -3.3502
    -3.3399  -3.1115  -2.8611  -2.4371  -2.1422  -1.8850  -1.6308

          k = 0.3536-0.8165 0.0000 (  2968 PWs)   bands (ev):

    -6.4987  -6.4868  -6.1907  -6.1162  -5.6319  -5.5564  -4.8648  -4.8303
    -4.0139  -3.7299  -3.4152  -3.3733  -2.9552  -2.7169  -2.1439

          k = 0.3536-0.6124 0.0000 (  2964 PWs)   bands (ev):

    -9.0092  -8.6591  -8.0819  -7.2752  -6.2403  -5.0550  -3.7970  -3.3502
    -3.3399  -3.1115  -2.8611  -2.4371  -2.1422  -1.8850  -1.6309

          k = 0.3536-0.4082 0.0000 (  2934 PWs)   bands (ev):

   -10.8384 -10.4837  -9.8983  -9.0783  -8.0208  -6.7869  -5.3212  -3.9298
    -2.5101  -2.1023  -1.6426  -1.1927  -0.5450  -0.2337   0.4352

          k = 0.5303-0.3062 0.0000 (  2936 PWs)   bands (ev):

   -10.1040  -9.7511  -9.1688  -8.3537  -7.3047  -6.0905  -4.7494  -4.3720
    -3.9824  -3.3812  -3.0060  -2.5379  -1.5479  -1.2562  -0.3624

          k = 0.5303-0.1021 0.0000 (  2934 PWs)   bands (ev):

   -10.8384 -10.4837  -9.8983  -9.0783  -8.0208  -6.7869  -5.3212  -3.9298
    -2.5101  -2.1023  -1.6426  -1.1927  -0.5450  -0.2337   0.4352

          k = 0.5303 0.1021 0.0000 (  2934 PWs)   bands (ev):

   -10.8384 -10.4837  -9.8983  -9.0783  -8.0208  -6.7869  -5.3212  -3.9298
    -2.5101  -2.1023  -1.6426  -1.1927  -0.5450  -0.2337   0.4352

          k = 0.5303 0.3062 0.0000 (  2936 PWs)   bands (ev):

   -10.1040  -9.7511  -9.1688  -8.3537  -7.3047  -6.0905  -4.7494  -4.3720
    -3.9824  -3.3812  -3.0060  -2.5379  -1.5479  -1.2562  -0.3624

          k = 0.5303-1.1227 0.0000 (  2943 PWs)   bands (ev):

    -8.6465  -8.2978  -7.7233  -6.9237  -5.9413  -5.7516  -5.4467  -5.0342
    -4.6125  -3.9124  -3.0252  -2.8873  -1.8265  -1.7050  -0.5194

          k = 0.5303-0.9186 0.0000 (  2968 PWs)   bands (ev):

    -6.4987  -6.4868  -6.1907  -6.1162  -5.6319  -5.5564  -4.8648  -4.8303
    -4.0139  -3.7299  -3.4152  -3.3733  -2.9552  -2.7169  -2.1439

          k = 0.5303-0.7144 0.0000 (  2968 PWs)   bands (ev):

    -6.4987  -6.4868  -6.1907  -6.1162  -5.6319  -5.5564  -4.8648  -4.8303
    -4.0139  -3.7299  -3.4152  -3.3733  -2.9552  -2.7169  -2.1439

          k = 0.5303-0.5103 0.0000 (  2943 PWs)   bands (ev):

    -8.6465  -8.2978  -7.7233  -6.9237  -5.9413  -5.7516  -5.4467  -5.0342
    -4.6125  -3.9124  -3.0252  -2.8873  -1.8265  -1.7050  -0.5194

          k =-0.7071 0.4082 0.0000 (  2982 PWs)   bands (ev):

    -7.5717  -7.5608  -7.2544  -7.1898  -6.6863  -6.6260  -5.9127  -5.8676
    -5.0207  -4.4600  -3.4907  -3.3856  -2.0710  -1.9331  -0.7949

          k =-0.7071 0.6124 0.0000 (  2943 PWs)   bands (ev):

    -8.6465  -8.2978  -7.7233  -6.9237  -5.9413  -5.7516  -5.4467  -5.0342
    -4.6125  -3.9124  -3.0252  -2.8873  -1.8265  -1.7050  -0.5194

          k =-0.7071 0.8165 0.0000 (  2964 PWs)   bands (ev):

    -9.0092  -8.6591  -8.0819  -7.2752  -6.2403  -5.0550  -3.7970  -3.3502
    -3.3399  -3.1115  -2.8611  -2.4371  -2.1422  -1.8850  -1.6310

          k =-0.7071 1.0206 0.0000 (  2943 PWs)   bands (ev):

    -8.6465  -8.2978  -7.7233  -6.9237  -5.9413  -5.7516  -5.4467  -5.0342
    -4.6125  -3.9124  -3.0252  -2.8873  -1.8265  -1.7050  -0.5194

          k =-0.7071-0.4082 0.0000 (  2982 PWs)   bands (ev):

    -7.5717  -7.5608  -7.2544  -7.1898  -6.6863  -6.6260  -5.9127  -5.8676
    -5.0207  -4.4600  -3.4907  -3.3856  -2.0710  -1.9331  -0.7949

     the Fermi energy is    -2.5436 ev

!    total energy              =     -28.92980063 Ry
     Harris-Foulkes estimate   =     -28.92980525 Ry
     estimated scf accuracy    <       0.00000026 Ry

     The total energy is the sum of the following terms:

     one-electron contribution =  -14456.72364626 Ry
     hartree contribution      =    7230.33962871 Ry
     xc contribution           =     -11.06686894 Ry
     ewald contribution        =    7208.51839567 Ry
     smearing contrib. (-TS)   =       0.00269019 Ry

     ESM Charge and Potential
     ========================

    z (A)      rho (e)      Avg v_hartree        Avg v_local  Avg v_hart+v_loc
                                     (eV)               (eV)              (eV)
    ==========================================================================
  -20.160      0.00000       7476.6690540      -7475.6514294         1.0176246
  -19.980      0.00000       9174.1873960      -9172.9442533         1.2431427
  -19.800      0.00000      10378.2703623     -10376.8668822         1.4034802
  -19.620      0.00000      10835.6138566     -10834.1494345         1.4644221
  -19.440      0.00000      10835.8212962     -10834.3567985         1.4644977
  -19.260      0.00000      10835.5711840     -10834.1067790         1.4644051
  -19.080      0.00000      10835.8621908     -10834.3976771         1.4645137
  -18.900      0.00000      10835.5323520     -10834.0679625         1.4643895
  -18.720      0.00000      10835.8986913     -10834.4341634         1.4645279
  -18.540      0.00000      10835.4984308     -10834.0340550         1.4643758
  -18.360      0.00000      10835.9298048     -10834.4652650         1.4645398
  -18.180      0.00000      10835.4703278     -10834.0059633         1.4643645
  -18.000      0.00000      10835.9547167     -10834.4901678         1.4645489
  -17.820      0.00000      10835.4487582     -10833.9844021         1.4643561
  -17.640      0.00000      10835.9728170     -10834.5082621         1.4645549
  -17.460      0.00000      10835.4342222     -10833.9698714         1.4643508
  -17.280      0.00000      10835.9837190     -10834.5191615         1.4645575
  -17.100      0.00000      10835.4269903     -10833.9626414         1.4643489
  -16.920      0.00000      10835.9872700     -10834.5227137         1.4645563
  -16.740      0.00000      10835.4270965     -10833.9627459         1.4643506
  -16.560      0.00000      10835.9835544     -10834.5190030         1.4645514
  -16.380      0.00000      10835.4343397     -10833.9699836         1.4643561
  -16.200      0.00000      10835.9728876     -10834.5083451         1.4645425
  -16.020      0.00000      10835.4482935     -10833.9839282         1.4643654
  -15.840      0.00000      10835.9558026     -10834.4912729         1.4645297
  -15.660      0.00000      10835.4683236     -10834.0039452         1.4643783
  -15.480      0.00000      10835.9330288     -10834.4685158         1.4645131
  -15.300      0.00000      10835.4936122     -10834.0292174         1.4643948
  -15.120      0.00000      10835.9054642     -10834.4409715         1.4644928
  -14.940      0.00000      10835.5231895     -10834.0587750         1.4644145
  -14.760      0.00000      10835.8741417     -10834.4096727         1.4644690
  -14.580      0.00000      10835.5559688     -10834.0915318         1.4644370
  -14.400      0.00000      10835.8401914     -10834.3757493         1.4644420
  -14.220      0.00000      10835.5907862     -10834.1263247         1.4644615
  -14.040      0.00000      10835.8047992     -10834.3403873         1.4644120
  -13.860      0.00000      10835.6264425     -10834.1619553         1.4644872
  -13.680      0.00000      10835.7691652     -10834.3047865         1.4643787
  -13.500      0.00000      10835.6617445     -10834.1972327         1.4645119
  -13.320      0.00000      10835.7344597     -10834.2701187         1.4643410
  -13.140      0.00000      10835.6955468     -10834.2310146         1.4645322
  -12.960      0.00000      10835.7017823     -10834.2374867         1.4642956
  -12.780      0.00000      10835.7267876     -10834.2622470         1.4645406
  -12.600      0.00001      10835.6721203     -10834.2078869         1.4642334
  -12.420      0.00001      10835.7545202     -10834.2899995         1.4645206
  -12.240      0.00001      10835.6463083     -10834.1821760         1.4641322
  -12.060      0.00002      10835.7779299     -10834.3134943         1.4644356
  -11.880      0.00004      10835.6249808     -10834.1610423         1.4639384
  -11.700      0.00006      10835.7963292     -10834.3321340         1.4641952
  -11.520      0.00009      10835.6085039     -10834.1449898         1.4635142
  -11.340      0.00013      10835.8090982     -10834.3455176         1.4635806
  -11.160      0.00021      10835.5968434     -10834.1343184         1.4625250
  -10.980      0.00033      10835.8155105     -10834.3534494         1.4620612
  -10.800      0.00052      10835.5892637     -10834.1291195         1.4601441
  -10.620      0.00081      10835.8142666     -10834.3559423         1.4583243
  -10.440      0.00128      10835.5835988     -10834.1292764         1.4543224
  -10.260      0.00202      10835.8023468     -10834.3532142         1.4491326
  -10.080      0.00318      10835.5744498     -10834.1344721         1.4399777
   -9.900      0.00500      10835.7721135     -10834.3456777         1.4264358
   -9.720      0.00790      10835.5486575     -10834.1441996         1.4044579
   -9.540      0.01247      10835.7041462     -10834.3339291         1.3702171
   -9.360      0.01967      10835.4739994     -10834.1577757         1.3162238
   -9.180      0.03091      10835.5492989     -10834.3187480         1.2305509
   -9.000      0.04835      10835.2713049     -10834.1742899         1.0970150
   -8.820      0.07492      10835.1858856     -10834.3009624         0.8849232
   -8.640      0.11420      10834.7501753     -10834.1921081         0.5580672
   -8.460      0.17011      10834.3266961     -10834.2741696         0.0525266
   -8.280      0.24602      10833.4833214     -10834.0537860        -0.5704647
   -8.100      0.34169      10832.3639582     -10834.0149340        -1.6509758
   -7.920      0.44851      10830.6415991     -10834.4134570        -3.7718579
   -7.740      0.54880      10828.2470470     -10835.1491631        -6.9021161
   -7.560      0.62452      10825.0144747     -10835.5205125       -10.5060378
   -7.380      0.66855      10820.7567146     -10834.7168033       -13.9600887
   -7.200      0.68597      10815.5537994     -10832.0870909       -16.5332914
   -7.020      0.68699      10809.1515134     -10826.6794371       -17.5279237
   -6.840      0.68226      10801.8448197     -10818.5128448       -16.6680252
   -6.660      0.68016      10793.2744731     -10807.4692315       -14.1947584
   -6.480      0.68107      10783.8713225     -10794.6883216       -10.8169991
   -6.300      0.67774      10773.1512359     -10780.4849173        -7.3336814
   -6.120      0.66737      10761.6531572     -10766.1356278        -4.4824706
   -5.940      0.65914      10748.8161073     -10751.6151502        -2.7990429
   -5.760      0.66414      10735.2624002     -10738.0007275        -2.7383273
   -5.580      0.68099      10720.3459130     -10724.6675275        -4.3216145
   -5.400      0.69556      10704.7003914     -10711.8198860        -7.1194946
   -5.220      0.69580      10687.6351408     -10698.2405282       -10.6053874
   -5.040      0.68388      10669.8225992     -10683.8699712       -14.0473720
   -4.860      0.67101      10650.6111434     -10667.2384450       -16.6273016
   -4.680      0.66512      10630.6761253     -10648.2803119       -17.6041866
   -4.500      0.66839      10609.3901292     -10626.0829674       -16.6928382
   -4.320      0.67955      10587.3572705     -10601.5110647       -14.1537942
   -4.140      0.69155      10563.9861925     -10574.7012749       -10.7150824
   -3.960      0.69344      10539.7938713     -10546.9895708        -7.1956995
   -3.780      0.68231      10514.2902404     -10518.6268839        -4.3366435
   -3.600      0.66926      10487.9266838     -10490.6013572        -2.6746734
   -3.420      0.66781      10460.3428493     -10462.9954300        -2.6525808
   -3.240      0.67865      10431.8589872     -10436.1377721        -4.2787849
   -3.060      0.68935      10402.2059188     -10409.3158271        -7.1099083
   -2.880      0.68906      10371.5558279     -10382.1708330       -10.6150051
   -2.700      0.68016      10339.7898292     -10353.8471573       -14.0573281
   -2.520      0.67240      10306.9700346     -10323.5954649       -16.6254303
   -2.340      0.67104      10273.1278233     -10290.7141222       -17.5862988
   -2.160      0.67589      10238.1765049     -10254.8451414       -16.6686365
   -1.980      0.68495      10202.2651320     -10216.4038858       -14.1387538
   -1.800      0.69214      10165.1586464     -10175.8844153       -10.7257690
   -1.620      0.68847      10127.1312048     -10134.3711144        -7.2399096
   -1.440      0.67297      10087.8458114     -10092.2593006        -4.4134892
   -1.260      0.65787      10047.7223364     -10050.4967011        -2.7743647
   -1.080      0.65696      10006.3354906     -10009.0965994        -2.7611088
   -0.900      0.67071       9964.1776619      -9968.5540011        -4.3763392
   -0.720      0.68613       9920.7000373      -9927.8795537        -7.1795164
   -0.540      0.69142       9876.4411123      -9887.0868071       -10.6456948
   -0.360      0.68747       9830.8065324      -9844.8514481       -14.0449156
   -0.180      0.68237       9784.4052390      -9800.9787866       -16.5735476
    0.000      0.68057       9736.6299337      -9754.1344081       -17.5044744
    0.180      0.68246       9688.1014992      -9704.6734168       -16.5719175
    0.360      0.68762       9638.2028862      -9652.2446744       -14.0417883
    0.540      0.69160       9587.5294405      -9598.1707419       -10.6413014
    0.720      0.68629       9535.4917927      -9542.6659183        -7.1741257
    0.900      0.67084       9482.6571616      -9487.0273715        -4.3702099
    1.080      0.65705       9428.5214856      -9431.2759299        -2.7544443
    1.260      0.65793       9373.5924084      -9376.3597193        -2.7673108
    1.440      0.67301       9317.4252155      -9321.8313472        -4.4061317
    1.620      0.68852       9260.3917496      -9267.6240649        -7.2323153
    1.800      0.69222       9202.1308543      -9212.8488617       -10.7180074
    1.980      0.68507       9142.9161606      -9157.0471135       -14.1309528
    2.160      0.67607       9082.5406275      -9099.2016178       -16.6609903
    2.340      0.67124       9021.1689308      -9038.7480178       -17.5790869
    2.520      0.67260       8958.7246004      -8975.3435637       -16.6189633
    2.700      0.68031       8895.2202303      -8909.2721409       -14.0519106
    2.880      0.68913       8830.6992695      -8841.3101263       -10.6108568
    3.060      0.68934       8765.0251807      -8772.1323300        -7.1071494
    3.240      0.67859       8698.3904190      -8702.6678295        -4.2774105
    3.420      0.66771       8630.5513708      -8633.2038768        -2.6525061
    3.600      0.66917       8561.8460094      -8564.5217647        -2.6757553
    3.780      0.68224       8491.8889272      -8496.2276737        -4.3387465
    3.960      0.69342       8421.1012301      -8428.2999487        -7.1987185
    4.140      0.69157       8348.9757793      -8359.6947640       -10.7189847
    4.320      0.67958       8276.0524843      -8290.2110840       -14.1585998
    4.500      0.66838       8201.7708622      -8218.4694534       -16.6985912
    4.680      0.66504       8126.7588356      -8144.3697095       -17.6108738
    4.860      0.67084       8050.3833568      -8067.0181535       -16.6347966
    5.040      0.68364       7973.2931564      -7987.3485620       -14.0554056
    5.220      0.69554       7894.8000114      -7905.4136016       -10.6135902
    5.400      0.69536       7815.5600918      -7822.6875721        -7.1274803
    5.580      0.68089       7734.9049410      -7739.2340178        -4.3290768
    5.760      0.66416       7653.5123897      -7656.2575038        -2.7451141
    5.940      0.65926       7570.7698366      -7573.5750149        -2.8051784
    6.120      0.66755       7487.2934461      -7491.7815843        -4.4881382
    6.300      0.67789       7402.4988786      -7409.8380196        -7.3391409
    6.480      0.68111       7316.9011581      -7327.7236412       -10.8224832
    6.660      0.68002       7230.0150194      -7244.2153437       -14.2003242
    6.840      0.68194       7142.2643302      -7158.9377980       -16.6734678
    7.020      0.68657       7053.2854981      -7070.8182484       -17.5327503
    7.200      0.68564       6963.3651475      -6979.9020261       -16.5368786
    7.380      0.66851       6872.2859932      -6886.2479306       -13.9619374
    7.560      0.62497       6780.2197148      -6790.7258438       -10.5061290
    7.740      0.54977       6687.1710219      -6694.0721652        -6.9011433
    7.920      0.44990       6593.2383300      -6597.0096487        -3.7713187
    8.100      0.34336       6498.6763074      -6500.3293281        -1.6530207
    8.280      0.24781       6403.4636483      -6404.0413348        -0.5776864
    8.460      0.17186       6308.0168237      -6307.9794500         0.0373737
    8.640      0.11580       6212.1037906      -6211.5715236         0.5322670
    8.820      0.07630       6116.2426157      -6115.3966204         0.8459953
    9.000      0.04949       6019.9888731      -6018.9460748         1.0427982
    9.180      0.03182       5923.9635591      -5922.8042920         1.1592671
    9.360      0.02037       5827.5488486      -5826.3224054         1.2264432
    9.540      0.01301       5731.4697392      -5730.2089048         1.2608344
    9.720      0.00831       5634.9767223      -5633.7021027         1.2746196
    9.900      0.00531       5538.8851893      -5537.6096870         1.2755023
   10.080      0.00341       5442.3534756      -5441.0860120         1.2674636
   10.260      0.00219       5346.2606117      -5345.0059322         1.2546796
   10.440      0.00140       5249.7123973      -5248.4747358         1.2376615
   10.620      0.00091       5153.6163906      -5152.3971320         1.2192586
   10.800      0.00059       5057.0672158      -5055.8686868         1.1985290
   10.980      0.00038       4960.9607624      -4959.7829730         1.1777893
   11.160      0.00025       4864.4236000      -4863.2680785         1.1555215
   11.340      0.00016       4768.2971318      -4767.1633448         1.1337869
   11.520      0.00010       4671.7838116      -4670.6729177         1.1108940
   11.700      0.00007       4575.6270607      -4574.5383456         1.0887151
   11.880      0.00004       4479.1485846      -4478.0830014         1.0655832
   12.060      0.00003       4382.9514664      -4381.9082821         1.0431843
   12.240      0.00002       4286.5179016      -4285.4979204         1.0199811
   12.420      0.00001       4190.2711167      -4189.2736621         0.9974547
   12.600      0.00001       4093.8913231      -4092.9170677         0.9742554
   12.780      0.00001       3997.5868189      -3996.6351810         0.9516379
   12.960      0.00000       3901.2681371      -3900.3396623         0.9284748
   13.140      0.00000       3804.8994845      -3803.9937028         0.9057817
   13.320      0.00000       3708.6474385      -3707.7647690         0.8826695
   13.500      0.00000       3612.2101362      -3611.3502283         0.8599079
   13.680      0.00000       3516.0281821      -3515.1913299         0.8368522
   13.860      0.00000       3419.5198903      -3418.7058635         0.8140269
   14.040      0.00000       3323.4092287      -3322.6182003         0.7910284
   14.220      0.00000       3226.8299253      -3226.0617817         0.7681436
   14.400      0.00000       3130.7893884      -3130.0441882         0.7452002
   14.580      0.00000       3034.1414439      -3033.4191833         0.7222607
   14.760      0.00000       2938.1674643      -2937.4680960         0.6993683
   14.940      0.00000       2841.4556323      -2840.7792527         0.6763796
   15.120      0.00000       2745.5422955      -2744.8887626         0.6535329
   15.300      0.00000       2648.7736181      -2648.1431169         0.6305011
   15.480      0.00000       2552.9127993      -2552.3051055         0.6076937
   15.660      0.00000       2456.0964302      -2455.5118043         0.5846259
   15.840      0.00000       2360.2780109      -2359.7161601         0.5618508
   16.020      0.00000       2263.4249611      -2262.8862068         0.5387543
   16.200      0.00000       2167.6371190      -2167.1211151         0.5160039
   16.380      0.00000       2070.7599333      -2070.2670470         0.4928863
   16.560      0.00000       1974.9894967      -1974.5193436         0.4701531
   16.740      0.00000       1878.1018724      -1877.6548502         0.4470222
   16.920      0.00000       1782.3347256      -1781.9104273         0.4242983
   17.100      0.00000       1685.4510853      -1685.0499236         0.4011618
   17.280      0.00000       1589.6726132      -1589.2941736         0.3784396
   17.460      0.00000       1492.8076478      -1492.4523428         0.3553050
   17.640      0.00000       1397.0032022      -1396.6706249         0.3325773
   17.820      0.00000       1300.1713983      -1299.8619467         0.3094516
   18.000      0.00000       1204.3267718      -1204.0400603         0.2867115
   18.180      0.00000       1107.5419417      -1107.2783403         0.2636014
   18.360      0.00000       1011.6438306      -1011.4029879         0.2408427
   18.540      0.00000        914.9186600       -914.7009061         0.2177539
   18.720      0.00000        818.9551012       -818.7601300         0.1949712
   18.900      0.00000        722.3007315       -722.1288229         0.1719087
   19.080      0.00000        626.2614976       -626.1124002         0.1490974
   19.260      0.00000        529.6871575       -529.5610921         0.1260654
   19.440      0.00000        433.5640955       -433.4608736         0.1032218
   19.620      0.00000        806.6244911       -806.4804014         0.1440897
   19.800      0.00000       1950.4995252      -1950.2094178         0.2901073
   19.980      0.00000       3611.8985436      -3611.3915280         0.5070156
   20.160      0.00000       5538.2616220      -5537.5007293         0.7608927


     convergence has been achieved in  40 iterations

     Forces acting on atoms (Ry/au):

     atom    1 type  1   force =    -0.00000513   -0.00000354   -0.00199944
     atom    2 type  1   force =     0.00000029   -0.00000018    0.00697821
     atom    3 type  1   force =    -0.00000101   -0.00000010   -0.00539767
     atom    4 type  1   force =    -0.00000070    0.00000012    0.00001182
     atom    5 type  1   force =    -0.00000008    0.00000002    0.00536053
     atom    6 type  1   force =    -0.00000002    0.00000014   -0.00692386
     atom    7 type  1   force =     0.00000665    0.00000353    0.00197042

     Total force =     0.012743     Total SCF correction =     0.000642

     Writing output data file Al111.save

     init_run     :      0.45s CPU      0.52s WALL (       1 calls)
     electrons    :     44.55s CPU     50.54s WALL (       1 calls)
     forces       :      0.12s CPU      0.13s WALL (       1 calls)

     Called by init_run:
     wfcinit      :      0.37s CPU      0.42s WALL (       1 calls)
     potinit      :      0.03s CPU      0.04s WALL (       1 calls)

     Called by electrons:
     c_bands      :     41.10s CPU     45.07s WALL (      40 calls)
     sum_band     :      2.73s CPU      2.97s WALL (      40 calls)
     v_of_rho     :      0.33s CPU      0.34s WALL (      41 calls)
     mix_rho      :      0.05s CPU      0.05s WALL (      40 calls)

     Called by c_bands:
     init_us_2    :      0.42s CPU      0.46s WALL (    2788 calls)
     cegterg      :     40.18s CPU     42.04s WALL (    1370 calls)

     Called by *egterg:
     h_psi        :     20.53s CPU     21.53s WALL (    8458 calls)
     g_psi        :      0.37s CPU      0.35s WALL (    7054 calls)
     cdiaghg      :     10.04s CPU     10.04s WALL (    8424 calls)

     Called by h_psi:
     add_vuspsi   :      1.66s CPU      1.76s WALL (    8458 calls)

     General routines
     calbec       :      2.70s CPU      3.25s WALL (    8492 calls)
     fft          :      0.07s CPU      0.08s WALL (     454 calls)
     fftw         :     17.02s CPU     17.48s WALL (  164058 calls)
     davcio       :      0.01s CPU      1.74s WALL (    4148 calls)

     Parallel routines
     fft_scatter  :      5.75s CPU      5.91s WALL (  164512 calls)

     PWSCF        :    45.24s CPU        51.78s WALL


   This run was terminated on:  23:31:52   5Oct2011            

=------------------------------------------------------------------------------=
   JOB DONE.
=------------------------------------------------------------------------------=
