
     Program PWSCF v.4.3.2      starts on  5Oct2011 at 23:30:26 

     This program is part of the open-source Quantum ESPRESSO suite
     for quantum simulation of materials; please cite
         "P. Giannozzi et al., J. Phys.:Condens. Matter 21 395502 (2009);
          URL http://www.quantum-espresso.org", 
     in publications or presentations arising from this work. More details at
     http://www.quantum-espresso.org/quote.php

     Parallel version (MPI), running on    12 processors
     R & G space division:  proc/pool =   12

     Current dimensions of program PWSCF are:
     Max number of different atomic species (ntypx) = 10
     Max number of k-points (npk) =  40000
     Max angular momentum in pseudopotentials (lmaxx) =  3
     Waiting for input...
     Reading input from stdin

     Subspace diagonalization in iterative solution of the eigenvalue problem:
     a serial algorithm will be used


     Parallelization info
     --------------------
     sticks:   dense  smooth     PW     G-vecs:    dense   smooth      PW
     Min          13      13      5                 1955     1955     435
     Max          14      14      6                 1996     1996     467
     Sum         163     163     61                23647    23647    5473



     bravais-lattice index     =            0
     lattice parameter (alat)  =       7.6534  a.u.
     unit-cell volume          =    1941.1667 (a.u.)^3
     number of atoms/cell      =            7
     number of atomic types    =            1
     number of electrons       =        21.00
     number of Kohn-Sham states=           15
     kinetic-energy cutoff     =      20.0000  Ry
     charge density cutoff     =      80.0000  Ry
     convergence threshold     =      1.0E-06
     mixing beta               =       0.5000
     number of iterations used =            8  plain     mixing
     Exchange-correlation      =  SLA  PW   PBE  PBE ( 1 4 3 4 0)
     EXX-fraction              =        0.00

     Effective Screening Medium Method
     =================================
     field strength (Ry/a.u.)         =       0.00 
     ESM offset from cell edge (a.u.) =       0.00 
     grid points for fit at edges     =          4 
     Boundary Conditions: Vacuum-Slab-Metal


     celldm(1)=   7.653394  celldm(2)=   0.000000  celldm(3)=   0.000000
     celldm(4)=   0.000000  celldm(5)=   0.000000  celldm(6)=   0.000000

     crystal axes: (cart. coord. in units of alat)
               a(1) = (   0.707107   0.000000   0.000000 )  
               a(2) = (   0.353553   0.612372   0.000000 )  
               a(3) = (   0.000000   0.000000  10.000000 )  

     reciprocal axes: (cart. coord. in units 2 pi/alat)
               b(1) = (  1.414214 -0.816497  0.000000 )  
               b(2) = (  0.000000  1.632993  0.000000 )  
               b(3) = (  0.000000  0.000000  0.100000 )  


     PseudoPot. # 1 for Al read from file:
     /p/lscratchd/wood37/data/old_scratcha/esm_code_svn/trunk/espresso/pseudo/Al.pbe-rrkj.UPF
     MD5 check sum: b5320f8fdc07ab0d74f109f4aa58256b
     Pseudo is Norm-conserving, Zval =  3.0
     Generated by new atomic code, or converted to UPF format
     Using radial grid of  879 points,  4 beta functions with: 
                l(1) =   0
                l(2) =   0
                l(3) =   1
                l(4) =   1

     atomic species   valence    mass     pseudopotential
        Al             3.00    26.98154     Al( 1.00)

     No symmetry found



   Cartesian axes

     site n.     atom                  positions (alat units)
         1           Al  tau(   1) = (   0.0000000   0.0000000  -1.7320512  )
         2           Al  tau(   2) = (   0.0000000   0.4082492  -1.1547008  )
         3           Al  tau(   3) = (   0.3535529   0.2041234  -0.5773504  )
         4           Al  tau(   4) = (   0.0000000   0.0000000   0.0000000  )
         5           Al  tau(   5) = (   0.0000000   0.4082492   0.5773504  )
         6           Al  tau(   6) = (   0.3535529   0.2041234   1.1547008  )
         7           Al  tau(   7) = (   0.0000000   0.0000000   1.7320512  )

     number of k points=    34  Methfessel-Paxton smearing, width (Ry)=  0.0500
                       cart. coord. in units 2pi/alat
        k(    1) = (   0.0000000   0.0000000   0.0000000), wk =   0.0312500
        k(    2) = (   0.0000000   0.2041241   0.0000000), wk =   0.0625000
        k(    3) = (   0.0000000   0.4082483   0.0000000), wk =   0.0625000
        k(    4) = (   0.0000000   0.6123724   0.0000000), wk =   0.0625000
        k(    5) = (   0.0000000  -0.8164966   0.0000000), wk =   0.0312500
        k(    6) = (   0.1767767  -0.1020621   0.0000000), wk =   0.0625000
        k(    7) = (   0.1767767   0.1020621   0.0000000), wk =   0.0625000
        k(    8) = (   0.1767767   0.3061862   0.0000000), wk =   0.0625000
        k(    9) = (   0.1767767   0.5103104   0.0000000), wk =   0.0625000
        k(   10) = (   0.1767767  -0.9185587   0.0000000), wk =   0.0625000
        k(   11) = (   0.1767767  -0.7144345   0.0000000), wk =   0.0625000
        k(   12) = (   0.1767767  -0.5103104   0.0000000), wk =   0.0625000
        k(   13) = (   0.1767767  -0.3061862   0.0000000), wk =   0.0625000
        k(   14) = (   0.3535534  -0.2041241   0.0000000), wk =   0.0625000
        k(   15) = (   0.3535534   0.0000000   0.0000000), wk =   0.0625000
        k(   16) = (   0.3535534   0.2041241   0.0000000), wk =   0.0625000
        k(   17) = (   0.3535534   0.4082483   0.0000000), wk =   0.0625000
        k(   18) = (   0.3535534  -1.0206207   0.0000000), wk =   0.0625000
        k(   19) = (   0.3535534  -0.8164966   0.0000000), wk =   0.0625000
        k(   20) = (   0.3535534  -0.6123724   0.0000000), wk =   0.0625000
        k(   21) = (   0.3535534  -0.4082483   0.0000000), wk =   0.0625000
        k(   22) = (   0.5303301  -0.3061862   0.0000000), wk =   0.0625000
        k(   23) = (   0.5303301  -0.1020621   0.0000000), wk =   0.0625000
        k(   24) = (   0.5303301   0.1020621   0.0000000), wk =   0.0625000
        k(   25) = (   0.5303301   0.3061862   0.0000000), wk =   0.0625000
        k(   26) = (   0.5303301  -1.1226828   0.0000000), wk =   0.0625000
        k(   27) = (   0.5303301  -0.9185587   0.0000000), wk =   0.0625000
        k(   28) = (   0.5303301  -0.7144345   0.0000000), wk =   0.0625000
        k(   29) = (   0.5303301  -0.5103104   0.0000000), wk =   0.0625000
        k(   30) = (  -0.7071068   0.4082483   0.0000000), wk =   0.0312500
        k(   31) = (  -0.7071068   0.6123724   0.0000000), wk =   0.0625000
        k(   32) = (  -0.7071068   0.8164966   0.0000000), wk =   0.0625000
        k(   33) = (  -0.7071068   1.0206207   0.0000000), wk =   0.0625000
        k(   34) = (  -0.7071068  -0.4082483   0.0000000), wk =   0.0312500

     Dense  grid:    23647 G-vectors     FFT dimensions: (  15,  15, 225)

     Largest allocated arrays     est. size (Mb)     dimensions
        Kohn-Sham Wavefunctions         0.06 Mb     (    264,   15)
        NL pseudopotentials             0.23 Mb     (    264,   56)
        Each V/rho on FFT grid          0.07 Mb     (   4275)
        Each G-vector array             0.01 Mb     (   1963)
        G-vector shells                 0.01 Mb     (    963)
     Largest temporary arrays     est. size (Mb)     dimensions
        Auxiliary wavefunctions         0.24 Mb     (    264,   60)
        Each subspace H/S matrix        0.05 Mb     (  60,  60)
        Each <psi_i|beta_j> matrix      0.01 Mb     (     56,   15)
        Arrays for rho mixing           0.52 Mb     (   4275,   8)

     Initial potential from superposition of free atoms

     starting charge   20.98187, renormalised to   21.00000

     negative rho (up, down):  0.215E-04 0.000E+00
     Starting wfc are   28 atomic wfcs

     total cpu time spent up to now is        0.6 secs

     per-process dynamical memory:     9.2 Mb

     Self-consistent Calculation

     iteration #  1     ecut=    20.00 Ry     beta=0.50
     Davidson diagonalization with overlap
     ethr =  1.00E-02,  avg # of iterations =  4.6

     negative rho (up, down):  0.428E-05 0.000E+00

     total cpu time spent up to now is        2.3 secs

     total energy              =     -28.47589390 Ry
     Harris-Foulkes estimate   =     -28.88619555 Ry
     estimated scf accuracy    <       0.58624377 Ry

     iteration #  2     ecut=    20.00 Ry     beta=0.50
     Davidson diagonalization with overlap
     c_bands:  1 eigenvalues not converged
     c_bands:  1 eigenvalues not converged
     c_bands:  1 eigenvalues not converged
     c_bands:  1 eigenvalues not converged
     c_bands:  1 eigenvalues not converged
     c_bands:  1 eigenvalues not converged
     c_bands:  1 eigenvalues not converged
     c_bands:  1 eigenvalues not converged
     c_bands:  1 eigenvalues not converged
     ethr =  2.79E-03,  avg # of iterations = 17.8

     negative rho (up, down):  0.195E-05 0.000E+00

     total cpu time spent up to now is        5.8 secs

     total energy              =     -24.69072871 Ry
     Harris-Foulkes estimate   =     -32.92138835 Ry
     estimated scf accuracy    <     150.71795976 Ry

     iteration #  3     ecut=    20.00 Ry     beta=0.50
     Davidson diagonalization with overlap
     c_bands:  1 eigenvalues not converged
     c_bands:  1 eigenvalues not converged
     c_bands:  1 eigenvalues not converged
     ethr =  2.79E-03,  avg # of iterations = 14.6

     negative rho (up, down):  0.101E-05 0.000E+00

     total cpu time spent up to now is        8.6 secs

     total energy              =     -28.83755231 Ry
     Harris-Foulkes estimate   =     -28.85397758 Ry
     estimated scf accuracy    <       0.26529909 Ry

     iteration #  4     ecut=    20.00 Ry     beta=0.50
     Davidson diagonalization with overlap
     ethr =  1.26E-03,  avg # of iterations =  6.8

     negative rho (up, down):  0.645E-06 0.000E+00

     total cpu time spent up to now is        9.8 secs

     total energy              =     -28.90860646 Ry
     Harris-Foulkes estimate   =     -28.94568932 Ry
     estimated scf accuracy    <       0.41636730 Ry

     iteration #  5     ecut=    20.00 Ry     beta=0.50
     Davidson diagonalization with overlap
     ethr =  1.26E-03,  avg # of iterations =  1.0

     total cpu time spent up to now is       10.5 secs

     total energy              =     -28.91625424 Ry
     Harris-Foulkes estimate   =     -28.92651886 Ry
     estimated scf accuracy    <       0.07457247 Ry

     iteration #  6     ecut=    20.00 Ry     beta=0.50
     Davidson diagonalization with overlap
     ethr =  3.55E-04,  avg # of iterations =  5.1

     total cpu time spent up to now is       11.4 secs

     total energy              =     -28.92587291 Ry
     Harris-Foulkes estimate   =     -28.93722948 Ry
     estimated scf accuracy    <       0.19175099 Ry

     iteration #  7     ecut=    20.00 Ry     beta=0.50
     Davidson diagonalization with overlap
     ethr =  3.55E-04,  avg # of iterations =  3.0

     negative rho (up, down):  0.595E-07 0.000E+00

     total cpu time spent up to now is       12.2 secs

     total energy              =     -28.89116601 Ry
     Harris-Foulkes estimate   =     -28.96377647 Ry
     estimated scf accuracy    <       3.01525946 Ry

     iteration #  8     ecut=    20.00 Ry     beta=0.50
     Davidson diagonalization with overlap
     ethr =  3.55E-04,  avg # of iterations =  1.8

     negative rho (up, down):  0.215E-07 0.000E+00

     total cpu time spent up to now is       12.8 secs

     total energy              =     -28.92635878 Ry
     Harris-Foulkes estimate   =     -28.92629446 Ry
     estimated scf accuracy    <       0.01453474 Ry

     iteration #  9     ecut=    20.00 Ry     beta=0.50
     Davidson diagonalization with overlap
     c_bands:  1 eigenvalues not converged
     c_bands:  1 eigenvalues not converged
     c_bands:  1 eigenvalues not converged
     c_bands:  1 eigenvalues not converged
     c_bands:  1 eigenvalues not converged
     c_bands:  1 eigenvalues not converged
     c_bands:  1 eigenvalues not converged
     ethr =  6.92E-05,  avg # of iterations = 12.6

     negative rho (up, down):  0.194E-07 0.000E+00

     total cpu time spent up to now is       14.5 secs

     total energy              =     -28.92843190 Ry
     Harris-Foulkes estimate   =     -28.92861093 Ry
     estimated scf accuracy    <       0.02929244 Ry

     iteration # 10     ecut=    20.00 Ry     beta=0.50
     Davidson diagonalization with overlap
     ethr =  6.92E-05,  avg # of iterations =  2.5

     negative rho (up, down):  0.107E-07 0.000E+00

     total cpu time spent up to now is       15.2 secs

     total energy              =     -28.92782755 Ry
     Harris-Foulkes estimate   =     -28.92862619 Ry
     estimated scf accuracy    <       0.02642559 Ry

     iteration # 11     ecut=    20.00 Ry     beta=0.50
     Davidson diagonalization with overlap
     ethr =  6.92E-05,  avg # of iterations =  1.0

     negative rho (up, down):  0.411E-07 0.000E+00

     total cpu time spent up to now is       15.8 secs

     total energy              =     -28.92705119 Ry
     Harris-Foulkes estimate   =     -28.92813420 Ry
     estimated scf accuracy    <       0.01758281 Ry

     iteration # 12     ecut=    20.00 Ry     beta=0.50
     Davidson diagonalization with overlap
     ethr =  6.92E-05,  avg # of iterations =  1.0

     negative rho (up, down):  0.309E-03 0.000E+00

     total cpu time spent up to now is       16.5 secs

     total energy              =     -28.92730578 Ry
     Harris-Foulkes estimate   =     -28.92755569 Ry
     estimated scf accuracy    <       0.00381173 Ry

     iteration # 13     ecut=    20.00 Ry     beta=0.50
     Davidson diagonalization with overlap
     c_bands:  1 eigenvalues not converged
     ethr =  1.82E-05,  avg # of iterations =  9.1

     negative rho (up, down):  0.179E-04 0.000E+00

     total cpu time spent up to now is       17.8 secs

     total energy              =     -28.92849439 Ry
     Harris-Foulkes estimate   =     -28.92849578 Ry
     estimated scf accuracy    <       0.00155044 Ry

     iteration # 14     ecut=    20.00 Ry     beta=0.50
     Davidson diagonalization with overlap
     c_bands:  1 eigenvalues not converged
     c_bands:  1 eigenvalues not converged
     c_bands:  1 eigenvalues not converged
     ethr =  7.38E-06,  avg # of iterations =  9.1

     negative rho (up, down):  0.375E-07 0.000E+00

     total cpu time spent up to now is       19.2 secs

     total energy              =     -28.92854809 Ry
     Harris-Foulkes estimate   =     -28.92872273 Ry
     estimated scf accuracy    <       0.00320521 Ry

     iteration # 15     ecut=    20.00 Ry     beta=0.50
     Davidson diagonalization with overlap
     ethr =  7.38E-06,  avg # of iterations =  2.6

     total cpu time spent up to now is       19.9 secs

     total energy              =     -28.92864851 Ry
     Harris-Foulkes estimate   =     -28.92864919 Ry
     estimated scf accuracy    <       0.00317765 Ry

     iteration # 16     ecut=    20.00 Ry     beta=0.50
     Davidson diagonalization with overlap
     ethr =  7.38E-06,  avg # of iterations =  1.0

     total cpu time spent up to now is       20.5 secs

     total energy              =     -28.92867775 Ry
     Harris-Foulkes estimate   =     -28.92867547 Ry
     estimated scf accuracy    <       0.00251130 Ry

     iteration # 17     ecut=    20.00 Ry     beta=0.50
     Davidson diagonalization with overlap
     ethr =  7.38E-06,  avg # of iterations =  1.0

     total cpu time spent up to now is       21.2 secs

     total energy              =     -28.92870315 Ry
     Harris-Foulkes estimate   =     -28.92869309 Ry
     estimated scf accuracy    <       0.00255617 Ry

     iteration # 18     ecut=    20.00 Ry     beta=0.50
     Davidson diagonalization with overlap
     ethr =  7.38E-06,  avg # of iterations =  1.0

     total cpu time spent up to now is       21.8 secs

     total energy              =     -28.92870270 Ry
     Harris-Foulkes estimate   =     -28.92871764 Ry
     estimated scf accuracy    <       0.00276769 Ry

     iteration # 19     ecut=    20.00 Ry     beta=0.50
     Davidson diagonalization with overlap
     ethr =  7.38E-06,  avg # of iterations =  1.0

     total cpu time spent up to now is       22.4 secs

     total energy              =     -28.92853665 Ry
     Harris-Foulkes estimate   =     -28.92871652 Ry
     estimated scf accuracy    <       0.00265351 Ry

     iteration # 20     ecut=    20.00 Ry     beta=0.50
     Davidson diagonalization with overlap
     ethr =  7.38E-06,  avg # of iterations =  1.0

     total cpu time spent up to now is       23.0 secs

     total energy              =     -28.92852008 Ry
     Harris-Foulkes estimate   =     -28.92858643 Ry
     estimated scf accuracy    <       0.00114699 Ry

     iteration # 21     ecut=    20.00 Ry     beta=0.50
     Davidson diagonalization with overlap
     ethr =  5.46E-06,  avg # of iterations =  1.0

     negative rho (up, down):  0.236E-04 0.000E+00

     total cpu time spent up to now is       23.6 secs

     total energy              =     -28.92851879 Ry
     Harris-Foulkes estimate   =     -28.92854811 Ry
     estimated scf accuracy    <       0.00061366 Ry

     iteration # 22     ecut=    20.00 Ry     beta=0.50
     Davidson diagonalization with overlap
     ethr =  2.92E-06,  avg # of iterations =  2.7

     negative rho (up, down):  0.386E-05 0.000E+00

     total cpu time spent up to now is       24.3 secs

     total energy              =     -28.92850974 Ry
     Harris-Foulkes estimate   =     -28.92854470 Ry
     estimated scf accuracy    <       0.00047523 Ry

     iteration # 23     ecut=    20.00 Ry     beta=0.50
     Davidson diagonalization with overlap
     ethr =  2.26E-06,  avg # of iterations =  2.7

     negative rho (up, down):  0.496E-05 0.000E+00

     total cpu time spent up to now is       25.1 secs

     total energy              =     -28.92855714 Ry
     Harris-Foulkes estimate   =     -28.92857259 Ry
     estimated scf accuracy    <       0.00016679 Ry

     iteration # 24     ecut=    20.00 Ry     beta=0.50
     Davidson diagonalization with overlap
     ethr =  7.94E-07,  avg # of iterations =  3.4

     total cpu time spent up to now is       25.9 secs

     total energy              =     -28.92858496 Ry
     Harris-Foulkes estimate   =     -28.92859031 Ry
     estimated scf accuracy    <       0.00003758 Ry

     iteration # 25     ecut=    20.00 Ry     beta=0.50
     Davidson diagonalization with overlap
     ethr =  1.79E-07,  avg # of iterations =  5.3

     total cpu time spent up to now is       27.1 secs

     total energy              =     -28.92859904 Ry
     Harris-Foulkes estimate   =     -28.92860056 Ry
     estimated scf accuracy    <       0.00002840 Ry

     iteration # 26     ecut=    20.00 Ry     beta=0.50
     Davidson diagonalization with overlap
     ethr =  1.35E-07,  avg # of iterations =  1.0

     total cpu time spent up to now is       27.7 secs

     total energy              =     -28.92859332 Ry
     Harris-Foulkes estimate   =     -28.92859977 Ry
     estimated scf accuracy    <       0.00001706 Ry

     iteration # 27     ecut=    20.00 Ry     beta=0.50
     Davidson diagonalization with overlap
     ethr =  8.13E-08,  avg # of iterations =  3.0

     total cpu time spent up to now is       28.5 secs

     total energy              =     -28.92859670 Ry
     Harris-Foulkes estimate   =     -28.92859833 Ry
     estimated scf accuracy    <       0.00000562 Ry

     iteration # 28     ecut=    20.00 Ry     beta=0.50
     Davidson diagonalization with overlap
     c_bands:  1 eigenvalues not converged
     c_bands:  1 eigenvalues not converged
     c_bands:  1 eigenvalues not converged
     ethr =  2.67E-08,  avg # of iterations =  6.6

     total cpu time spent up to now is       29.8 secs

     total energy              =     -28.92859760 Ry
     Harris-Foulkes estimate   =     -28.92859818 Ry
     estimated scf accuracy    <       0.00000252 Ry

     iteration # 29     ecut=    20.00 Ry     beta=0.50
     Davidson diagonalization with overlap
     ethr =  1.20E-08,  avg # of iterations =  2.9

     total cpu time spent up to now is       30.9 secs

     End of self-consistent calculation

          k = 0.0000 0.0000 0.0000 (  2893 PWs)   bands (ev):

   -14.9026 -14.5428 -13.9480 -13.1145 -12.0397 -10.7832  -9.2886  -7.8137
    -5.9943  -4.1502  -2.3616  -0.9446  -0.2273   0.1466   0.2026

          k = 0.0000 0.2041 0.0000 (  2891 PWs)   bands (ev):

   -14.5286 -14.1695 -13.5759 -12.7442 -11.6714 -10.4171  -8.9228  -7.4620
    -5.6437  -3.8061  -2.0245  -0.5997   0.1383   0.5212   0.5667

          k = 0.0000 0.4082 0.0000 (  2909 PWs)   bands (ev):

   -13.4118 -13.0551 -12.4654 -11.6390 -10.5729  -9.3267  -7.8388  -6.4133
    -4.6243  -2.9139  -1.9319  -1.4639  -1.0510  -0.7021  -0.2125

          k = 0.0000 0.6124 0.0000 (  2936 PWs)   bands (ev):

   -11.5688 -11.2163 -10.6339  -9.8184  -8.7690  -7.5545  -6.2130  -5.8368
    -5.4473  -4.8453  -4.4686  -4.0025  -3.0120  -2.7173  -1.8263

          k = 0.0000-0.8165 0.0000 (  2982 PWs)   bands (ev):

    -9.0365  -9.0256  -8.7197  -8.6551  -8.1514  -8.0912  -7.3775  -7.3322
    -6.4851  -5.9241  -4.9542  -4.8499  -3.5335  -3.3967  -2.2568

          k = 0.1768-0.1021 0.0000 (  2891 PWs)   bands (ev):

   -14.5286 -14.1695 -13.5759 -12.7442 -11.6714 -10.4171  -8.9228  -7.4620
    -5.6437  -3.8061  -2.0245  -0.5997   0.1383   0.5212   0.5667

          k = 0.1768 0.1021 0.0000 (  2891 PWs)   bands (ev):

   -14.5286 -14.1695 -13.5759 -12.7442 -11.6714 -10.4171  -8.9228  -7.4620
    -5.6437  -3.8061  -2.0245  -0.5997   0.1383   0.5212   0.5667

          k = 0.1768 0.3062 0.0000 (  2894 PWs)   bands (ev):

   -13.7832 -13.4257 -12.8346 -12.0064 -10.9380  -9.6887  -8.1974  -6.7611
    -4.9529  -3.1446  -1.4259  -0.1122   0.5393   0.7546   0.7959

          k = 0.1768 0.5103 0.0000 (  2934 PWs)   bands (ev):

   -12.3032 -11.9490 -11.3634 -10.5430  -9.4851  -8.2508  -6.7843  -5.3921
    -3.9734  -3.5658  -3.1058  -2.6576  -2.0082  -1.6935  -1.0277

          k = 0.1768-0.9186 0.0000 (  2943 PWs)   bands (ev):

   -10.1113  -9.7630  -9.1884  -8.3884  -7.4058  -7.2163  -6.9120  -6.4991
    -6.0769  -5.3768  -4.4883  -4.3517  -3.2891  -3.1683  -1.9838

          k = 0.1768-0.7144 0.0000 (  2943 PWs)   bands (ev):

   -10.1113  -9.7630  -9.1884  -8.3884  -7.4058  -7.2163  -6.9120  -6.4991
    -6.0769  -5.3768  -4.4883  -4.3517  -3.2891  -3.1683  -1.9838

          k = 0.1768-0.5103 0.0000 (  2934 PWs)   bands (ev):

   -12.3032 -11.9490 -11.3634 -10.5430  -9.4851  -8.2508  -6.7843  -5.3921
    -3.9734  -3.5658  -3.1058  -2.6576  -2.0082  -1.6935  -1.0277

          k = 0.1768-0.3062 0.0000 (  2894 PWs)   bands (ev):

   -13.7832 -13.4257 -12.8346 -12.0064 -10.9380  -9.6887  -8.1974  -6.7611
    -4.9529  -3.1446  -1.4259  -0.1122   0.5393   0.7546   0.7959

          k = 0.3536-0.2041 0.0000 (  2909 PWs)   bands (ev):

   -13.4118 -13.0551 -12.4654 -11.6390 -10.5729  -9.3267  -7.8388  -6.4133
    -4.6243  -2.9139  -1.9319  -1.4639  -1.0510  -0.7021  -0.2125

          k = 0.3536 0.0000 0.0000 (  2894 PWs)   bands (ev):

   -13.7832 -13.4257 -12.8346 -12.0064 -10.9380  -9.6887  -8.1974  -6.7611
    -4.9529  -3.1446  -1.4259  -0.1122   0.5394   0.7546   0.7960

          k = 0.3536 0.2041 0.0000 (  2909 PWs)   bands (ev):

   -13.4118 -13.0551 -12.4654 -11.6390 -10.5729  -9.3267  -7.8388  -6.4133
    -4.6243  -2.9139  -1.9319  -1.4639  -1.0510  -0.7021  -0.2125

          k = 0.3536 0.4082 0.0000 (  2934 PWs)   bands (ev):

   -12.3032 -11.9490 -11.3634 -10.5430  -9.4851  -8.2508  -6.7843  -5.3921
    -3.9734  -3.5658  -3.1058  -2.6576  -2.0082  -1.6935  -1.0277

          k = 0.3536-1.0206 0.0000 (  2964 PWs)   bands (ev):

   -10.4740 -10.1244  -9.5470  -8.7399  -7.7046  -6.5191  -5.2609  -4.8149
    -4.8048  -4.5766  -4.3261  -3.9018  -3.6065  -3.3475  -3.0948

          k = 0.3536-0.8165 0.0000 (  2968 PWs)   bands (ev):

    -7.9635  -7.9515  -7.6560  -7.5814  -7.0970  -7.0216  -6.3296  -6.2949
    -5.4784  -5.1946  -4.8795  -4.8385  -4.4200  -4.1809  -3.6083

          k = 0.3536-0.6124 0.0000 (  2964 PWs)   bands (ev):

   -10.4740 -10.1244  -9.5470  -8.7399  -7.7046  -6.5191  -5.2609  -4.8149
    -4.8048  -4.5766  -4.3261  -3.9018  -3.6065  -3.3475  -3.0948

          k = 0.3536-0.4082 0.0000 (  2934 PWs)   bands (ev):

   -12.3032 -11.9490 -11.3634 -10.5430  -9.4851  -8.2508  -6.7843  -5.3921
    -3.9734  -3.5658  -3.1058  -2.6576  -2.0082  -1.6935  -1.0277

          k = 0.5303-0.3062 0.0000 (  2936 PWs)   bands (ev):

   -11.5688 -11.2163 -10.6339  -9.8184  -8.7690  -7.5545  -6.2130  -5.8368
    -5.4473  -4.8453  -4.4686  -4.0025  -3.0120  -2.7173  -1.8263

          k = 0.5303-0.1021 0.0000 (  2934 PWs)   bands (ev):

   -12.3032 -11.9490 -11.3634 -10.5430  -9.4851  -8.2508  -6.7843  -5.3921
    -3.9734  -3.5658  -3.1058  -2.6576  -2.0082  -1.6935  -1.0277

          k = 0.5303 0.1021 0.0000 (  2934 PWs)   bands (ev):

   -12.3032 -11.9490 -11.3634 -10.5430  -9.4851  -8.2508  -6.7843  -5.3921
    -3.9734  -3.5658  -3.1058  -2.6576  -2.0082  -1.6935  -1.0277

          k = 0.5303 0.3062 0.0000 (  2936 PWs)   bands (ev):

   -11.5688 -11.2163 -10.6339  -9.8184  -8.7690  -7.5545  -6.2130  -5.8368
    -5.4473  -4.8453  -4.4686  -4.0025  -3.0120  -2.7173  -1.8263

          k = 0.5303-1.1227 0.0000 (  2943 PWs)   bands (ev):

   -10.1113  -9.7630  -9.1884  -8.3884  -7.4058  -7.2163  -6.9120  -6.4991
    -6.0769  -5.3768  -4.4883  -4.3517  -3.2891  -3.1683  -1.9838

          k = 0.5303-0.9186 0.0000 (  2968 PWs)   bands (ev):

    -7.9635  -7.9515  -7.6560  -7.5814  -7.0970  -7.0216  -6.3295  -6.2949
    -5.4784  -5.1946  -4.8795  -4.8385  -4.4200  -4.1809  -3.6083

          k = 0.5303-0.7144 0.0000 (  2968 PWs)   bands (ev):

    -7.9635  -7.9515  -7.6560  -7.5814  -7.0970  -7.0216  -6.3295  -6.2949
    -5.4784  -5.1946  -4.8795  -4.8385  -4.4200  -4.1809  -3.6083

          k = 0.5303-0.5103 0.0000 (  2943 PWs)   bands (ev):

   -10.1113  -9.7630  -9.1884  -8.3884  -7.4058  -7.2163  -6.9120  -6.4991
    -6.0769  -5.3768  -4.4883  -4.3517  -3.2891  -3.1683  -1.9838

          k =-0.7071 0.4082 0.0000 (  2982 PWs)   bands (ev):

    -9.0365  -9.0256  -8.7197  -8.6551  -8.1514  -8.0912  -7.3775  -7.3322
    -6.4851  -5.9241  -4.9542  -4.8499  -3.5335  -3.3967  -2.2568

          k =-0.7071 0.6124 0.0000 (  2943 PWs)   bands (ev):

   -10.1113  -9.7630  -9.1884  -8.3884  -7.4058  -7.2163  -6.9120  -6.4991
    -6.0769  -5.3768  -4.4883  -4.3517  -3.2891  -3.1683  -1.9838

          k =-0.7071 0.8165 0.0000 (  2964 PWs)   bands (ev):

   -10.4740 -10.1244  -9.5470  -8.7399  -7.7046  -6.5191  -5.2609  -4.8149
    -4.8048  -4.5766  -4.3261  -3.9018  -3.6065  -3.3475  -3.0948

          k =-0.7071 1.0206 0.0000 (  2943 PWs)   bands (ev):

   -10.1113  -9.7630  -9.1884  -8.3884  -7.4058  -7.2163  -6.9120  -6.4991
    -6.0769  -5.3768  -4.4883  -4.3517  -3.2891  -3.1683  -1.9838

          k =-0.7071-0.4082 0.0000 (  2982 PWs)   bands (ev):

    -9.0365  -9.0256  -8.7197  -8.6551  -8.1514  -8.0912  -7.3775  -7.3322
    -6.4851  -5.9241  -4.9542  -4.8499  -3.5335  -3.3967  -2.2568

     the Fermi energy is    -4.0086 ev

!    total energy              =     -28.92859760 Ry
     Harris-Foulkes estimate   =     -28.92859802 Ry
     estimated scf accuracy    <       0.00000012 Ry

     The total energy is the sum of the following terms:

     one-electron contribution =  -14454.48774099 Ry
     hartree contribution      =    7228.10298335 Ry
     xc contribution           =     -11.06493660 Ry
     ewald contribution        =    7208.51839567 Ry
     smearing contrib. (-TS)   =       0.00270096 Ry

     ESM Charge and Potential
     ========================

    z (A)      rho (e)      Avg v_hartree        Avg v_local  Avg v_hart+v_loc
                                     (eV)               (eV)              (eV)
    ==========================================================================
  -20.160      0.00000       7475.6776562      -7475.6514294         0.0262268
  -19.980      0.00000       9172.9766116      -9172.9442533         0.0323583
  -19.800      0.00000      10376.9036106     -10376.8668822         0.0367284
  -19.620      0.00000      10834.1877747     -10834.1494345         0.0383402
  -19.440      0.00000      10834.3951869     -10834.3567985         0.0383884
  -19.260      0.00000      10834.1451077     -10834.1067790         0.0383288
  -19.080      0.00000      10834.4360762     -10834.3976771         0.0383991
  -18.900      0.00000      10834.1062808     -10834.0679625         0.0383182
  -18.720      0.00000      10834.4725719     -10834.4341634         0.0384085
  -18.540      0.00000      10834.0723640     -10834.0340550         0.0383090
  -18.360      0.00000      10834.5036813     -10834.4652650         0.0384163
  -18.180      0.00000      10834.0442647     -10834.0059633         0.0383014
  -18.000      0.00000      10834.5285900     -10834.4901678         0.0384222
  -17.820      0.00000      10834.0226979     -10833.9844021         0.0382958
  -17.640      0.00000      10834.5466879     -10834.5082621         0.0384258
  -17.460      0.00000      10834.0081638     -10833.9698714         0.0382924
  -17.280      0.00000      10834.5575885     -10834.5191615         0.0384270
  -17.100      0.00000      10834.0009328     -10833.9626414         0.0382914
  -16.920      0.00000      10834.5611391     -10834.5227137         0.0384254
  -16.740      0.00000      10834.0010390     -10833.9627459         0.0382931
  -16.560      0.00000      10834.5574240     -10834.5190030         0.0384209
  -16.380      0.00000      10834.0082813     -10833.9699836         0.0382977
  -16.200      0.00000      10834.5467585     -10834.5083451         0.0384135
  -16.020      0.00000      10834.0222332     -10833.9839282         0.0383051
  -15.840      0.00000      10834.5296758     -10834.4912729         0.0384029
  -15.660      0.00000      10834.0422606     -10834.0039452         0.0383154
  -15.480      0.00000      10834.5069050     -10834.4685158         0.0383893
  -15.300      0.00000      10834.0675459     -10834.0292174         0.0383285
  -15.120      0.00000      10834.4793441     -10834.4409715         0.0383726
  -14.940      0.00000      10834.0971194     -10834.0587750         0.0383443
  -14.760      0.00000      10834.4480257     -10834.4096727         0.0383530
  -14.580      0.00000      10834.1298944     -10834.0915318         0.0383625
  -14.400      0.00000      10834.4140798     -10834.3757493         0.0383305
  -14.220      0.00000      10834.1647073     -10834.1263247         0.0383826
  -14.040      0.00000      10834.3786924     -10834.3403873         0.0383051
  -13.860      0.00000      10834.2003588     -10834.1619553         0.0384035
  -13.680      0.00000      10834.3430630     -10834.3047865         0.0382765
  -13.500      0.00000      10834.2356563     -10834.1972327         0.0384237
  -13.320      0.00000      10834.3083622     -10834.2701187         0.0382434
  -13.140      0.00000      10834.2694542     -10834.2310146         0.0384396
  -12.960      0.00000      10834.2756890     -10834.2374867         0.0382023
  -12.780      0.00000      10834.3006909     -10834.2622470         0.0384439
  -12.600      0.00001      10834.2460309     -10834.2078869         0.0381440
  -12.420      0.00001      10834.3284198     -10834.2899995         0.0384203
  -12.240      0.00001      10834.2202222     -10834.1821760         0.0380461
  -12.060      0.00002      10834.3518264     -10834.3134943         0.0383321
  -11.880      0.00004      10834.1988973     -10834.1610423         0.0378550
  -11.700      0.00006      10834.3702232     -10834.3321340         0.0380892
  -11.520      0.00009      10834.1824226     -10834.1449898         0.0374329
  -11.340      0.00013      10834.3829906     -10834.3455176         0.0374731
  -11.160      0.00021      10834.1707641     -10834.1343184         0.0364457
  -10.980      0.00033      10834.3894032     -10834.3534494         0.0359538
  -10.800      0.00052      10834.1631874     -10834.1291195         0.0340678
  -10.620      0.00081      10834.3881632     -10834.3559423         0.0322208
  -10.440      0.00128      10834.1575296     -10834.1292764         0.0282531
  -10.260      0.00201      10834.3762551     -10834.3532142         0.0230409
  -10.080      0.00317      10834.1483972     -10834.1344721         0.0139251
   -9.900      0.00500      10834.3460487     -10834.3456777         0.0003710
   -9.720      0.00789      10834.1226413     -10834.1441996        -0.0215584
   -9.540      0.01247      10834.2781359     -10834.3339291        -0.0557932
   -9.360      0.01966      10834.0480537     -10834.1577757        -0.1097220
   -9.180      0.03090      10834.1233862     -10834.3187480        -0.1953618
   -9.000      0.04834      10833.8454782     -10834.1742899        -0.3288117
   -8.820      0.07492      10833.7601213     -10834.3009624        -0.5408411
   -8.640      0.11420      10833.3245091     -10834.1921081        -0.8675990
   -8.460      0.17013      10832.9010958     -10834.2741696        -1.3730738
   -8.280      0.24606      10832.0577785     -10834.0537860        -1.9960076
   -8.100      0.34175      10830.9384014     -10834.0149340        -3.0765326
   -7.920      0.44859      10829.2159461     -10834.4134570        -5.1975109
   -7.740      0.54890      10826.8211712     -10835.1491631        -8.3279919
   -7.560      0.62461      10823.5882310     -10835.5205125       -11.9322815
   -7.380      0.66862      10819.3299688     -10834.7168033       -15.3868345
   -7.200      0.68602      10814.1264216     -10832.0870909       -17.9606692
   -7.020      0.68701      10807.7234434     -10826.6794371       -18.9559936
   -6.840      0.68226      10800.4160008     -10818.5128448       -18.0968440
   -6.660      0.68015      10791.8449299     -10807.4692315       -15.6243016
   -6.480      0.68106      10782.4410396     -10794.6883216       -12.2472820
   -6.300      0.67773      10771.7202612     -10780.4849173        -8.7646561
   -6.120      0.66738      10760.2214563     -10766.1356278        -5.9141715
   -5.940      0.65916      10747.3837051     -10751.6151502        -4.2314451
   -5.760      0.66417      10733.8292269     -10738.0007275        -4.1715006
   -5.580      0.68101      10718.9119757     -10724.6675275        -5.7555518
   -5.400      0.69557      10703.2656150     -10711.8198860        -8.5542709
   -5.220      0.69579      10686.1995545     -10698.2405282       -12.0409737
   -5.040      0.68386      10668.3861696     -10683.8699712       -15.4838016
   -4.860      0.67097      10649.1739543     -10667.2384450       -18.0644907
   -4.680      0.66507      10629.2381989     -10648.2803119       -19.0421130
   -4.500      0.66834      10607.9515828     -10626.0829674       -18.1313845
   -4.320      0.67951      10585.9181369     -10601.5110647       -15.5929279
   -4.140      0.69154      10562.5465609     -10574.7012749       -12.1547140
   -3.960      0.69344      10538.3537377     -10546.9895708        -8.6358331
   -3.780      0.68231      10512.8496447     -10518.6268839        -5.7772393
   -3.600      0.66926      10486.4855994     -10490.6013572        -4.1157579
   -3.420      0.66780      10458.9013005     -10462.9954300        -4.0941296
   -3.240      0.67863      10430.4169676     -10436.1377721        -5.7208044
   -3.060      0.68932      10400.7634686     -10409.3158271        -8.5523585
   -2.880      0.68904      10370.1129720     -10382.1708330       -12.0578610
   -2.700      0.68015      10338.3466049     -10353.8471573       -15.5005524
   -2.520      0.67241      10305.5264559     -10323.5954649       -18.0690090
   -2.340      0.67107      10271.6838723     -10290.7141222       -19.0302498
   -2.160      0.67594      10236.7321427     -10254.8451414       -18.1129987
   -1.980      0.68500      10200.8202735     -10216.4038858       -15.5836123
   -1.800      0.69219      10163.7132268     -10175.8844153       -12.1711885
   -1.620      0.68851      10125.6851308     -10134.3711144        -8.6859836
   -1.440      0.67299      10086.3990555     -10092.2593006        -5.8602451
   -1.260      0.65788      10046.2748407     -10050.4967011        -4.2218604
   -1.080      0.65698      10004.8872687     -10009.0965994        -4.2093307
   -0.900      0.67074       9962.7286583      -9968.5540011        -5.8253428
   -0.720      0.68618       9919.2502425      -9927.8795537        -8.6293111
   -0.540      0.69150       9874.9904056      -9887.0868071       -12.0964015
   -0.360      0.68756       9829.3548320      -9844.8514481       -15.4966160
   -0.180      0.68246       9782.9523639      -9800.9787866       -18.0264227
    0.000      0.68062       9735.1757988      -9754.1344081       -18.9586093
    0.180      0.68245       9686.6459934      -9704.6734168       -18.0274233
    0.360      0.68756       9636.7460609      -9652.2446744       -15.4986135
    0.540      0.69150       9586.0713528      -9598.1707419       -12.0993891
    0.720      0.68617       9534.0326385      -9542.6659183        -8.6332798
    0.900      0.67073       9481.1970897      -9487.0273715        -5.8302818
    1.080      0.65697       9427.0607017      -9431.2759299        -4.2152282
    1.260      0.65788       9372.1310147      -9376.3597193        -4.2287045
    1.440      0.67298       9315.9633222      -9321.8313472        -5.8680250
    1.620      0.68851       9258.9293735      -9267.6240649        -8.6946914
    1.800      0.69219       9200.6680396      -9212.8488617       -12.1808220
    1.980      0.68501       9141.4529347      -9157.0471135       -15.5941787
    2.160      0.67596       9081.0771023      -9099.2016178       -18.1245155
    2.340      0.67109       9019.7052742      -9038.7480178       -19.0427435
    2.520      0.67243       8957.2610530      -8975.3435637       -18.0825108
    2.700      0.68017       8893.7570465      -8909.2721409       -15.5150944
    2.880      0.68905       8829.2366541      -8841.3101263       -12.0734721
    3.060      0.68933       8763.5632675      -8772.1323300        -8.5690625
    3.240      0.67863       8696.9292121      -8702.6678295        -5.7386174
    3.420      0.66780       8629.0908183      -8633.2038768        -4.1130585
    3.600      0.66925       8560.3859649      -8564.5217647        -4.1357998
    3.780      0.68230       8490.4292921      -8496.2276737        -5.7983816
    3.960      0.69342       8419.6418944      -8428.2999487        -8.6580543
    4.140      0.69152       8347.5167777      -8359.6947640       -12.1779863
    4.320      0.67949       8274.5938634      -8290.2110840       -15.6172206
    4.500      0.66832       8200.3127861      -8218.4694534       -18.1566673
    4.680      0.66505       8125.3013527      -8144.3697095       -19.0683568
    4.860      0.67095       8048.9264863      -8067.0181535       -18.0916672
    5.040      0.68383       7971.8366823      -7987.3485620       -15.5118797
    5.220      0.69576       7893.3436853      -7905.4136016       -12.0699163
    5.400      0.69554       7814.1035387      -7822.6875721        -8.5840333
    5.580      0.68098       7733.4479333      -7739.2340178        -5.7860845
    5.760      0.66414       7652.0547508      -7656.2575038        -4.2027530
    5.940      0.65913       7569.3116464      -7573.5750149        -4.2633685
    6.120      0.66735       7485.8348651      -7491.7815843        -5.9467192
    6.300      0.67771       7401.0402351      -7409.8380196        -8.7977845
    6.480      0.68104       7315.4426879      -7327.7236412       -12.2809533
    6.660      0.68014       7228.5568550      -7244.2153437       -15.6584887
    6.840      0.68226       7140.8062641      -7158.9377980       -18.1315339
    7.020      0.68701       7051.8270639      -7070.8182484       -18.9911845
    7.200      0.68602       6961.9056642      -6979.9020261       -17.9963619
    7.380      0.66860       6870.8249115      -6886.2479306       -15.4230191
    7.560      0.62458       6778.7569166      -6790.7258438       -11.9689272
    7.740      0.54885       6685.7071214      -6694.0721652        -8.3650438
    7.920      0.44854       6591.7747513      -6597.0096487        -5.2348974
    8.100      0.34170       6497.2151497      -6500.3293281        -3.1141784
    8.280      0.24603       6402.0074890      -6404.0413348        -2.0338458
    8.460      0.17010       6306.5683995      -6307.9794500        -1.4110505
    8.640      0.11418       6210.6658494      -6211.5715236        -0.9056742
    8.820      0.07490       6114.8176343      -6115.3966204        -0.5789861
    9.000      0.04833       6018.5790678      -6018.9460748        -0.3670071
    9.180      0.03089       5922.5706977      -5922.8042920        -0.2335943
    9.360      0.01965       5826.1744225      -5826.3224054        -0.1479829
    9.540      0.01246       5730.1148287      -5730.2089048        -0.0940761
    9.720      0.00789       5633.6422439      -5633.7021027        -0.0598588
    9.900      0.00500       5537.5717438      -5537.6096870        -0.0379432
   10.080      0.00317       5441.0616120      -5441.0860120        -0.0244000
   10.260      0.00201       5344.9906394      -5345.0059322        -0.0152928
   10.440      0.00128       5248.4646484      -5248.4747358        -0.0100873
   10.620      0.00081       5152.3910071      -5152.3971320        -0.0061249
   10.800      0.00052       5055.8644049      -5055.8686868        -0.0042819
   10.980      0.00033       4959.7805740      -4959.7829730        -0.0023990
   11.160      0.00021       4863.2661690      -4863.2680785        -0.0019095
   11.340      0.00013       4767.1624609      -4767.1633448        -0.0008839
   11.520      0.00009       4670.6719922      -4670.6729177        -0.0009254
   11.700      0.00005       4574.5380755      -4574.5383456        -0.0002701
   11.880      0.00004       4478.0824965      -4478.0830014        -0.0005049
   12.060      0.00002       4381.9082537      -4381.9082821        -0.0000284
   12.240      0.00001       4285.4976058      -4285.4979204        -0.0003147
   12.420      0.00001       4189.2737212      -4189.2736621         0.0000591
   12.600      0.00001       4092.9168504      -4092.9170677        -0.0002172
   12.780      0.00000       3996.6352634      -3996.6351810         0.0000824
   12.960      0.00000       3900.3395031      -3900.3396623        -0.0001591
   13.140      0.00000       3803.9937808      -3803.9937028         0.0000780
   13.320      0.00000       3707.7646509      -3707.7647690        -0.0001181
   13.500      0.00000       3611.3502903      -3611.3502283         0.0000620
   13.680      0.00000       3515.1912448      -3515.1913299        -0.0000851
   13.860      0.00000       3418.7059053      -3418.7058635         0.0000419
   14.040      0.00000       3322.6181438      -3322.6182003        -0.0000565
   14.220      0.00000       3226.0618026      -3226.0617817         0.0000209
   14.400      0.00000       3130.0441572      -3130.0441882        -0.0000311
   14.580      0.00000       3033.4191841      -3033.4191833         0.0000009
   14.760      0.00000       2937.4680875      -2937.4680960        -0.0000086
   14.940      0.00000       2840.7792354      -2840.7792527        -0.0000173
   15.120      0.00000       2744.8887737      -2744.8887626         0.0000111
   15.300      0.00000       2648.1430838      -2648.1431169        -0.0000331
   15.480      0.00000       2552.3051333      -2552.3051055         0.0000278
   15.660      0.00000       2455.5117580      -2455.5118043        -0.0000462
   15.840      0.00000       2359.7162015      -2359.7161601         0.0000414
   16.020      0.00000       2262.8861503      -2262.8862068        -0.0000565
   16.200      0.00000       2167.1211670      -2167.1211151         0.0000519
   16.380      0.00000       2070.2669831      -2070.2670470        -0.0000639
   16.560      0.00000       1974.5194030      -1974.5193436         0.0000594
   16.740      0.00000       1877.6547818      -1877.6548502        -0.0000684
   16.920      0.00000       1781.9104911      -1781.9104273         0.0000638
   17.100      0.00000       1685.0498534      -1685.0499236        -0.0000701
   17.280      0.00000       1589.2942389      -1589.2941736         0.0000654
   17.460      0.00000       1492.4522736      -1492.4523428        -0.0000692
   17.640      0.00000       1396.6706891      -1396.6706249         0.0000642
   17.820      0.00000       1299.8618809      -1299.8619467        -0.0000657
   18.000      0.00000       1204.0401208      -1204.0400603         0.0000606
   18.180      0.00000       1107.2782802      -1107.2783403        -0.0000601
   18.360      0.00000       1011.4030426      -1011.4029879         0.0000547
   18.540      0.00000        914.7008536       -914.7009061        -0.0000525
   18.720      0.00000        818.7601769       -818.7601300         0.0000469
   18.900      0.00000        722.1287796       -722.1288229        -0.0000433
   19.080      0.00000        626.1124377       -626.1124002         0.0000375
   19.260      0.00000        529.5610593       -529.5610921        -0.0000327
   19.440      0.00000        433.4609004       -433.4608736         0.0000267
   19.620      0.00000        806.4820284       -806.4804014         0.0016270
   19.800      0.00000       1950.2154270      -1950.2094178         0.0060091
   19.980      0.00000       3611.4036567      -3611.3915280         0.0121286
   20.160      0.00000       5537.5199131      -5537.5007293         0.0191838


     convergence has been achieved in  29 iterations

     Forces acting on atoms (Ry/au):

     atom    1 type  1   force =    -0.00000579   -0.00000303   -0.00206288
     atom    2 type  1   force =     0.00000030    0.00000001    0.00699405
     atom    3 type  1   force =    -0.00000056   -0.00000008   -0.00536917
     atom    4 type  1   force =    -0.00000005   -0.00000002   -0.00001892
     atom    5 type  1   force =     0.00000056   -0.00000001    0.00539406
     atom    6 type  1   force =    -0.00000024    0.00000002   -0.00702533
     atom    7 type  1   force =     0.00000577    0.00000311    0.00208819

     Total force =     0.012838     Total SCF correction =     0.000782

     Writing output data file Al111.save

     init_run     :      0.46s CPU      0.53s WALL (       1 calls)
     electrons    :     26.39s CPU     30.34s WALL (       1 calls)
     forces       :      0.12s CPU      0.13s WALL (       1 calls)

     Called by init_run:
     wfcinit      :      0.39s CPU      0.43s WALL (       1 calls)
     potinit      :      0.03s CPU      0.04s WALL (       1 calls)

     Called by electrons:
     c_bands      :     23.86s CPU     26.75s WALL (      29 calls)
     sum_band     :      1.96s CPU      2.03s WALL (      29 calls)
     v_of_rho     :      0.24s CPU      0.25s WALL (      30 calls)
     mix_rho      :      0.04s CPU      0.03s WALL (      29 calls)

     Called by c_bands:
     init_us_2    :      0.29s CPU      0.34s WALL (    2040 calls)
     cegterg      :     23.23s CPU     24.52s WALL (     986 calls)

     Called by *egterg:
     h_psi        :     12.48s CPU     13.26s WALL (    5312 calls)
     g_psi        :      0.16s CPU      0.19s WALL (    4292 calls)
     cdiaghg      :      5.61s CPU      5.64s WALL (    5278 calls)

     Called by h_psi:
     add_vuspsi   :      1.06s CPU      1.07s WALL (    5312 calls)

     General routines
     calbec       :      1.59s CPU      2.00s WALL (    5346 calls)
     fft          :      0.05s CPU      0.06s WALL (     333 calls)
     fftw         :     10.64s CPU     10.97s WALL (  101014 calls)
     davcio       :      0.01s CPU      1.24s WALL (    3026 calls)

     Parallel routines
     fft_scatter  :      3.65s CPU      3.81s WALL (  101347 calls)

     PWSCF        :    27.09s CPU        31.63s WALL


   This run was terminated on:  23:30:58   5Oct2011            

=------------------------------------------------------------------------------=
   JOB DONE.
=------------------------------------------------------------------------------=
