
     Program PWSCF v.6.1 (svn rev. 13369) starts on 19Aug2017 at  2:58:39 

     This program is part of the open-source Quantum ESPRESSO suite
     for quantum simulation of materials; please cite
         "P. Giannozzi et al., J. Phys.:Condens. Matter 21 395502 (2009);
          URL http://www.quantum-espresso.org", 
     in publications or presentations arising from this work. More details at
     http://www.quantum-espresso.org/quote

     Parallel version (MPI), running on     2 processors
     R & G space division:  proc/nbgrp/npool/nimage =       2
     Waiting for input...
     Reading input from standard input

     Current dimensions of program PWSCF are:
     Max number of different atomic species (ntypx) = 10
     Max number of k-points (npk) =  40000
     Max angular momentum in pseudopotentials (lmaxx) =  3

     Subspace diagonalization in iterative solution of the eigenvalue problem:
     a serial algorithm will be used


     Parallelization info
     --------------------
     sticks:   dense  smooth     PW     G-vecs:    dense   smooth      PW
     Min         126     126     42                 9606     9606    1804
     Max         127     127     43                 9613     9613    1813
     Sum         253     253     85                19219    19219    3617



     bravais-lattice index     =            0
     lattice parameter (alat)  =       5.0000  a.u.
     unit-cell volume          =     654.6195 (a.u.)^3
     number of atoms/cell      =            2
     number of atomic types    =            1
     number of electrons       =         8.00
     number of Kohn-Sham states=            8
     kinetic-energy cutoff     =      36.0000  Ry
     charge density cutoff     =     144.0000  Ry
     convergence threshold     =      1.0E-08
     mixing beta               =       0.7000
     number of iterations used =            8  plain     mixing
     Exchange-correlation      =  SLA  PZ   NOGX NOGC ( 1  1  0  0 0 0)

     Effective Screening Medium Method
     =================================
     Boundary Conditions: Metal-Slab-Metal
     grid points for fit at edges     =        4 


     celldm(1)=   4.999998  celldm(2)=   0.000000  celldm(3)=   0.000000
     celldm(4)=   0.000000  celldm(5)=   0.000000  celldm(6)=   0.000000

     crystal axes: (cart. coord. in units of alat)
               a(1) = (   1.000000   0.000000   0.000000 )  
               a(2) = (  -0.500000   0.866025   0.000000 )  
               a(3) = (   0.000000   0.000000   6.047126 )  

     reciprocal axes: (cart. coord. in units 2 pi/alat)
               b(1) = (  1.000000  0.577351 -0.000000 )  
               b(2) = (  0.000000  1.154701  0.000000 )  
               b(3) = (  0.000000 -0.000000  0.165368 )  


     PseudoPot. # 1 for C  read from file:
     /Users/otani/ESPRESSO/qe-6.1_printpot/pseudo/C.pz-van_ak.UPF
     MD5 check sum: d40b4001ce20bbb1180eafeb54b8064c
     Pseudo is Ultrasoft, Zval =  4.0
     Generated by new atomic code, or converted to UPF format
     Using radial grid of  721 points,  4 beta functions with: 
                l(1) =   0
                l(2) =   0
                l(3) =   1
                l(4) =   1
     Q(r) pseudized with  8 coefficients,  rinner =    0.800   0.800   0.800


     atomic species   valence    mass     pseudopotential
        C              4.00    12.01070     C ( 1.00)

     12 Sym. Ops. (no inversion) found
          (note: 12 additional sym.ops. were found but ignored
           their fractional translations are incommensurate with FFT grid)


   Cartesian axes

     site n.     atom                  positions (alat units)
         1           C   tau(   1) = (   0.0000000   0.0000000   0.0000000  )
         2           C   tau(   2) = (   0.0000000   0.5773503   0.0000000  )

     number of k points=    19  Methfessel-Paxton smearing, width (Ry)=  0.0300
                       cart. coord. in units 2pi/alat
        k(    1) = (   0.0000000   0.0000000   0.0000000), wk =   0.0138889
        k(    2) = (   0.0000000   0.0962251   0.0000000), wk =   0.0833333
        k(    3) = (   0.0000000   0.1924502   0.0000000), wk =   0.0833333
        k(    4) = (   0.0000000   0.2886753   0.0000000), wk =   0.0833333
        k(    5) = (   0.0000000   0.3849004   0.0000000), wk =   0.0833333
        k(    6) = (   0.0000000   0.4811254   0.0000000), wk =   0.0833333
        k(    7) = (   0.0000000  -0.5773505   0.0000000), wk =   0.0416667
        k(    8) = (   0.0833333   0.1443376   0.0000000), wk =   0.0833333
        k(    9) = (   0.0833333   0.2405627   0.0000000), wk =   0.1666667
        k(   10) = (   0.0833333   0.3367878   0.0000000), wk =   0.1666667
        k(   11) = (   0.0833333   0.4330129   0.0000000), wk =   0.1666667
        k(   12) = (   0.0833333   0.5292380   0.0000000), wk =   0.1666667
        k(   13) = (   0.1666667   0.2886753   0.0000000), wk =   0.0833333
        k(   14) = (   0.1666667   0.3849004   0.0000000), wk =   0.1666667
        k(   15) = (   0.1666667   0.4811254   0.0000000), wk =   0.1666667
        k(   16) = (   0.1666667   0.5773505   0.0000000), wk =   0.0833333
        k(   17) = (   0.2500000   0.4330129   0.0000000), wk =   0.0833333
        k(   18) = (   0.2500000   0.5292380   0.0000000), wk =   0.1666667
        k(   19) = (   0.3333333   0.5773505   0.0000000), wk =   0.0277778

     Dense  grid:    19219 G-vectors     FFT dimensions: (  20,  20, 120)

     Estimated max dynamical RAM per process >       9.90MB

     Estimated total allocated dynamical RAM >      19.81MB

     Initial potential from superposition of free atoms
     Check: negative starting charge=   -0.000141

     starting charge    7.99993, renormalised to    8.00000

     negative rho (up, down):  1.408E-04 0.000E+00
     Starting wfc are    8 randomized atomic wfcs

     total cpu time spent up to now is        0.2 secs

     Self-consistent Calculation

     iteration #  1     ecut=    36.00 Ry     beta=0.70
     Davidson diagonalization with overlap
     ethr =  1.00E-02,  avg # of iterations =  5.7

     negative rho (up, down):  3.138E-04 0.000E+00

     total cpu time spent up to now is        0.5 secs

     total energy              =     -22.77002999 Ry
     Harris-Foulkes estimate   =     -22.81854384 Ry
     estimated scf accuracy    <       0.08833252 Ry

     iteration #  2     ecut=    36.00 Ry     beta=0.70
     Davidson diagonalization with overlap
     c_bands:  2 eigenvalues not converged
     c_bands:  1 eigenvalues not converged
     ethr =  1.10E-03,  avg # of iterations =  5.9

     negative rho (up, down):  4.394E-04 0.000E+00

     total cpu time spent up to now is        0.8 secs

     total energy              =     -22.79010587 Ry
     Harris-Foulkes estimate   =     -22.79151593 Ry
     estimated scf accuracy    <       0.00307110 Ry

     iteration #  3     ecut=    36.00 Ry     beta=0.70
     Davidson diagonalization with overlap
     c_bands:  3 eigenvalues not converged
     c_bands:  4 eigenvalues not converged
     c_bands:  2 eigenvalues not converged
     c_bands:  1 eigenvalues not converged
     c_bands:  1 eigenvalues not converged
     c_bands:  2 eigenvalues not converged
     c_bands:  3 eigenvalues not converged
     c_bands:  3 eigenvalues not converged
     c_bands:  1 eigenvalues not converged
     c_bands:  2 eigenvalues not converged
     c_bands:  2 eigenvalues not converged
     c_bands:  3 eigenvalues not converged
     c_bands:  1 eigenvalues not converged
     c_bands:  2 eigenvalues not converged
     c_bands:  1 eigenvalues not converged
     c_bands:  1 eigenvalues not converged
     c_bands:  2 eigenvalues not converged
     c_bands:  1 eigenvalues not converged
     ethr =  3.84E-05,  avg # of iterations = 19.3

     negative rho (up, down):  5.962E-04 0.000E+00

     total cpu time spent up to now is        1.7 secs

     total energy              =     -22.79548098 Ry
     Harris-Foulkes estimate   =     -22.79568030 Ry
     estimated scf accuracy    <       0.00047159 Ry

     iteration #  4     ecut=    36.00 Ry     beta=0.70
     Davidson diagonalization with overlap
     c_bands:  2 eigenvalues not converged
     c_bands:  3 eigenvalues not converged
     c_bands:  3 eigenvalues not converged
     c_bands:  1 eigenvalues not converged
     c_bands:  1 eigenvalues not converged
     c_bands:  2 eigenvalues not converged
     c_bands:  1 eigenvalues not converged
     c_bands:  3 eigenvalues not converged
     c_bands:  1 eigenvalues not converged
     c_bands:  1 eigenvalues not converged
     c_bands:  2 eigenvalues not converged
     c_bands:  2 eigenvalues not converged
     c_bands:  3 eigenvalues not converged
     c_bands:  1 eigenvalues not converged
     c_bands:  1 eigenvalues not converged
     c_bands:  1 eigenvalues not converged
     c_bands:  2 eigenvalues not converged
     c_bands:  2 eigenvalues not converged
     c_bands:  1 eigenvalues not converged
     ethr =  5.89E-06,  avg # of iterations = 20.0

     negative rho (up, down):  6.151E-04 0.000E+00

     total cpu time spent up to now is        2.4 secs

     total energy              =     -22.79566643 Ry
     Harris-Foulkes estimate   =     -22.79583342 Ry
     estimated scf accuracy    <       0.00032167 Ry

     iteration #  5     ecut=    36.00 Ry     beta=0.70
     Davidson diagonalization with overlap
     c_bands:  3 eigenvalues not converged
     c_bands:  1 eigenvalues not converged
     c_bands:  2 eigenvalues not converged
     c_bands:  1 eigenvalues not converged
     c_bands:  1 eigenvalues not converged
     c_bands:  1 eigenvalues not converged
     c_bands:  1 eigenvalues not converged
     c_bands:  1 eigenvalues not converged
     c_bands:  1 eigenvalues not converged
     c_bands:  1 eigenvalues not converged
     c_bands:  2 eigenvalues not converged
     c_bands:  1 eigenvalues not converged
     c_bands:  1 eigenvalues not converged
     c_bands:  1 eigenvalues not converged
     c_bands:  1 eigenvalues not converged
     ethr =  4.02E-06,  avg # of iterations = 18.8

     negative rho (up, down):  6.185E-04 0.000E+00

     total cpu time spent up to now is        3.0 secs

     total energy              =     -22.79565928 Ry
     Harris-Foulkes estimate   =     -22.79569352 Ry
     estimated scf accuracy    <       0.00005174 Ry

     iteration #  6     ecut=    36.00 Ry     beta=0.70
     Davidson diagonalization with overlap
     c_bands:  1 eigenvalues not converged
     c_bands:  1 eigenvalues not converged
     c_bands:  1 eigenvalues not converged
     c_bands:  1 eigenvalues not converged
     c_bands:  1 eigenvalues not converged
     c_bands:  1 eigenvalues not converged
     c_bands:  2 eigenvalues not converged
     c_bands:  1 eigenvalues not converged
     c_bands:  1 eigenvalues not converged
     c_bands:  1 eigenvalues not converged
     c_bands:  1 eigenvalues not converged
     ethr =  6.47E-07,  avg # of iterations = 14.8

     negative rho (up, down):  6.259E-04 0.000E+00

     total cpu time spent up to now is        3.6 secs

     total energy              =     -22.79569529 Ry
     Harris-Foulkes estimate   =     -22.79569686 Ry
     estimated scf accuracy    <       0.00000452 Ry

     iteration #  7     ecut=    36.00 Ry     beta=0.70
     Davidson diagonalization with overlap
     c_bands:  1 eigenvalues not converged
     c_bands:  1 eigenvalues not converged
     c_bands:  1 eigenvalues not converged
     c_bands:  1 eigenvalues not converged
     c_bands:  1 eigenvalues not converged
     c_bands:  1 eigenvalues not converged
     c_bands:  1 eigenvalues not converged
     ethr =  5.65E-08,  avg # of iterations = 10.6

     negative rho (up, down):  6.301E-04 0.000E+00

     total cpu time spent up to now is        4.0 secs

     total energy              =     -22.79569654 Ry
     Harris-Foulkes estimate   =     -22.79569759 Ry
     estimated scf accuracy    <       0.00000176 Ry

     iteration #  8     ecut=    36.00 Ry     beta=0.70
     Davidson diagonalization with overlap
     c_bands:  1 eigenvalues not converged
     c_bands:  1 eigenvalues not converged
     c_bands:  1 eigenvalues not converged
     ethr =  2.20E-08,  avg # of iterations =  5.8

     negative rho (up, down):  6.325E-04 0.000E+00

     total cpu time spent up to now is        4.2 secs

     total energy              =     -22.79569650 Ry
     Harris-Foulkes estimate   =     -22.79569674 Ry
     estimated scf accuracy    <       0.00000023 Ry

     iteration #  9     ecut=    36.00 Ry     beta=0.70
     Davidson diagonalization with overlap
     c_bands:  1 eigenvalues not converged
     ethr =  2.82E-09,  avg # of iterations =  6.2

     negative rho (up, down):  6.327E-04 0.000E+00

     total cpu time spent up to now is        4.6 secs

     End of self-consistent calculation

          k = 0.0000 0.0000 0.0000 (  2421 PWs)   bands (ev):

   -22.8031 -11.4103  -8.1498  -8.1498  -1.1648  -0.2871  -0.1045   1.8793

          k = 0.0000 0.0962 0.0000 (  2397 PWs)   bands (ev):

   -22.6597 -11.2452  -8.7477  -8.4206  -0.9713  -0.0922   0.0928   1.8756

          k = 0.0000 0.1925 0.0000 (  2378 PWs)   bands (ev):

   -22.2312 -10.7549 -10.2277  -9.0624  -0.3914   0.4884   0.6839   1.5930

          k = 0.0000 0.2887 0.0000 (  2364 PWs)   bands (ev):

   -21.5240 -12.0937  -9.9578  -9.7840   0.5721   0.8003   1.1474   1.4776

          k = 0.0000 0.3849 0.0000 (  2390 PWs)   bands (ev):

   -20.5530 -14.0304 -10.3909  -8.9010  -0.9994   0.7378   1.9187   2.8164

          k = 0.0000 0.4811 0.0000 (  2410 PWs)   bands (ev):

   -19.3643 -15.8429 -10.7842  -7.7298  -2.6963   0.4682   3.6266   4.5144

          k = 0.0000-0.5774 0.0000 (  2404 PWs)   bands (ev):

   -18.4193 -17.0023 -10.9194  -7.0501  -3.5635   0.3744   5.5990   6.2686

          k = 0.0833 0.1443 0.0000 (  2369 PWs)   bands (ev):

   -22.3737 -10.9173  -9.6987  -8.9668  -0.5845   0.2959   0.4867   2.1436

          k = 0.0833 0.2406 0.0000 (  2373 PWs)   bands (ev):

   -21.8058 -11.2376 -10.2726  -9.7890   0.1892   1.0815   1.4614   1.9851

          k = 0.0833 0.3368 0.0000 (  2390 PWs)   bands (ev):

   -20.9658 -13.0648 -10.5348  -9.3398  -0.2156   1.3366   1.5704   2.2288

          k = 0.0833 0.4330 0.0000 (  2388 PWs)   bands (ev):

   -19.8785 -14.9127 -11.0726  -8.1960  -1.9614   1.2214   2.8696   3.7422

          k = 0.0833 0.5292 0.0000 (  2393 PWs)   bands (ev):

   -18.6617 -16.5358 -11.3514  -7.1292  -3.3654   1.0370   4.7390   5.5269

          k = 0.1667 0.2887 0.0000 (  2393 PWs)   bands (ev):

   -21.1046 -12.4740 -10.9066  -9.4886   0.1099   1.1494   2.0231   2.2604

          k = 0.1667 0.3849 0.0000 (  2386 PWs)   bands (ev):

   -20.1441 -13.9936 -11.8135  -8.4459  -1.4377   2.4835   2.9985   3.3351

          k = 0.1667 0.4811 0.0000 (  2383 PWs)   bands (ev):

   -18.9714 -15.6191 -12.3315  -7.2708  -2.9652   2.7210   4.1751   4.8669

          k = 0.1667 0.5774 0.0000 (  2390 PWs)   bands (ev):

   -18.0329 -16.7271 -12.4987  -6.5500  -3.8130   2.6250   5.7778   5.9765

          k = 0.2500 0.4330 0.0000 (  2385 PWs)   bands (ev):

   -19.0879 -14.9936 -13.0098  -7.3350  -2.7592   3.9766   4.6144   4.7060

          k = 0.2500 0.5292 0.0000 (  2393 PWs)   bands (ev):

   -17.9045 -16.1864 -13.6243  -6.1999  -3.9960   4.6248   5.1957   5.6858

          k = 0.3333 0.5774 0.0000 (  2379 PWs)   bands (ev):

   -16.8806 -16.8806 -14.2412  -5.0805  -5.0805   4.9807   5.9262   5.9275

     the Fermi energy is    -5.0802 ev

!    total energy              =     -22.79569676 Ry
     Harris-Foulkes estimate   =     -22.79569676 Ry
     estimated scf accuracy    <          9.3E-09 Ry

     The total energy is the sum of the following terms:

     one-electron contribution =    -521.02104508 Ry
     hartree contribution      =     260.91068467 Ry
     xc contribution           =      -6.63701918 Ry
     ewald contribution        =     243.95190415 Ry
     smearing contrib. (-TS)   =      -0.00022131 Ry

     convergence has been achieved in   9 iterations

     Forces acting on atoms (cartesian axes, Ry/au):

     atom    1 type  1   force =     0.00000000    0.00000000    0.00000000
     atom    2 type  1   force =     0.00000000    0.00000000    0.00000000

     Total force =     0.000000     Total SCF correction =     0.000000


     Computing stress (Cartesian axis) and pressure

          total   stress  (Ry/bohr**3)                   (kbar)     P=  -99.81
  -0.00101770   0.00000000   0.00000000       -149.71      0.00      0.00
   0.00000000  -0.00101770   0.00000000          0.00   -149.71      0.00
   0.00000000   0.00000000   0.00000000          0.00      0.00      0.00


     Writing output data file graphene_bc2.save

     init_run     :      0.18s CPU      0.18s WALL (       1 calls)
     electrons    :      4.76s CPU      4.37s WALL (       1 calls)
     forces       :      0.06s CPU      0.06s WALL (       1 calls)
     stress       :      0.15s CPU      0.14s WALL (       1 calls)

     Called by init_run:
     wfcinit      :      0.08s CPU      0.07s WALL (       1 calls)
     potinit      :      0.02s CPU      0.02s WALL (       1 calls)

     Called by electrons:
     c_bands      :      4.35s CPU      3.93s WALL (       9 calls)
     sum_band     :      0.32s CPU      0.31s WALL (       9 calls)
     v_of_rho     :      0.03s CPU      0.03s WALL (      10 calls)
     newd         :      0.05s CPU      0.06s WALL (      10 calls)
     mix_rho      :      0.01s CPU      0.02s WALL (       9 calls)

     Called by c_bands:
     init_us_2    :      0.07s CPU      0.07s WALL (     399 calls)
     cegterg      :      4.25s CPU      3.83s WALL (     171 calls)

     Called by sum_band:
     sum_band:bec :      0.00s CPU      0.00s WALL (     171 calls)
     addusdens    :      0.06s CPU      0.05s WALL (       9 calls)

     Called by *egterg:
     h_psi        :      2.51s CPU      2.47s WALL (    2224 calls)
     s_psi        :      0.24s CPU      0.15s WALL (    2224 calls)
     g_psi        :      0.04s CPU      0.04s WALL (    2034 calls)
     cdiaghg      :      0.31s CPU      0.32s WALL (    2205 calls)

     Called by h_psi:
     h_psi:pot    :      2.47s CPU      2.43s WALL (    2224 calls)
     h_psi:calbec :      0.15s CPU      0.15s WALL (    2224 calls)
     vloc_psi     :      2.05s CPU      2.12s WALL (    2224 calls)
     add_vuspsi   :      0.26s CPU      0.16s WALL (    2224 calls)

     General routines
     calbec       :      0.18s CPU      0.18s WALL (    2490 calls)
     fft          :      0.02s CPU      0.02s WALL (      65 calls)
     fftw         :      1.87s CPU      1.93s WALL (   15968 calls)
     davcio       :      0.00s CPU      0.00s WALL (      19 calls)

     Parallel routines
     fft_scatter  :      0.49s CPU      0.51s WALL (   16033 calls)

     PWSCF        :     5.20s CPU         4.82s WALL


   This run was terminated on:   2:58:43  19Aug2017            

=------------------------------------------------------------------------------=
   JOB DONE.
=------------------------------------------------------------------------------=
