
     Program PWSCF v.6.1 (svn rev. 13369) starts on 19Aug2017 at  2:58:49 

     This program is part of the open-source Quantum ESPRESSO suite
     for quantum simulation of materials; please cite
         "P. Giannozzi et al., J. Phys.:Condens. Matter 21 395502 (2009);
          URL http://www.quantum-espresso.org", 
     in publications or presentations arising from this work. More details at
     http://www.quantum-espresso.org/quote

     Parallel version (MPI), running on     2 processors
     R & G space division:  proc/nbgrp/npool/nimage =       2
     Waiting for input...
     Reading input from standard input

     Current dimensions of program PWSCF are:
     Max number of different atomic species (ntypx) = 10
     Max number of k-points (npk) =  40000
     Max angular momentum in pseudopotentials (lmaxx) =  3

     Subspace diagonalization in iterative solution of the eigenvalue problem:
     a serial algorithm will be used


     Parallelization info
     --------------------
     sticks:   dense  smooth     PW     G-vecs:    dense   smooth      PW
     Min         127     127     45                 9844     9844    2114
     Max         128     128     46                 9845     9845    2117
     Sum         255     255     91                19689    19689    4231



     bravais-lattice index     =            0
     lattice parameter (alat)  =       5.0000  a.u.
     unit-cell volume          =     675.0316 (a.u.)^3
     number of atoms/cell      =            2
     number of atomic types    =            1
     number of electrons       =         8.00
     number of Kohn-Sham states=            8
     kinetic-energy cutoff     =      36.0000  Ry
     charge density cutoff     =     144.0000  Ry
     convergence threshold     =      1.0E-08
     mixing beta               =       0.7000
     number of iterations used =            8  plain     mixing
     Exchange-correlation      =  SLA  PZ   NOGX NOGC ( 1  1  0  0 0 0)
     nstep                     =           50


     Effective Screening Medium Method
     =================================
     Boundary Conditions: Vacuum-Slab-Vacuum
     grid points for fit at edges     =        4 


     celldm(1)=   4.999998  celldm(2)=   0.000000  celldm(3)=   0.000000
     celldm(4)=   0.000000  celldm(5)=   0.000000  celldm(6)=   0.000000

     crystal axes: (cart. coord. in units of alat)
               a(1) = (   1.000000   0.000000   0.000000 )  
               a(2) = (  -0.450000   0.893029   0.000000 )  
               a(3) = (   0.000000   0.000000   6.047126 )  

     reciprocal axes: (cart. coord. in units 2 pi/alat)
               b(1) = (  1.000000  0.503903 -0.000000 )  
               b(2) = (  0.000000  1.119784  0.000000 )  
               b(3) = (  0.000000 -0.000000  0.165368 )  


     PseudoPot. # 1 for C  read from file:
     /Users/otani/ESPRESSO/qe-6.1_printpot/pseudo/C.pz-van_ak.UPF
     MD5 check sum: d40b4001ce20bbb1180eafeb54b8064c
     Pseudo is Ultrasoft, Zval =  4.0
     Generated by new atomic code, or converted to UPF format
     Using radial grid of  721 points,  4 beta functions with: 
                l(1) =   0
                l(2) =   0
                l(3) =   1
                l(4) =   1
     Q(r) pseudized with  8 coefficients,  rinner =    0.800   0.800   0.800


     atomic species   valence    mass     pseudopotential
        C              4.00    12.01070     C ( 1.00)

      2 Sym. Ops. (no inversion) found



   Cartesian axes

     site n.     atom                  positions (alat units)
         1           C   tau(   1) = (   0.0000000   0.0000000   0.0000000  )
         2           C   tau(   2) = (   0.0000000   0.5773503   0.0000000  )

     number of k points=    74  Methfessel-Paxton smearing, width (Ry)=  0.0300
                       cart. coord. in units 2pi/alat
        k(    1) = (   0.0000000   0.0000000   0.0000000), wk =   0.0138889
        k(    2) = (   0.0000000   0.0933154   0.0000000), wk =   0.0277778
        k(    3) = (   0.0000000   0.1866307   0.0000000), wk =   0.0277778
        k(    4) = (   0.0000000   0.2799461   0.0000000), wk =   0.0277778
        k(    5) = (   0.0000000   0.3732615   0.0000000), wk =   0.0277778
        k(    6) = (   0.0000000   0.4665769   0.0000000), wk =   0.0277778
        k(    7) = (   0.0000000  -0.5598922   0.0000000), wk =   0.0138889
        k(    8) = (   0.0833333   0.0419919   0.0000000), wk =   0.0277778
        k(    9) = (   0.0833333   0.1353073   0.0000000), wk =   0.0277778
        k(   10) = (   0.0833333   0.2286227   0.0000000), wk =   0.0277778
        k(   11) = (   0.0833333   0.3219380   0.0000000), wk =   0.0277778
        k(   12) = (   0.0833333   0.4152534   0.0000000), wk =   0.0277778
        k(   13) = (   0.0833333   0.5085688   0.0000000), wk =   0.0277778
        k(   14) = (   0.0833333  -0.5179003   0.0000000), wk =   0.0277778
        k(   15) = (   0.0833333  -0.4245849   0.0000000), wk =   0.0277778
        k(   16) = (   0.0833333  -0.3312696   0.0000000), wk =   0.0277778
        k(   17) = (   0.0833333  -0.2379542   0.0000000), wk =   0.0277778
        k(   18) = (   0.0833333  -0.1446388   0.0000000), wk =   0.0277778
        k(   19) = (   0.0833333  -0.0513235   0.0000000), wk =   0.0277778
        k(   20) = (   0.1666667   0.0839838   0.0000000), wk =   0.0277778
        k(   21) = (   0.1666667   0.1772992   0.0000000), wk =   0.0277778
        k(   22) = (   0.1666667   0.2706146   0.0000000), wk =   0.0277778
        k(   23) = (   0.1666667   0.3639300   0.0000000), wk =   0.0277778
        k(   24) = (   0.1666667   0.4572453   0.0000000), wk =   0.0277778
        k(   25) = (   0.1666667   0.5505607   0.0000000), wk =   0.0277778
        k(   26) = (   0.1666667  -0.4759084   0.0000000), wk =   0.0277778
        k(   27) = (   0.1666667  -0.3825930   0.0000000), wk =   0.0277778
        k(   28) = (   0.1666667  -0.2892777   0.0000000), wk =   0.0277778
        k(   29) = (   0.1666667  -0.1959623   0.0000000), wk =   0.0277778
        k(   30) = (   0.1666667  -0.1026469   0.0000000), wk =   0.0277778
        k(   31) = (   0.1666667  -0.0093315   0.0000000), wk =   0.0277778
        k(   32) = (   0.2500000   0.1259758   0.0000000), wk =   0.0277778
        k(   33) = (   0.2500000   0.2192911   0.0000000), wk =   0.0277778
        k(   34) = (   0.2500000   0.3126065   0.0000000), wk =   0.0277778
        k(   35) = (   0.2500000   0.4059219   0.0000000), wk =   0.0277778
        k(   36) = (   0.2500000   0.4992372   0.0000000), wk =   0.0277778
        k(   37) = (   0.2500000   0.5925526   0.0000000), wk =   0.0277778
        k(   38) = (   0.2500000  -0.4339165   0.0000000), wk =   0.0277778
        k(   39) = (   0.2500000  -0.3406011   0.0000000), wk =   0.0277778
        k(   40) = (   0.2500000  -0.2472857   0.0000000), wk =   0.0277778
        k(   41) = (   0.2500000  -0.1539704   0.0000000), wk =   0.0277778
        k(   42) = (   0.2500000  -0.0606550   0.0000000), wk =   0.0277778
        k(   43) = (   0.2500000   0.0326604   0.0000000), wk =   0.0277778
        k(   44) = (   0.3333333   0.1679677   0.0000000), wk =   0.0277778
        k(   45) = (   0.3333333   0.2612830   0.0000000), wk =   0.0277778
        k(   46) = (   0.3333333   0.3545984   0.0000000), wk =   0.0277778
        k(   47) = (   0.3333333   0.4479138   0.0000000), wk =   0.0277778
        k(   48) = (   0.3333333   0.5412292   0.0000000), wk =   0.0277778
        k(   49) = (   0.3333333   0.6345445   0.0000000), wk =   0.0277778
        k(   50) = (   0.3333333  -0.3919246   0.0000000), wk =   0.0277778
        k(   51) = (   0.3333333  -0.2986092   0.0000000), wk =   0.0277778
        k(   52) = (   0.3333333  -0.2052938   0.0000000), wk =   0.0277778
        k(   53) = (   0.3333333  -0.1119784   0.0000000), wk =   0.0277778
        k(   54) = (   0.3333333  -0.0186631   0.0000000), wk =   0.0277778
        k(   55) = (   0.3333333   0.0746523   0.0000000), wk =   0.0277778
        k(   56) = (   0.4166667   0.2099596   0.0000000), wk =   0.0277778
        k(   57) = (   0.4166667   0.3032750   0.0000000), wk =   0.0277778
        k(   58) = (   0.4166667   0.3965903   0.0000000), wk =   0.0277778
        k(   59) = (   0.4166667   0.4899057   0.0000000), wk =   0.0277778
        k(   60) = (   0.4166667   0.5832211   0.0000000), wk =   0.0277778
        k(   61) = (   0.4166667   0.6765364   0.0000000), wk =   0.0277778
        k(   62) = (   0.4166667  -0.3499326   0.0000000), wk =   0.0277778
        k(   63) = (   0.4166667  -0.2566173   0.0000000), wk =   0.0277778
        k(   64) = (   0.4166667  -0.1633019   0.0000000), wk =   0.0277778
        k(   65) = (   0.4166667  -0.0699865   0.0000000), wk =   0.0277778
        k(   66) = (   0.4166667   0.0233288   0.0000000), wk =   0.0277778
        k(   67) = (   0.4166667   0.1166442   0.0000000), wk =   0.0277778
        k(   68) = (  -0.5000000  -0.2519515   0.0000000), wk =   0.0138889
        k(   69) = (  -0.5000000  -0.1586361   0.0000000), wk =   0.0277778
        k(   70) = (  -0.5000000  -0.0653208   0.0000000), wk =   0.0277778
        k(   71) = (  -0.5000000   0.0279946   0.0000000), wk =   0.0277778
        k(   72) = (  -0.5000000   0.1213100   0.0000000), wk =   0.0277778
        k(   73) = (  -0.5000000   0.2146254   0.0000000), wk =   0.0277778
        k(   74) = (  -0.5000000  -0.8118437   0.0000000), wk =   0.0138889

     Dense  grid:    19689 G-vectors     FFT dimensions: (  20,  20, 120)

     Estimated max dynamical RAM per process >      18.40MB

     Estimated total allocated dynamical RAM >      36.79MB

     Initial potential from superposition of free atoms
     Check: negative starting charge=   -0.000142

     starting charge    7.99993, renormalised to    8.00000

     negative rho (up, down):  1.423E-04 0.000E+00
     Starting wfc are    8 randomized atomic wfcs

     total cpu time spent up to now is        0.5 secs

     Self-consistent Calculation

     iteration #  1     ecut=    36.00 Ry     beta=0.70
     Davidson diagonalization with overlap
     c_bands:  1 eigenvalues not converged
     ethr =  1.00E-02,  avg # of iterations = 10.1

     negative rho (up, down):  3.537E-04 0.000E+00

     total cpu time spent up to now is        2.3 secs

     total energy              =     -22.74200702 Ry
     Harris-Foulkes estimate   =     -22.79407042 Ry
     estimated scf accuracy    <       0.09229232 Ry

     iteration #  2     ecut=    36.00 Ry     beta=0.70
     Davidson diagonalization with overlap
     ethr =  1.15E-03,  avg # of iterations =  4.0

     negative rho (up, down):  4.740E-04 0.000E+00

     total cpu time spent up to now is        3.3 secs

     total energy              =     -22.75743189 Ry
     Harris-Foulkes estimate   =     -22.75820304 Ry
     estimated scf accuracy    <       0.00219692 Ry

     iteration #  3     ecut=    36.00 Ry     beta=0.70
     Davidson diagonalization with overlap
     c_bands:  3 eigenvalues not converged
     c_bands:  3 eigenvalues not converged
     c_bands:  2 eigenvalues not converged
     c_bands:  1 eigenvalues not converged
     c_bands:  1 eigenvalues not converged
     c_bands:  1 eigenvalues not converged
     c_bands:  2 eigenvalues not converged
     c_bands:  4 eigenvalues not converged
     c_bands:  1 eigenvalues not converged
     c_bands:  1 eigenvalues not converged
     c_bands:  1 eigenvalues not converged
     c_bands:  2 eigenvalues not converged
     c_bands:  1 eigenvalues not converged
     c_bands:  1 eigenvalues not converged
     c_bands:  1 eigenvalues not converged
     c_bands:  2 eigenvalues not converged
     c_bands:  2 eigenvalues not converged
     c_bands:  2 eigenvalues not converged
     c_bands:  3 eigenvalues not converged
     c_bands:  2 eigenvalues not converged
     c_bands:  2 eigenvalues not converged
     c_bands:  1 eigenvalues not converged
     c_bands:  1 eigenvalues not converged
     c_bands:  2 eigenvalues not converged
     c_bands:  2 eigenvalues not converged
     c_bands:  1 eigenvalues not converged
     c_bands:  2 eigenvalues not converged
     c_bands:  3 eigenvalues not converged
     c_bands:  3 eigenvalues not converged
     c_bands:  3 eigenvalues not converged
     c_bands:  2 eigenvalues not converged
     c_bands:  1 eigenvalues not converged
     c_bands:  2 eigenvalues not converged
     c_bands:  1 eigenvalues not converged
     c_bands:  1 eigenvalues not converged
     c_bands:  1 eigenvalues not converged
     c_bands:  1 eigenvalues not converged
     c_bands:  2 eigenvalues not converged
     c_bands:  3 eigenvalues not converged
     c_bands:  2 eigenvalues not converged
     c_bands:  2 eigenvalues not converged
     c_bands:  1 eigenvalues not converged
     c_bands:  1 eigenvalues not converged
     c_bands:  1 eigenvalues not converged
     c_bands:  1 eigenvalues not converged
     c_bands:  1 eigenvalues not converged
     c_bands:  2 eigenvalues not converged
     c_bands:  1 eigenvalues not converged
     c_bands:  1 eigenvalues not converged
     c_bands:  1 eigenvalues not converged
     c_bands:  1 eigenvalues not converged
     c_bands:  1 eigenvalues not converged
     c_bands:  1 eigenvalues not converged
     c_bands:  1 eigenvalues not converged
     c_bands:  2 eigenvalues not converged
     c_bands:  1 eigenvalues not converged
     c_bands:  1 eigenvalues not converged
     c_bands:  1 eigenvalues not converged
     c_bands:  1 eigenvalues not converged
     c_bands:  2 eigenvalues not converged
     c_bands:  2 eigenvalues not converged
     c_bands:  1 eigenvalues not converged
     c_bands:  1 eigenvalues not converged
     c_bands:  1 eigenvalues not converged
     c_bands:  2 eigenvalues not converged
     c_bands:  1 eigenvalues not converged
     c_bands:  2 eigenvalues not converged
     c_bands:  1 eigenvalues not converged
     c_bands:  1 eigenvalues not converged
     ethr =  2.75E-05,  avg # of iterations = 19.7

     negative rho (up, down):  5.906E-04 0.000E+00

     total cpu time spent up to now is        6.4 secs

     total energy              =     -22.76081108 Ry
     Harris-Foulkes estimate   =     -22.76110978 Ry
     estimated scf accuracy    <       0.00051864 Ry

     iteration #  4     ecut=    36.00 Ry     beta=0.70
     Davidson diagonalization with overlap
     c_bands:  3 eigenvalues not converged
     c_bands:  1 eigenvalues not converged
     c_bands:  2 eigenvalues not converged
     c_bands:  1 eigenvalues not converged
     c_bands:  1 eigenvalues not converged
     c_bands:  1 eigenvalues not converged
     c_bands:  1 eigenvalues not converged
     c_bands:  1 eigenvalues not converged
     c_bands:  1 eigenvalues not converged
     c_bands:  1 eigenvalues not converged
     c_bands:  1 eigenvalues not converged
     c_bands:  1 eigenvalues not converged
     c_bands:  1 eigenvalues not converged
     c_bands:  1 eigenvalues not converged
     c_bands:  1 eigenvalues not converged
     c_bands:  1 eigenvalues not converged
     c_bands:  1 eigenvalues not converged
     c_bands:  1 eigenvalues not converged
     c_bands:  1 eigenvalues not converged
     c_bands:  1 eigenvalues not converged
     c_bands:  1 eigenvalues not converged
     c_bands:  1 eigenvalues not converged
     c_bands:  1 eigenvalues not converged
     c_bands:  1 eigenvalues not converged
     c_bands:  1 eigenvalues not converged
     c_bands:  1 eigenvalues not converged
     c_bands:  1 eigenvalues not converged
     c_bands:  2 eigenvalues not converged
     c_bands:  1 eigenvalues not converged
     c_bands:  1 eigenvalues not converged
     c_bands:  1 eigenvalues not converged
     c_bands:  2 eigenvalues not converged
     c_bands:  2 eigenvalues not converged
     c_bands:  1 eigenvalues not converged
     c_bands:  1 eigenvalues not converged
     c_bands:  1 eigenvalues not converged
     c_bands:  1 eigenvalues not converged
     c_bands:  1 eigenvalues not converged
     c_bands:  1 eigenvalues not converged
     c_bands:  1 eigenvalues not converged
     c_bands:  1 eigenvalues not converged
     c_bands:  1 eigenvalues not converged
     c_bands:  1 eigenvalues not converged
     c_bands:  1 eigenvalues not converged
     c_bands:  2 eigenvalues not converged
     c_bands:  2 eigenvalues not converged
     c_bands:  1 eigenvalues not converged
     c_bands:  1 eigenvalues not converged
     c_bands:  1 eigenvalues not converged
     c_bands:  1 eigenvalues not converged
     c_bands:  1 eigenvalues not converged
     c_bands:  1 eigenvalues not converged
     c_bands:  1 eigenvalues not converged
     c_bands:  1 eigenvalues not converged
     c_bands:  1 eigenvalues not converged
     ethr =  6.48E-06,  avg # of iterations = 18.2

     negative rho (up, down):  6.161E-04 0.000E+00

     total cpu time spent up to now is        8.8 secs

     total energy              =     -22.76092512 Ry
     Harris-Foulkes estimate   =     -22.76104511 Ry
     estimated scf accuracy    <       0.00019445 Ry

     iteration #  5     ecut=    36.00 Ry     beta=0.70
     Davidson diagonalization with overlap
     c_bands:  1 eigenvalues not converged
     c_bands:  1 eigenvalues not converged
     c_bands:  1 eigenvalues not converged
     c_bands:  1 eigenvalues not converged
     c_bands:  1 eigenvalues not converged
     c_bands:  1 eigenvalues not converged
     c_bands:  1 eigenvalues not converged
     c_bands:  1 eigenvalues not converged
     c_bands:  2 eigenvalues not converged
     c_bands:  2 eigenvalues not converged
     c_bands:  1 eigenvalues not converged
     c_bands:  1 eigenvalues not converged
     c_bands:  1 eigenvalues not converged
     c_bands:  1 eigenvalues not converged
     c_bands:  1 eigenvalues not converged
     c_bands:  1 eigenvalues not converged
     c_bands:  1 eigenvalues not converged
     c_bands:  1 eigenvalues not converged
     c_bands:  1 eigenvalues not converged
     c_bands:  1 eigenvalues not converged
     c_bands:  1 eigenvalues not converged
     c_bands:  1 eigenvalues not converged
     c_bands:  1 eigenvalues not converged
     c_bands:  1 eigenvalues not converged
     c_bands:  1 eigenvalues not converged
     c_bands:  1 eigenvalues not converged
     c_bands:  1 eigenvalues not converged
     c_bands:  1 eigenvalues not converged
     c_bands:  1 eigenvalues not converged
     c_bands:  1 eigenvalues not converged
     c_bands:  1 eigenvalues not converged
     c_bands:  1 eigenvalues not converged
     c_bands:  1 eigenvalues not converged
     c_bands:  1 eigenvalues not converged
     c_bands:  1 eigenvalues not converged
     c_bands:  1 eigenvalues not converged
     c_bands:  1 eigenvalues not converged
     c_bands:  1 eigenvalues not converged
     c_bands:  1 eigenvalues not converged
     c_bands:  1 eigenvalues not converged
     c_bands:  1 eigenvalues not converged
     ethr =  2.43E-06,  avg # of iterations = 15.1

     negative rho (up, down):  6.255E-04 0.000E+00

     total cpu time spent up to now is       10.6 secs

     total energy              =     -22.76094755 Ry
     Harris-Foulkes estimate   =     -22.76095196 Ry
     estimated scf accuracy    <       0.00000597 Ry

     iteration #  6     ecut=    36.00 Ry     beta=0.70
     Davidson diagonalization with overlap
     c_bands:  1 eigenvalues not converged
     c_bands:  1 eigenvalues not converged
     c_bands:  1 eigenvalues not converged
     c_bands:  1 eigenvalues not converged
     c_bands:  2 eigenvalues not converged
     c_bands:  1 eigenvalues not converged
     c_bands:  1 eigenvalues not converged
     c_bands:  1 eigenvalues not converged
     c_bands:  1 eigenvalues not converged
     c_bands:  1 eigenvalues not converged
     c_bands:  1 eigenvalues not converged
     c_bands:  1 eigenvalues not converged
     c_bands:  1 eigenvalues not converged
     c_bands:  1 eigenvalues not converged
     c_bands:  1 eigenvalues not converged
     c_bands:  1 eigenvalues not converged
     c_bands:  1 eigenvalues not converged
     c_bands:  1 eigenvalues not converged
     c_bands:  1 eigenvalues not converged
     c_bands:  1 eigenvalues not converged
     c_bands:  1 eigenvalues not converged
     c_bands:  1 eigenvalues not converged
     c_bands:  1 eigenvalues not converged
     c_bands:  1 eigenvalues not converged
     c_bands:  1 eigenvalues not converged
     c_bands:  1 eigenvalues not converged
     c_bands:  1 eigenvalues not converged
     c_bands:  1 eigenvalues not converged
     c_bands:  1 eigenvalues not converged
     ethr =  7.46E-08,  avg # of iterations = 11.4

     negative rho (up, down):  6.270E-04 0.000E+00

     total cpu time spent up to now is       12.3 secs

     total energy              =     -22.76095754 Ry
     Harris-Foulkes estimate   =     -22.76095832 Ry
     estimated scf accuracy    <       0.00000218 Ry

     iteration #  7     ecut=    36.00 Ry     beta=0.70
     Davidson diagonalization with overlap
     c_bands:  1 eigenvalues not converged
     c_bands:  1 eigenvalues not converged
     c_bands:  1 eigenvalues not converged
     c_bands:  1 eigenvalues not converged
     c_bands:  1 eigenvalues not converged
     c_bands:  1 eigenvalues not converged
     c_bands:  1 eigenvalues not converged
     ethr =  2.73E-08,  avg # of iterations =  4.5

     negative rho (up, down):  6.283E-04 0.000E+00

     total cpu time spent up to now is       13.2 secs

     total energy              =     -22.76095728 Ry
     Harris-Foulkes estimate   =     -22.76095769 Ry
     estimated scf accuracy    <       0.00000086 Ry

     iteration #  8     ecut=    36.00 Ry     beta=0.70
     Davidson diagonalization with overlap
     c_bands:  1 eigenvalues not converged
     ethr =  1.08E-08,  avg # of iterations =  3.7

     negative rho (up, down):  6.296E-04 0.000E+00

     total cpu time spent up to now is       14.1 secs

     total energy              =     -22.76095739 Ry
     Harris-Foulkes estimate   =     -22.76095745 Ry
     estimated scf accuracy    <       0.00000010 Ry

     iteration #  9     ecut=    36.00 Ry     beta=0.70
     Davidson diagonalization with overlap
     ethr =  1.26E-09,  avg # of iterations =  3.5

     negative rho (up, down):  6.300E-04 0.000E+00

     total cpu time spent up to now is       15.0 secs

     End of self-consistent calculation

          k = 0.0000 0.0000 0.0000 (  2441 PWs)   bands (ev):

   -22.5969 -11.2680  -9.3874  -6.9492  -1.1367  -0.6762  -0.2852  -0.0889

          k = 0.0000 0.0933 0.0000 (  2455 PWs)   bands (ev):

   -22.4639 -11.1119  -9.8695  -7.3170  -0.9597  -0.3651  -0.1021   0.0982

          k = 0.0000 0.1866 0.0000 (  2456 PWs)   bands (ev):

   -22.0666 -11.1155 -10.6481  -8.1149  -0.4219   0.1975   0.4440   0.6566

          k = 0.0000 0.2799 0.0000 (  2457 PWs)   bands (ev):

   -21.4117 -12.7541  -9.8919  -8.9326   0.3300   0.3888   0.5582   1.3698

          k = 0.0000 0.3733 0.0000 (  2470 PWs)   bands (ev):

   -20.5146 -14.4957  -9.5805  -8.8824  -1.4626   0.4106   1.7561   2.6335

          k = 0.0000 0.4666 0.0000 (  2483 PWs)   bands (ev):

   -19.4232 -16.1408  -9.9877  -7.7450  -3.1405   0.3016   3.3535   4.2417

          k = 0.0000-0.5599 0.0000 (  2494 PWs)   bands (ev):

   -18.5777 -17.1777 -10.1260  -7.0598  -4.0170   0.2526   5.2180   5.2628

          k = 0.0833 0.0420 0.0000 (  2455 PWs)   bands (ev):

   -22.4639 -11.1218  -9.5462  -7.7761  -0.9629  -0.1042  -0.0955   0.1064

          k = 0.0833 0.1353 0.0000 (  2459 PWs)   bands (ev):

   -22.2129 -10.8381 -10.2434  -8.5593  -0.6236   0.2408   0.3786   0.5090

          k = 0.0833 0.2286 0.0000 (  2459 PWs)   bands (ev):

   -21.7016 -11.6654 -10.2534  -9.3603   0.0749   0.9470   0.9853   1.1903

          k = 0.0833 0.3219 0.0000 (  2455 PWs)   bands (ev):

   -20.9407 -13.3887 -10.0131  -9.3904  -0.4607   1.0144   1.3115   2.0141

          k = 0.0833 0.4153 0.0000 (  2464 PWs)   bands (ev):

   -19.9553 -15.1278 -10.4493  -8.3080  -2.2075   1.0368   2.5912   3.4193

          k = 0.0833 0.5086 0.0000 (  2483 PWs)   bands (ev):

   -18.8500 -16.6608 -10.6289  -7.2266  -3.6854   0.8934   4.3137   5.1178

          k = 0.0833-0.5179 0.0000 (  2495 PWs)   bands (ev):

   -18.7181 -16.8530 -10.5301  -7.0833  -3.8792   0.8129   4.4960   5.3716

          k = 0.0833-0.4246 0.0000 (  2475 PWs)   bands (ev):

   -19.8207 -15.4499 -10.1465  -8.0990  -2.5579   0.7993   2.7304   3.6261

          k = 0.0833-0.3313 0.0000 (  2463 PWs)   bands (ev):

   -20.8382 -13.8222  -9.4924  -9.2128  -0.8392   0.7476   1.2842   2.1707

          k = 0.0833-0.2380 0.0000 (  2453 PWs)   bands (ev):

   -21.6303 -12.2093 -10.1235  -8.6376   0.1802   0.4430   0.8228   1.0945

          k = 0.0833-0.1446 0.0000 (  2452 PWs)   bands (ev):

   -22.1710 -10.7890 -10.7597  -7.8010  -0.5575  -0.1114   0.3006   0.5039

          k = 0.0833-0.0513 0.0000 (  2430 PWs)   bands (ev):

   -22.4501 -11.0956  -9.7946  -7.4216  -0.9391  -0.3411  -0.0839   0.1154

          k = 0.1667 0.0840 0.0000 (  2456 PWs)   bands (ev):

   -22.0682 -10.6909  -9.9545  -9.5508  -0.4217   0.4297   0.5882   0.6994

          k = 0.1667 0.1773 0.0000 (  2459 PWs)   bands (ev):

   -21.7042 -10.7860 -10.3695 -10.2894   0.0783   0.9038   1.0573   1.2178

          k = 0.1667 0.2706 0.0000 (  2449 PWs)   bands (ev):

   -21.0883 -12.2701 -11.0461  -9.5995   0.1134   0.9345   1.8019   1.9585

          k = 0.1667 0.3639 0.0000 (  2454 PWs)   bands (ev):

   -20.2382 -13.9557 -11.5498  -8.6530  -1.4034   2.0643   2.6174   2.9832

          k = 0.1667 0.4572 0.0000 (  2469 PWs)   bands (ev):

   -19.1981 -15.6071 -11.8026  -7.5329  -2.9800   2.3758   3.7981   4.4112

          k = 0.1667 0.5506 0.0000 (  2481 PWs)   bands (ev):

   -18.2473 -16.8600 -11.7666  -6.6251  -4.1191   2.2041   5.5497   5.8986

          k = 0.1667-0.4759 0.0000 (  2481 PWs)   bands (ev):

   -18.8906 -16.1978 -11.4181  -7.0974  -3.5948   1.9848   4.0737   4.8874

          k = 0.1667-0.3826 0.0000 (  2472 PWs)   bands (ev):

   -19.9912 -14.7985 -10.7528  -8.2382  -2.1218   1.5872   2.4592   3.3376

          k = 0.1667-0.2893 0.0000 (  2460 PWs)   bands (ev):

   -20.9098 -13.3708  -9.8344  -9.2776  -0.5305   0.8064   1.1759   2.2766

          k = 0.1667-0.1960 0.0000 (  2443 PWs)   bands (ev):

   -21.5887 -12.0349 -10.0729  -8.9112  -0.0072   0.2386   0.9066   1.1256

          k = 0.1667-0.1026 0.0000 (  2438 PWs)   bands (ev):

   -22.0115 -10.8761 -10.5825  -8.4593  -0.3445  -0.1350   0.5169   0.7267

          k = 0.1667-0.0093 0.0000 (  2452 PWs)   bands (ev):

   -22.1717 -10.7900 -10.0777  -8.7589  -0.5625   0.2927   0.4598   0.5464

          k = 0.2500 0.1260 0.0000 (  2457 PWs)   bands (ev):

   -21.4224 -11.5805 -10.4188 -10.0030   0.4657   0.7167   0.7365   1.4555

          k = 0.2500 0.2193 0.0000 (  2455 PWs)   bands (ev):

   -20.9578 -12.4067 -11.1812  -9.5071  -0.0488   1.0600   1.2810   2.0337

          k = 0.2500 0.3126 0.0000 (  2454 PWs)   bands (ev):

   -20.2592 -13.2115 -12.3573  -8.7458  -1.1316   2.1068   2.5697   2.9802

          k = 0.2500 0.4059 0.0000 (  2461 PWs)   bands (ev):

   -19.3590 -14.4557 -13.0446  -7.7586  -2.4106   3.3042   4.0138   4.1125

          k = 0.2500 0.4992 0.0000 (  2467 PWs)   bands (ev):

   -18.3385 -15.9208 -13.1416  -6.6413  -3.7610   3.6287   4.9240   5.4100

          k = 0.2500 0.5926 0.0000 (  2476 PWs)   bands (ev):

   -17.8648 -16.6653 -12.8265  -6.0385  -4.4781   3.1083   5.3014   5.6634

          k = 0.2500-0.4339 0.0000 (  2474 PWs)   bands (ev):

   -18.8918 -15.7230 -12.1110  -7.0107  -3.4464   2.1050   3.9964   4.7409

          k = 0.2500-0.3406 0.0000 (  2449 PWs)   bands (ev):

   -19.9164 -14.6083 -11.0853  -8.1396  -2.0651   0.7892   2.5504   3.4147

          k = 0.2500-0.2473 0.0000 (  2441 PWs)   bands (ev):

   -20.7250 -13.4976 -10.0544  -9.0719  -0.7116  -0.2827   1.4279   2.3019

          k = 0.2500-0.1540 0.0000 (  2430 PWs)   bands (ev):

   -21.2872 -12.3923  -9.7424  -9.5214  -0.4846   0.4534   0.6553   1.7428

          k = 0.2500-0.0607 0.0000 (  2443 PWs)   bands (ev):

   -21.5921 -11.3789 -10.1257  -9.7616   0.2253   0.4506   1.0369   1.2723

          k = 0.2500 0.0327 0.0000 (  2453 PWs)   bands (ev):

   -21.6364 -10.8806 -10.2940 -10.2124   0.1809   0.9411   1.1832   1.2832

          k = 0.3333 0.1680 0.0000 (  2470 PWs)   bands (ev):

   -20.5604 -13.5120 -10.8495  -9.1276  -0.7337   0.5000   1.7631   2.6487

          k = 0.3333 0.2613 0.0000 (  2464 PWs)   bands (ev):

   -20.0308 -14.2130 -11.5302  -8.5957  -1.4804   1.0379   2.5786   3.4266

          k = 0.3333 0.3546 0.0000 (  2469 PWs)   bands (ev):

   -19.3160 -14.6978 -12.7327  -7.8470  -2.3202   2.4949   3.7148   4.3677

          k = 0.3333 0.4479 0.0000 (  2467 PWs)   bands (ev):

   -18.4881 -15.1466 -13.8247  -6.9279  -3.2850   4.1160   4.7766   4.9865

          k = 0.3333 0.5412 0.0000 (  2475 PWs)   bands (ev):

   -17.6657 -16.1723 -13.8593  -5.8934  -4.4032   3.7605   4.8357   6.3299

          k = 0.3333 0.6345 0.0000 (  2462 PWs)   bands (ev):

   -17.5961 -16.7039 -13.0957  -5.6219  -4.7749   2.3039   5.2443   5.7617

          k = 0.3333-0.3919 0.0000 (  2464 PWs)   bands (ev):

   -18.6695 -15.9716 -11.9762  -6.7859  -3.6295   0.6673   4.2817   5.0026

          k = 0.3333-0.2986 0.0000 (  2462 PWs)   bands (ev):

   -19.5939 -15.1063 -10.8933  -7.8052  -2.4617  -0.5962   2.9995   3.8577

          k = 0.3333-0.2053 0.0000 (  2460 PWs)   bands (ev):

   -20.2885 -14.1252 -10.3419  -8.6063  -1.3383  -0.9285   2.0412   2.9058

          k = 0.3333-0.1120 0.0000 (  2441 PWs)   bands (ev):

   -20.7350 -13.0790 -10.5885  -9.1502  -0.4216  -0.0484   1.4345   2.2814

          k = 0.3333-0.0187 0.0000 (  2460 PWs)   bands (ev):

   -20.9271 -12.2526 -11.1839  -9.4190   0.0148   1.1698   1.6545   2.0403

          k = 0.3333 0.0747 0.0000 (  2463 PWs)   bands (ev):

   -20.8659 -12.6723 -10.9470  -9.4087  -0.1595   1.1447   1.2997   2.1812

          k = 0.4167 0.2100 0.0000 (  2483 PWs)   bands (ev):

   -19.5985 -15.1457 -11.1372  -8.2487  -2.0797   0.3308   3.3642   4.2313

          k = 0.4167 0.3033 0.0000 (  2483 PWs)   bands (ev):

   -19.1460 -15.5727 -11.6880  -7.8395  -2.5436   0.9115   4.2889   5.0730

          k = 0.4167 0.3966 0.0000 (  2481 PWs)   bands (ev):

   -18.6810 -15.5960 -12.7743  -7.3233  -2.9569   2.4540   5.1195   5.3379

          k = 0.4167 0.4899 0.0000 (  2476 PWs)   bands (ev):

   -18.2839 -15.4110 -13.7626  -6.7492  -3.4367   4.1268   4.6950   4.9164

          k = 0.4167 0.5832 0.0000 (  2462 PWs)   bands (ev):

   -17.8942 -16.0859 -13.4580  -6.1706  -4.0802   2.5187   5.0191   5.9335

          k = 0.4167 0.6765 0.0000 (  2459 PWs)   bands (ev):

   -17.4004 -17.2011 -12.3871  -5.8962  -4.5232   0.6643   5.6769   6.1731

          k = 0.4167-0.3499 0.0000 (  2448 PWs)   bands (ev):

   -18.2188 -16.7346 -11.3450  -6.4785  -4.0310  -0.7652   4.9136   5.6445

          k = 0.4167-0.2566 0.0000 (  2458 PWs)   bands (ev):

   -19.0346 -15.8857 -10.8447  -7.2628  -3.1402  -1.2431   3.8010   4.6336

          k = 0.4167-0.1633 0.0000 (  2462 PWs)   bands (ev):

   -19.6181 -14.8825 -11.1604  -7.9110  -2.2124  -0.4790   3.0105   3.8211

          k = 0.4167-0.0700 0.0000 (  2449 PWs)   bands (ev):

   -19.9584 -13.8618 -11.9404  -8.3425  -1.5153   1.2163   2.5731   3.3547

          k = 0.4167 0.0233 0.0000 (  2472 PWs)   bands (ev):

   -20.0562 -13.6401 -12.0822  -8.5357  -1.3180   2.4606   2.5735   3.4596

          k = 0.4167 0.1166 0.0000 (  2475 PWs)   bands (ev):

   -19.9251 -14.4211 -11.3819  -8.4956  -1.6005   0.9800   2.7438   3.6015

          k =-0.5000-0.2520 0.0000 (  2494 PWs)   bands (ev):

   -19.0395 -15.9330 -11.2376  -7.8214  -2.6765   0.2663   5.0802   5.4507

          k =-0.5000-0.1586 0.0000 (  2495 PWs)   bands (ev):

   -19.0786 -15.6741 -11.6373  -7.7889  -2.6036   0.8851   4.5052   5.2682

          k =-0.5000-0.0653 0.0000 (  2481 PWs)   bands (ev):

   -19.1179 -15.0366 -12.5611  -7.6719  -2.4989   2.4878   4.0608   4.9662

          k =-0.5000 0.0280 0.0000 (  2474 PWs)   bands (ev):

   -19.0362 -14.7002 -13.1222  -7.4317  -2.6377   2.8652   4.0696   4.6009

          k =-0.5000 0.1213 0.0000 (  2464 PWs)   bands (ev):

   -18.7632 -15.5662 -12.3577  -7.0493  -3.1704   0.8492   4.3219   4.8324

          k =-0.5000 0.2146 0.0000 (  2448 PWs)   bands (ev):

   -18.2720 -16.6233 -11.4242  -6.5795  -3.8799  -0.7291   4.9378   5.5599

          k =-0.5000-0.8118 0.0000 (  2430 PWs)   bands (ev):

   -17.6432 -17.4559 -11.0133  -6.3060  -4.2612  -1.3535   5.8106   5.9435

     the Fermi energy is    -5.3417 ev

!    total energy              =     -22.76095744 Ry
     Harris-Foulkes estimate   =     -22.76095745 Ry
     estimated scf accuracy    <          4.6E-09 Ry

     The total energy is the sum of the following terms:

     one-electron contribution =      39.24302241 Ry
     hartree contribution      =     -19.23576153 Ry
     xc contribution           =      -6.59175113 Ry
     ewald contribution        =     -36.17669235 Ry
     smearing contrib. (-TS)   =       0.00022516 Ry

     convergence has been achieved in   9 iterations

     Forces acting on atoms (cartesian axes, Ry/au):

     atom    1 type  1   force =    -0.07441360   -0.03985538    0.00000000
     atom    2 type  1   force =     0.07441360    0.03985538    0.00000000

     Total force =     0.119380     Total SCF correction =     0.000027


     Computing stress (Cartesian axis) and pressure

          total   stress  (Ry/bohr**3)                   (kbar)     P= -102.58
  -0.00087330  -0.00016769   0.00000000       -128.47    -24.67      0.00
  -0.00016769  -0.00121866   0.00000000        -24.67   -179.27      0.00
   0.00000000   0.00000000   0.00000000          0.00      0.00      0.00


     BFGS Geometry Optimization

     number of scf cycles    =   1
     number of bfgs steps    =   0

     enthalpy new            =     -22.7609574373 Ry

     new trust radius        =       0.1598045840 bohr
     new conv_thr            =       0.0000000100 Ry

     new unit-cell volume =    640.16521 a.u.^3 (    94.86270 Ang^3 )
     density =      0.42049 g/cm^3

CELL_PARAMETERS (angstrom)
   2.588118910  -0.011092412   0.000000000
  -1.174559355   2.295855553   0.000000000
   0.000000000   0.000000000  16.000000000

ATOMIC_POSITIONS (angstrom)
C       -0.038429843  -0.020282915   0.000000000
C        0.032025636   1.501344559   0.000000000



     Writing output data file graphene_bc1_vc-relax.save
     Check: negative starting charge=   -0.000142
     NEW-OLD atomic charge density approx. for the potential
     Check: negative starting charge=   -0.000225

     negative rho (up, down):  7.086E-04 0.000E+00
     extrapolated charge    7.56429, renormalised to    8.00000

     total cpu time spent up to now is       15.9 secs

     Self-consistent Calculation

     iteration #  1     ecut=    36.00 Ry     beta=0.70
     Davidson diagonalization with overlap
     c_bands:  4 eigenvalues not converged
     c_bands:  2 eigenvalues not converged
     c_bands:  3 eigenvalues not converged
     c_bands:  2 eigenvalues not converged
     c_bands:  2 eigenvalues not converged
     c_bands:  2 eigenvalues not converged
     c_bands:  2 eigenvalues not converged
     c_bands:  3 eigenvalues not converged
     c_bands:  4 eigenvalues not converged
     c_bands:  2 eigenvalues not converged
     c_bands:  2 eigenvalues not converged
     c_bands:  2 eigenvalues not converged
     c_bands:  2 eigenvalues not converged
     c_bands:  2 eigenvalues not converged
     c_bands:  2 eigenvalues not converged
     c_bands:  2 eigenvalues not converged
     c_bands:  3 eigenvalues not converged
     c_bands:  4 eigenvalues not converged
     c_bands:  2 eigenvalues not converged
     c_bands:  3 eigenvalues not converged
     c_bands:  2 eigenvalues not converged
     c_bands:  2 eigenvalues not converged
     c_bands:  3 eigenvalues not converged
     c_bands:  2 eigenvalues not converged
     c_bands:  2 eigenvalues not converged
     c_bands:  3 eigenvalues not converged
     c_bands:  3 eigenvalues not converged
     c_bands:  3 eigenvalues not converged
     c_bands:  2 eigenvalues not converged
     c_bands:  4 eigenvalues not converged
     c_bands:  4 eigenvalues not converged
     c_bands:  2 eigenvalues not converged
     c_bands:  2 eigenvalues not converged
     c_bands:  2 eigenvalues not converged
     c_bands:  2 eigenvalues not converged
     c_bands:  2 eigenvalues not converged
     c_bands:  1 eigenvalues not converged
     c_bands:  3 eigenvalues not converged
     c_bands:  3 eigenvalues not converged
     c_bands:  2 eigenvalues not converged
     c_bands:  1 eigenvalues not converged
     c_bands:  3 eigenvalues not converged
     c_bands:  3 eigenvalues not converged
     c_bands:  2 eigenvalues not converged
     c_bands:  2 eigenvalues not converged
     c_bands:  2 eigenvalues not converged
     c_bands:  1 eigenvalues not converged
     c_bands:  1 eigenvalues not converged
     c_bands:  2 eigenvalues not converged
     c_bands:  2 eigenvalues not converged
     c_bands:  2 eigenvalues not converged
     c_bands:  1 eigenvalues not converged
     c_bands:  2 eigenvalues not converged
     c_bands:  3 eigenvalues not converged
     c_bands:  2 eigenvalues not converged
     c_bands:  2 eigenvalues not converged
     c_bands:  2 eigenvalues not converged
     c_bands:  1 eigenvalues not converged
     c_bands:  1 eigenvalues not converged
     c_bands:  1 eigenvalues not converged
     c_bands:  2 eigenvalues not converged
     c_bands:  2 eigenvalues not converged
     c_bands:  2 eigenvalues not converged
     c_bands:  2 eigenvalues not converged
     c_bands:  1 eigenvalues not converged
     c_bands:  2 eigenvalues not converged
     c_bands:  2 eigenvalues not converged
     c_bands:  2 eigenvalues not converged
     c_bands:  1 eigenvalues not converged
     c_bands:  1 eigenvalues not converged
     c_bands:  2 eigenvalues not converged
     c_bands:  2 eigenvalues not converged
     c_bands:  1 eigenvalues not converged
     ethr =  1.00E-06,  avg # of iterations = 20.0

     negative rho (up, down):  7.230E-04 0.000E+00

     total cpu time spent up to now is       20.4 secs

     total energy              =     -22.74100160 Ry
     Harris-Foulkes estimate   =     -20.23779752 Ry
     estimated scf accuracy    <       0.03492027 Ry

     iteration #  2     ecut=    36.00 Ry     beta=0.70
     Davidson diagonalization with overlap
     c_bands:  1 eigenvalues not converged
     c_bands:  3 eigenvalues not converged
     c_bands:  1 eigenvalues not converged
     c_bands:  1 eigenvalues not converged
     c_bands:  1 eigenvalues not converged
     c_bands:  1 eigenvalues not converged
     c_bands:  1 eigenvalues not converged
     c_bands:  1 eigenvalues not converged
     c_bands:  1 eigenvalues not converged
     c_bands:  1 eigenvalues not converged
     c_bands:  1 eigenvalues not converged
     c_bands:  1 eigenvalues not converged
     c_bands:  1 eigenvalues not converged
     c_bands:  1 eigenvalues not converged
     c_bands:  1 eigenvalues not converged
     c_bands:  1 eigenvalues not converged
     c_bands:  3 eigenvalues not converged
     c_bands:  1 eigenvalues not converged
     c_bands:  2 eigenvalues not converged
     c_bands:  1 eigenvalues not converged
     c_bands:  1 eigenvalues not converged
     c_bands:  1 eigenvalues not converged
     c_bands:  1 eigenvalues not converged
     c_bands:  1 eigenvalues not converged
     c_bands:  1 eigenvalues not converged
     c_bands:  1 eigenvalues not converged
     c_bands:  1 eigenvalues not converged
     c_bands:  1 eigenvalues not converged
     c_bands:  1 eigenvalues not converged
     c_bands:  1 eigenvalues not converged
     c_bands:  2 eigenvalues not converged
     c_bands:  1 eigenvalues not converged
     c_bands:  1 eigenvalues not converged
     c_bands:  1 eigenvalues not converged
     c_bands:  1 eigenvalues not converged
     c_bands:  1 eigenvalues not converged
     c_bands:  1 eigenvalues not converged
     c_bands:  1 eigenvalues not converged
     c_bands:  1 eigenvalues not converged
     c_bands:  1 eigenvalues not converged
     c_bands:  1 eigenvalues not converged
     c_bands:  1 eigenvalues not converged
     c_bands:  1 eigenvalues not converged
     c_bands:  1 eigenvalues not converged
     c_bands:  1 eigenvalues not converged
     c_bands:  1 eigenvalues not converged
     c_bands:  1 eigenvalues not converged
     c_bands:  1 eigenvalues not converged
     c_bands:  1 eigenvalues not converged
     c_bands:  1 eigenvalues not converged
     c_bands:  1 eigenvalues not converged
     c_bands:  1 eigenvalues not converged
     c_bands:  1 eigenvalues not converged
     c_bands:  2 eigenvalues not converged
     c_bands:  1 eigenvalues not converged
     ethr =  4.37E-04,  avg # of iterations = 18.4

     negative rho (up, down):  5.942E-04 0.000E+00

     total cpu time spent up to now is       23.0 secs

     total energy              =     -22.80746120 Ry
     Harris-Foulkes estimate   =     -22.82026069 Ry
     estimated scf accuracy    <       0.02976091 Ry

     iteration #  3     ecut=    36.00 Ry     beta=0.70
     Davidson diagonalization with overlap
     c_bands:  1 eigenvalues not converged
     ethr =  3.72E-04,  avg # of iterations =  7.1

     negative rho (up, down):  4.991E-04 0.000E+00

     total cpu time spent up to now is       24.1 secs

     total energy              =     -22.80294835 Ry
     Harris-Foulkes estimate   =     -22.80857016 Ry
     estimated scf accuracy    <       0.00902257 Ry

     iteration #  4     ecut=    36.00 Ry     beta=0.70
     Davidson diagonalization with overlap
     c_bands:  1 eigenvalues not converged
     ethr =  1.13E-04,  avg # of iterations =  4.8

     negative rho (up, down):  4.818E-04 0.000E+00

     total cpu time spent up to now is       25.2 secs

     total energy              =     -22.80556883 Ry
     Harris-Foulkes estimate   =     -22.80557111 Ry
     estimated scf accuracy    <       0.00002793 Ry

     iteration #  5     ecut=    36.00 Ry     beta=0.70
     Davidson diagonalization with overlap
     c_bands:  1 eigenvalues not converged
     c_bands:  1 eigenvalues not converged
     c_bands:  3 eigenvalues not converged
     c_bands:  2 eigenvalues not converged
     c_bands:  1 eigenvalues not converged
     c_bands:  3 eigenvalues not converged
     c_bands:  1 eigenvalues not converged
     c_bands:  1 eigenvalues not converged
     c_bands:  1 eigenvalues not converged
     c_bands:  3 eigenvalues not converged
     c_bands:  2 eigenvalues not converged
     c_bands:  2 eigenvalues not converged
     c_bands:  1 eigenvalues not converged
     c_bands:  1 eigenvalues not converged
     c_bands:  2 eigenvalues not converged
     c_bands:  2 eigenvalues not converged
     c_bands:  2 eigenvalues not converged
     c_bands:  3 eigenvalues not converged
     c_bands:  2 eigenvalues not converged
     c_bands:  2 eigenvalues not converged
     c_bands:  1 eigenvalues not converged
     c_bands:  2 eigenvalues not converged
     c_bands:  2 eigenvalues not converged
     c_bands:  1 eigenvalues not converged
     c_bands:  2 eigenvalues not converged
     c_bands:  1 eigenvalues not converged
     c_bands:  1 eigenvalues not converged
     c_bands:  1 eigenvalues not converged
     c_bands:  3 eigenvalues not converged
     c_bands:  1 eigenvalues not converged
     c_bands:  1 eigenvalues not converged
     c_bands:  1 eigenvalues not converged
     c_bands:  1 eigenvalues not converged
     ethr =  3.49E-07,  avg # of iterations = 16.7

     negative rho (up, down):  4.670E-04 0.000E+00

     total cpu time spent up to now is       28.4 secs

     total energy              =     -22.80582683 Ry
     Harris-Foulkes estimate   =     -22.80582779 Ry
     estimated scf accuracy    <       0.00000447 Ry

     iteration #  6     ecut=    36.00 Ry     beta=0.70
     Davidson diagonalization with overlap
     c_bands:  1 eigenvalues not converged
     c_bands:  1 eigenvalues not converged
     c_bands:  1 eigenvalues not converged
     c_bands:  1 eigenvalues not converged
     c_bands:  1 eigenvalues not converged
     c_bands:  1 eigenvalues not converged
     c_bands:  1 eigenvalues not converged
     c_bands:  1 eigenvalues not converged
     c_bands:  2 eigenvalues not converged
     c_bands:  1 eigenvalues not converged
     c_bands:  1 eigenvalues not converged
     c_bands:  1 eigenvalues not converged
     ethr =  5.59E-08,  avg # of iterations =  8.3

     negative rho (up, down):  4.596E-04 0.000E+00

     total cpu time spent up to now is       29.7 secs

     total energy              =     -22.80582702 Ry
     Harris-Foulkes estimate   =     -22.80582786 Ry
     estimated scf accuracy    <       0.00000173 Ry

     iteration #  7     ecut=    36.00 Ry     beta=0.70
     Davidson diagonalization with overlap
     c_bands:  1 eigenvalues not converged
     c_bands:  2 eigenvalues not converged
     c_bands:  1 eigenvalues not converged
     ethr =  2.16E-08,  avg # of iterations =  4.5

     negative rho (up, down):  4.594E-04 0.000E+00

     total cpu time spent up to now is       30.8 secs

     total energy              =     -22.80582775 Ry
     Harris-Foulkes estimate   =     -22.80582786 Ry
     estimated scf accuracy    <       0.00000049 Ry

     iteration #  8     ecut=    36.00 Ry     beta=0.70
     Davidson diagonalization with overlap
     c_bands:  1 eigenvalues not converged
     ethr =  6.09E-09,  avg # of iterations =  2.3

     negative rho (up, down):  4.583E-04 0.000E+00

     total cpu time spent up to now is       31.6 secs

     total energy              =     -22.80582757 Ry
     Harris-Foulkes estimate   =     -22.80582779 Ry
     estimated scf accuracy    <       0.00000031 Ry

     iteration #  9     ecut=    36.00 Ry     beta=0.70
     Davidson diagonalization with overlap
     ethr =  3.82E-09,  avg # of iterations =  3.3

     negative rho (up, down):  4.586E-04 0.000E+00

     total cpu time spent up to now is       32.4 secs

     total energy              =     -22.80582766 Ry
     Harris-Foulkes estimate   =     -22.80582773 Ry
     estimated scf accuracy    <       0.00000014 Ry

     iteration # 10     ecut=    36.00 Ry     beta=0.70
     Davidson diagonalization with overlap
     ethr =  1.79E-09,  avg # of iterations =  1.2

     negative rho (up, down):  4.586E-04 0.000E+00

     total cpu time spent up to now is       33.1 secs

     total energy              =     -22.80582766 Ry
     Harris-Foulkes estimate   =     -22.80582767 Ry
     estimated scf accuracy    <       0.00000002 Ry

     iteration # 11     ecut=    36.00 Ry     beta=0.70
     Davidson diagonalization with overlap
     ethr =  2.51E-10,  avg # of iterations =  3.1

     negative rho (up, down):  4.586E-04 0.000E+00

     total cpu time spent up to now is       33.9 secs

     End of self-consistent calculation

          k = 0.0000 0.0000 0.0000 (  2441 PWs)   bands (ev):

   -22.9768 -11.5290  -8.1812  -7.9548  -1.1601  -0.2662  -0.0627   1.4855

          k = 0.0004 0.0962 0.0000 (  2455 PWs)   bands (ev):

   -22.8339 -11.3630  -8.7914  -8.2282  -0.9673  -0.0718   0.1345   1.8026

          k = 0.0008 0.1925 0.0000 (  2456 PWs)   bands (ev):

   -22.4072 -10.8701 -10.3112  -8.8523  -0.3890   0.5092   0.7257   2.0119

          k = 0.0012 0.2887 0.0000 (  2457 PWs)   bands (ev):

   -21.7033 -12.2095 -10.0691  -9.5542   0.5724   0.9985   1.5269   1.7005

          k = 0.0017 0.3850 0.0000 (  2470 PWs)   bands (ev):

   -20.7381 -14.1628 -10.1461  -9.0081  -0.8551   1.5299   1.9337   3.0946

          k = 0.0021 0.4812 0.0000 (  2483 PWs)   bands (ev):

   -19.5632 -15.9733 -10.5307  -7.8384  -2.5954   1.3196   3.6287   4.8660

          k =-0.0025-0.5775 0.0000 (  2494 PWs)   bands (ev):

   -18.6591 -17.0955 -10.6631  -7.1693  -3.4676   1.2400   5.5902   5.7190

          k = 0.0854 0.0437 0.0000 (  2455 PWs)   bands (ev):

   -22.8349 -11.3654  -8.6141  -8.4171  -0.9690  -0.0733   0.1328   1.7846

          k = 0.0858 0.1399 0.0000 (  2459 PWs)   bands (ev):

   -22.5628 -11.0522  -9.5445  -9.0224  -0.6011   0.2980   0.5098   2.1307

          k = 0.0862 0.2362 0.0000 (  2459 PWs)   bands (ev):

   -22.0101 -11.1455 -10.4197  -9.8007   0.1518   1.0513   1.2809   1.7804

          k = 0.0866 0.3324 0.0000 (  2455 PWs)   bands (ev):

   -21.1873 -13.0374 -10.4696  -9.4957   0.0484   1.2820   2.2019   2.3672

          k = 0.0870 0.4287 0.0000 (  2464 PWs)   bands (ev):

   -20.1204 -14.9262 -10.9349  -8.3559  -1.7514   2.1088   2.8169   3.7064

          k = 0.0874 0.5249 0.0000 (  2483 PWs)   bands (ev):

   -18.9285 -16.5696 -11.1495  -7.2764  -3.2097   1.9350   4.6485   5.5155

          k = 0.0829-0.5338 0.0000 (  2495 PWs)   bands (ev):

   -18.8241 -16.7082 -11.0935  -7.2012  -3.2993   1.8974   4.8421   5.7008

          k = 0.0833-0.4376 0.0000 (  2475 PWs)   bands (ev):

   -20.0077 -15.1421 -10.7688  -8.2351  -1.9069   2.0183   2.9545   4.1607

          k = 0.0837-0.3413 0.0000 (  2463 PWs)   bands (ev):

   -21.0983 -13.2986 -10.2025  -9.3880  -0.0940   1.4091   2.2744   2.5702

          k = 0.0841-0.2451 0.0000 (  2453 PWs)   bands (ev):

   -21.9467 -11.4355 -10.3387  -9.4679   0.2396   1.1233   1.3676   1.7095

          k = 0.0846-0.1488 0.0000 (  2452 PWs)   bands (ev):

   -22.5249 -11.0026  -9.7839  -8.7395  -0.5484   0.3487   0.5616   2.1366

          k = 0.0850-0.0526 0.0000 (  2430 PWs)   bands (ev):

   -22.8223 -11.3487  -8.6708  -8.3453  -0.9515  -0.0565   0.1501   1.8178

          k = 0.1708 0.0874 0.0000 (  2456 PWs)   bands (ev):

   -22.4115 -10.8802 -10.1921  -8.9929  -0.3951   0.5017   0.7198   2.0611

          k = 0.1712 0.1836 0.0000 (  2459 PWs)   bands (ev):

   -22.0135 -11.0851 -10.4278  -9.8679   0.1477   1.0425   1.2768   1.7950

          k = 0.1716 0.2799 0.0000 (  2449 PWs)   bands (ev):

   -21.3416 -12.2074 -11.0961  -9.6691   0.4476   1.0729   2.2273   3.6200

          k = 0.1720 0.3761 0.0000 (  2454 PWs)   bands (ev):

   -20.4129 -13.7907 -11.9033  -8.6446  -1.1127   2.3663   3.5579   3.9119

          k = 0.1724 0.4724 0.0000 (  2469 PWs)   bands (ev):

   -19.2747 -15.5000 -12.2845  -7.4702  -2.6806   3.6109   4.0942   4.7886

          k = 0.1728 0.5686 0.0000 (  2481 PWs)   bands (ev):

   -18.2811 -16.7496 -12.3412  -6.6554  -3.6533   3.5295   5.8595   5.9743

          k = 0.1683-0.4901 0.0000 (  2481 PWs)   bands (ev):

   -19.0321 -15.8893 -12.0890  -7.2355  -2.9448   3.5522   4.3744   5.1225

          k = 0.1687-0.3939 0.0000 (  2472 PWs)   bands (ev):

   -20.2075 -14.2773 -11.5322  -8.4045  -1.3765   2.6501   3.6976   3.8475

          k = 0.1691-0.2976 0.0000 (  2460 PWs)   bands (ev):

   -21.1879 -12.6453 -10.7004  -9.4755   0.2857   1.2802   2.4335   2.7986

          k = 0.1695-0.2014 0.0000 (  2443 PWs)   bands (ev):

   -21.9116 -11.1923 -10.2945  -9.7681   0.2860   1.4126   1.5598   1.7557

          k = 0.1699-0.1051 0.0000 (  2438 PWs)   bands (ev):

   -22.3608 -10.8127 -10.0310  -9.1641  -0.3265   0.5722   0.7879   1.2879

          k = 0.1703-0.0089 0.0000 (  2452 PWs)   bands (ev):

   -22.5280 -11.0099  -9.6032  -8.9430  -0.5532   0.3437   0.5571   2.1359

          k = 0.2561 0.1310 0.0000 (  2457 PWs)   bands (ev):

   -21.7137 -12.1275 -10.0937  -9.6529   0.5594   1.0122   1.5369   1.6918

          k = 0.2566 0.2273 0.0000 (  2455 PWs)   bands (ev):

   -21.1975 -12.9841 -10.5256  -9.5203   0.0747   1.2722   2.1981   2.4006

          k = 0.2570 0.3235 0.0000 (  2454 PWs)   bands (ev):

   -20.4207 -13.7546 -11.9357  -8.6631  -1.0913   2.3613   3.5563   4.0015

          k = 0.2574 0.4198 0.0000 (  2461 PWs)   bands (ev):

   -19.4133 -14.6307 -13.2035  -7.5748  -2.3836   3.7857   4.5025   5.0603

          k = 0.2578 0.5160 0.0000 (  2467 PWs)   bands (ev):

   -18.2716 -15.9098 -13.6779  -6.4152  -3.6526   5.1536   5.2716   5.8711

          k = 0.2582 0.6123 0.0000 (  2476 PWs)   bands (ev):

   -17.9276 -16.3720 -13.5466  -6.1173  -3.9475   5.1213   5.4295   6.0630

          k = 0.2537-0.4465 0.0000 (  2474 PWs)   bands (ev):

   -19.0560 -15.2211 -12.9335  -7.1740  -2.7485   4.0336   4.2797   4.9055

          k = 0.2541-0.3502 0.0000 (  2449 PWs)   bands (ev):

   -20.1438 -14.0354 -11.8820  -8.3194  -1.3155   2.2922   2.7253   3.9239

          k = 0.2545-0.2540 0.0000 (  2441 PWs)   bands (ev):

   -21.0025 -12.9344 -10.7321  -9.2651   0.0391   0.9705   1.5316   2.6914

          k = 0.2549-0.1577 0.0000 (  2430 PWs)   bands (ev):

   -21.5978 -11.8637 -10.0315  -9.9378   0.6422   0.7245   1.1523   1.8513

          k = 0.2553-0.0615 0.0000 (  2443 PWs)   bands (ev):

   -21.9171 -11.0534 -10.3068  -9.9260   0.2783   1.4046   1.5835   1.7866

          k = 0.2557 0.0348 0.0000 (  2453 PWs)   bands (ev):

   -21.9555 -11.2981 -10.3591  -9.6315   0.2278   1.1050   1.3558   1.7552

          k = 0.3415 0.1747 0.0000 (  2470 PWs)   bands (ev):

   -20.7600 -14.0944 -10.2159  -9.0584  -0.7932   1.6262   1.9200   3.0728

          k = 0.3419 0.2710 0.0000 (  2464 PWs)   bands (ev):

   -20.1457 -14.8677 -10.9812  -8.4126  -1.6859   2.2160   2.7985   3.9896

          k = 0.3423 0.3672 0.0000 (  2469 PWs)   bands (ev):

   -19.3050 -15.4355 -12.3255  -7.5309  -2.6095   3.7338   4.0843   4.7786

          k = 0.3428 0.4635 0.0000 (  2467 PWs)   bands (ev):

   -18.3082 -15.8313 -13.7232  -6.4743  -3.5841   5.2459   5.2608   5.9270

          k = 0.3432 0.5597 0.0000 (  2475 PWs)   bands (ev):

   -17.3353 -16.4418 -14.3764  -5.3349  -4.6470   5.1117   5.4042   7.1091

          k = 0.3436 0.6560 0.0000 (  2462 PWs)   bands (ev):

   -17.6992 -16.3847 -13.7875  -5.8434  -4.1180   3.8486   5.3676   6.1939

          k = 0.3390-0.4028 0.0000 (  2464 PWs)   bands (ev):

   -18.8410 -15.6528 -12.5911  -6.9792  -2.9510   1.9647   4.5510   5.1861

          k = 0.3395-0.3065 0.0000 (  2462 PWs)   bands (ev):

   -19.8134 -14.8160 -11.4019  -7.9817  -1.8047   0.5375   3.1783   4.3907

          k = 0.3399-0.2103 0.0000 (  2460 PWs)   bands (ev):

   -20.5447 -13.8448 -10.7425  -8.7657  -0.7365   0.1230   2.1624   3.3396

          k = 0.3403-0.1140 0.0000 (  2441 PWs)   bands (ev):

   -21.0108 -12.8552 -10.8210  -9.2822   0.0783   0.9908   1.5238   2.6819

          k = 0.3407-0.0178 0.0000 (  2460 PWs)   bands (ev):

   -21.2021 -12.4882 -10.8731  -9.5063   0.3488   1.2630   2.4161   2.8402

          k = 0.3411 0.0785 0.0000 (  2463 PWs)   bands (ev):

   -21.1168 -13.1979 -10.3157  -9.4298  -0.0304   1.3876   2.3111   2.3793

          k = 0.4269 0.2184 0.0000 (  2483 PWs)   bands (ev):

   -19.6135 -15.8892 -10.5840  -7.9359  -2.4832   1.4361   3.5962   4.8304

          k = 0.4273 0.3147 0.0000 (  2483 PWs)   bands (ev):

   -19.0034 -16.4634 -11.1950  -7.3946  -3.0767   2.0577   4.6154   5.4909

          k = 0.4277 0.4109 0.0000 (  2481 PWs)   bands (ev):

   -18.3954 -16.5906 -12.3965  -6.7918  -3.4967   3.6843   5.7967   5.9439

          k = 0.4281 0.5072 0.0000 (  2476 PWs)   bands (ev):

   -18.0360 -16.1861 -13.6322  -6.2522  -3.7901   5.3649   5.3852   5.9583

          k = 0.4286 0.6034 0.0000 (  2462 PWs)   bands (ev):

   -17.7730 -16.2603 -13.8428  -5.9250  -4.0227   3.8717   5.3345   6.1586

          k = 0.4290 0.6997 0.0000 (  2459 PWs)   bands (ev):

   -17.5584 -17.0546 -12.8313  -6.0879  -3.9400   1.8586   5.9254   6.6183

          k = 0.4244-0.3591 0.0000 (  2448 PWs)   bands (ev):

   -18.3902 -16.6197 -11.7451  -6.7141  -3.3844   0.3137   5.1963   5.8997

          k = 0.4248-0.2628 0.0000 (  2458 PWs)   bands (ev):

   -19.2244 -15.7774 -11.1971  -7.4239  -2.5830  -0.2158   4.0037   4.8718

          k = 0.4253-0.1666 0.0000 (  2462 PWs)   bands (ev):

   -19.8254 -14.7717 -11.4449  -8.0027  -1.7671   0.5520   3.1663   4.3793

          k = 0.4257-0.0703 0.0000 (  2449 PWs)   bands (ev):

   -20.1651 -13.9018 -12.0143  -8.3606  -1.2405   2.3251   2.7075   3.5567

          k = 0.4261 0.0259 0.0000 (  2472 PWs)   bands (ev):

   -20.2367 -14.1465 -11.6580  -8.4645  -1.2817   2.6207   3.8138   3.9132

          k = 0.4265 0.1222 0.0000 (  2475 PWs)   bands (ev):

   -20.0456 -15.0511 -10.8458  -8.3134  -1.8054   2.1411   2.9237   4.1281

          k =-0.5123-0.2621 0.0000 (  2494 PWs)   bands (ev):

   -18.7813 -16.9434 -10.7111  -7.3157  -3.3056   1.3606   5.5200   5.7013

          k =-0.5119-0.1658 0.0000 (  2495 PWs)   bands (ev):

   -18.9177 -16.5770 -11.1487  -7.3359  -3.1446   2.0250   4.7951   5.6549

          k =-0.5115-0.0696 0.0000 (  2481 PWs)   bands (ev):

   -19.0958 -15.7598 -12.1716  -7.3439  -2.8068   3.7216   4.3298   5.0714

          k =-0.5110 0.0267 0.0000 (  2474 PWs)   bands (ev):

   -19.1016 -15.0626 -13.0609  -7.2521  -2.6376   4.0945   4.2787   5.5076

          k =-0.5106 0.1229 0.0000 (  2464 PWs)   bands (ev):

   -18.8723 -15.5715 -12.6511  -7.0259  -2.8832   1.9840   4.5255   5.1414

          k =-0.5102 0.2192 0.0000 (  2448 PWs)   bands (ev):

   -18.4066 -16.5939 -11.7579  -6.7301  -3.3624   0.3188   5.1815   5.8769

          k =-0.5148-0.8396 0.0000 (  2430 PWs)   bands (ev):

   -17.9281 -17.2857 -11.3525  -6.5740  -3.6142  -0.3313   6.1888   6.1921

     the Fermi energy is    -4.9918 ev

!    total energy              =     -22.80582767 Ry
     Harris-Foulkes estimate   =     -22.80582767 Ry
     estimated scf accuracy    <          5.4E-09 Ry

     The total energy is the sum of the following terms:

     one-electron contribution =      41.39126218 Ry
     hartree contribution      =     -20.27701859 Ry
     xc contribution           =      -6.68217759 Ry
     ewald contribution        =     -37.23798049 Ry
     smearing contrib. (-TS)   =       0.00008683 Ry

     convergence has been achieved in  11 iterations

     Forces acting on atoms (cartesian axes, Ry/au):

     atom    1 type  1   force =    -0.00793369   -0.00652808    0.00000000
     atom    2 type  1   force =     0.00793369    0.00652808    0.00000000

     Total force =     0.014530     Total SCF correction =     0.000009


     Computing stress (Cartesian axis) and pressure

          total   stress  (Ry/bohr**3)                   (kbar)     P=  -88.91
  -0.00081257  -0.00021560   0.00000000       -119.53    -31.72      0.00
  -0.00021560  -0.00100059   0.00000000        -31.72   -147.19      0.00
   0.00000000   0.00000000   0.00000000          0.00      0.00      0.00


     number of scf cycles    =   2
     number of bfgs steps    =   1

     enthalpy old            =     -22.7609574373 Ry
     enthalpy new            =     -22.8058276671 Ry

     CASE: enthalpy_new < enthalpy_old

     new trust radius        =       0.1767438608 bohr
     new conv_thr            =       0.0000000008 Ry

     new unit-cell volume =    601.81584 a.u.^3 (    89.17991 Ang^3 )
     density =      0.44728 g/cm^3

CELL_PARAMETERS (angstrom)
   2.519606201  -0.028220928   0.000000000
  -1.159086536   2.225131289   0.000000000
   0.000000000   0.000000000  16.000000000

ATOMIC_POSITIONS (angstrom)
C       -0.052505853  -0.028270704   0.000000000
C        0.036172642   1.458625378   0.000000000



     Writing output data file graphene_bc1_vc-relax.save
     Check: negative starting charge=   -0.000225
     NEW-OLD atomic charge density approx. for the potential
     Check: negative starting charge=   -0.000315

     negative rho (up, down):  5.538E-04 0.000E+00
     extrapolated charge    7.49022, renormalised to    8.00000

     total cpu time spent up to now is       34.8 secs

     Self-consistent Calculation

     iteration #  1     ecut=    36.00 Ry     beta=0.70
     Davidson diagonalization with overlap
     c_bands:  3 eigenvalues not converged
     c_bands:  4 eigenvalues not converged
     c_bands:  3 eigenvalues not converged
     c_bands:  2 eigenvalues not converged
     c_bands:  2 eigenvalues not converged
     c_bands:  2 eigenvalues not converged
     c_bands:  1 eigenvalues not converged
     c_bands:  3 eigenvalues not converged
     c_bands:  3 eigenvalues not converged
     c_bands:  3 eigenvalues not converged
     c_bands:  2 eigenvalues not converged
     c_bands:  2 eigenvalues not converged
     c_bands:  2 eigenvalues not converged
     c_bands:  2 eigenvalues not converged
     c_bands:  2 eigenvalues not converged
     c_bands:  2 eigenvalues not converged
     c_bands:  3 eigenvalues not converged
     c_bands:  3 eigenvalues not converged
     c_bands:  3 eigenvalues not converged
     c_bands:  2 eigenvalues not converged
     c_bands:  2 eigenvalues not converged
     c_bands:  2 eigenvalues not converged
     c_bands:  2 eigenvalues not converged
     c_bands:  2 eigenvalues not converged
     c_bands:  1 eigenvalues not converged
     c_bands:  2 eigenvalues not converged
     c_bands:  3 eigenvalues not converged
     c_bands:  3 eigenvalues not converged
     c_bands:  2 eigenvalues not converged
     c_bands:  3 eigenvalues not converged
     c_bands:  4 eigenvalues not converged
     c_bands:  2 eigenvalues not converged
     c_bands:  2 eigenvalues not converged
     c_bands:  2 eigenvalues not converged
     c_bands:  3 eigenvalues not converged
     c_bands:  1 eigenvalues not converged
     c_bands:  2 eigenvalues not converged
     c_bands:  2 eigenvalues not converged
     c_bands:  2 eigenvalues not converged
     c_bands:  2 eigenvalues not converged
     c_bands:  2 eigenvalues not converged
     c_bands:  2 eigenvalues not converged
     c_bands:  3 eigenvalues not converged
     c_bands:  2 eigenvalues not converged
     c_bands:  2 eigenvalues not converged
     c_bands:  2 eigenvalues not converged
     c_bands:  1 eigenvalues not converged
     c_bands:  1 eigenvalues not converged
     c_bands:  1 eigenvalues not converged
     c_bands:  2 eigenvalues not converged
     c_bands:  2 eigenvalues not converged
     c_bands:  2 eigenvalues not converged
     c_bands:  2 eigenvalues not converged
     c_bands:  2 eigenvalues not converged
     c_bands:  2 eigenvalues not converged
     c_bands:  2 eigenvalues not converged
     c_bands:  2 eigenvalues not converged
     c_bands:  1 eigenvalues not converged
     c_bands:  1 eigenvalues not converged
     c_bands:  1 eigenvalues not converged
     c_bands:  1 eigenvalues not converged
     c_bands:  2 eigenvalues not converged
     c_bands:  2 eigenvalues not converged
     c_bands:  2 eigenvalues not converged
     c_bands:  2 eigenvalues not converged
     c_bands:  2 eigenvalues not converged
     c_bands:  2 eigenvalues not converged
     c_bands:  2 eigenvalues not converged
     c_bands:  2 eigenvalues not converged
     c_bands:  1 eigenvalues not converged
     c_bands:  2 eigenvalues not converged
     c_bands:  1 eigenvalues not converged
     c_bands:  2 eigenvalues not converged
     c_bands:  1 eigenvalues not converged
     ethr =  1.00E-06,  avg # of iterations = 20.0

     negative rho (up, down):  5.502E-04 0.000E+00

     total cpu time spent up to now is       39.1 secs

     total energy              =     -22.74687385 Ry
     Harris-Foulkes estimate   =     -19.69994803 Ry
     estimated scf accuracy    <       0.04851752 Ry

     iteration #  2     ecut=    36.00 Ry     beta=0.70
     Davidson diagonalization with overlap
     c_bands:  3 eigenvalues not converged
     c_bands:  3 eigenvalues not converged
     c_bands:  2 eigenvalues not converged
     c_bands:  1 eigenvalues not converged
     c_bands:  1 eigenvalues not converged
     c_bands:  1 eigenvalues not converged
     c_bands:  3 eigenvalues not converged
     c_bands:  3 eigenvalues not converged
     c_bands:  1 eigenvalues not converged
     c_bands:  1 eigenvalues not converged
     c_bands:  1 eigenvalues not converged
     c_bands:  1 eigenvalues not converged
     c_bands:  1 eigenvalues not converged
     c_bands:  1 eigenvalues not converged
     c_bands:  1 eigenvalues not converged
     c_bands:  1 eigenvalues not converged
     c_bands:  3 eigenvalues not converged
     c_bands:  1 eigenvalues not converged
     c_bands:  1 eigenvalues not converged
     c_bands:  1 eigenvalues not converged
     c_bands:  1 eigenvalues not converged
     c_bands:  1 eigenvalues not converged
     c_bands:  1 eigenvalues not converged
     c_bands:  1 eigenvalues not converged
     c_bands:  2 eigenvalues not converged
     c_bands:  2 eigenvalues not converged
     c_bands:  1 eigenvalues not converged
     c_bands:  1 eigenvalues not converged
     c_bands:  1 eigenvalues not converged
     c_bands:  1 eigenvalues not converged
     c_bands:  1 eigenvalues not converged
     c_bands:  1 eigenvalues not converged
     c_bands:  1 eigenvalues not converged
     c_bands:  1 eigenvalues not converged
     c_bands:  1 eigenvalues not converged
     c_bands:  1 eigenvalues not converged
     c_bands:  1 eigenvalues not converged
     c_bands:  1 eigenvalues not converged
     c_bands:  1 eigenvalues not converged
     c_bands:  1 eigenvalues not converged
     c_bands:  1 eigenvalues not converged
     c_bands:  1 eigenvalues not converged
     c_bands:  2 eigenvalues not converged
     c_bands:  1 eigenvalues not converged
     c_bands:  1 eigenvalues not converged
     c_bands:  1 eigenvalues not converged
     c_bands:  1 eigenvalues not converged
     c_bands:  1 eigenvalues not converged
     c_bands:  2 eigenvalues not converged
     c_bands:  1 eigenvalues not converged
     c_bands:  1 eigenvalues not converged
     ethr =  6.06E-04,  avg # of iterations = 18.3

     negative rho (up, down):  4.192E-04 0.000E+00

     total cpu time spent up to now is       41.7 secs

     total energy              =     -22.83811338 Ry
     Harris-Foulkes estimate   =     -22.85567556 Ry
     estimated scf accuracy    <       0.04045396 Ry

     iteration #  3     ecut=    36.00 Ry     beta=0.70
     Davidson diagonalization with overlap
     c_bands:  1 eigenvalues not converged
     c_bands:  1 eigenvalues not converged
     ethr =  5.06E-04,  avg # of iterations =  8.2

     negative rho (up, down):  3.393E-04 0.000E+00

     total cpu time spent up to now is       42.9 secs

     total energy              =     -22.83298899 Ry
     Harris-Foulkes estimate   =     -22.83971791 Ry
     estimated scf accuracy    <       0.01191283 Ry

     iteration #  4     ecut=    36.00 Ry     beta=0.70
     Davidson diagonalization with overlap
     ethr =  1.49E-04,  avg # of iterations =  5.1

     negative rho (up, down):  3.108E-04 0.000E+00

     total cpu time spent up to now is       43.9 secs

     total energy              =     -22.83536522 Ry
     Harris-Foulkes estimate   =     -22.83554616 Ry
     estimated scf accuracy    <       0.00031070 Ry

     iteration #  5     ecut=    36.00 Ry     beta=0.70
     Davidson diagonalization with overlap
     c_bands:  1 eigenvalues not converged
     c_bands:  2 eigenvalues not converged
     c_bands:  2 eigenvalues not converged
     c_bands:  1 eigenvalues not converged
     c_bands:  1 eigenvalues not converged
     c_bands:  3 eigenvalues not converged
     c_bands:  3 eigenvalues not converged
     c_bands:  3 eigenvalues not converged
     c_bands:  2 eigenvalues not converged
     c_bands:  1 eigenvalues not converged
     c_bands:  2 eigenvalues not converged
     c_bands:  1 eigenvalues not converged
     c_bands:  1 eigenvalues not converged
     c_bands:  2 eigenvalues not converged
     c_bands:  1 eigenvalues not converged
     c_bands:  1 eigenvalues not converged
     c_bands:  2 eigenvalues not converged
     c_bands:  1 eigenvalues not converged
     c_bands:  2 eigenvalues not converged
     c_bands:  2 eigenvalues not converged
     c_bands:  2 eigenvalues not converged
     c_bands:  1 eigenvalues not converged
     c_bands:  3 eigenvalues not converged
     c_bands:  2 eigenvalues not converged
     c_bands:  1 eigenvalues not converged
     c_bands:  1 eigenvalues not converged
     c_bands:  2 eigenvalues not converged
     c_bands:  1 eigenvalues not converged
     c_bands:  1 eigenvalues not converged
     c_bands:  1 eigenvalues not converged
     c_bands:  1 eigenvalues not converged
     ethr =  3.88E-06,  avg # of iterations = 16.6

     negative rho (up, down):  3.046E-04 0.000E+00

     total cpu time spent up to now is       46.7 secs

     total energy              =     -22.83605799 Ry
     Harris-Foulkes estimate   =     -22.83608018 Ry
     estimated scf accuracy    <       0.00003459 Ry

     iteration #  6     ecut=    36.00 Ry     beta=0.70
     Davidson diagonalization with overlap
     c_bands:  1 eigenvalues not converged
     c_bands:  1 eigenvalues not converged
     c_bands:  3 eigenvalues not converged
     c_bands:  1 eigenvalues not converged
     c_bands:  1 eigenvalues not converged
     c_bands:  1 eigenvalues not converged
     c_bands:  1 eigenvalues not converged
     c_bands:  1 eigenvalues not converged
     c_bands:  2 eigenvalues not converged
     c_bands:  1 eigenvalues not converged
     c_bands:  1 eigenvalues not converged
     c_bands:  2 eigenvalues not converged
     c_bands:  1 eigenvalues not converged
     c_bands:  2 eigenvalues not converged
     c_bands:  2 eigenvalues not converged
     c_bands:  1 eigenvalues not converged
     c_bands:  1 eigenvalues not converged
     c_bands:  1 eigenvalues not converged
     c_bands:  2 eigenvalues not converged
     ethr =  4.32E-07,  avg # of iterations = 10.1

     negative rho (up, down):  2.940E-04 0.000E+00

     total cpu time spent up to now is       48.4 secs

     total energy              =     -22.83606455 Ry
     Harris-Foulkes estimate   =     -22.83607990 Ry
     estimated scf accuracy    <       0.00002556 Ry

     iteration #  7     ecut=    36.00 Ry     beta=0.70
     Davidson diagonalization with overlap
     c_bands:  1 eigenvalues not converged
     c_bands:  1 eigenvalues not converged
     c_bands:  1 eigenvalues not converged
     c_bands:  1 eigenvalues not converged
     c_bands:  1 eigenvalues not converged
     c_bands:  1 eigenvalues not converged
     ethr =  3.19E-07,  avg # of iterations =  4.3

     negative rho (up, down):  2.940E-04 0.000E+00

     total cpu time spent up to now is       49.4 secs

     total energy              =     -22.83606771 Ry
     Harris-Foulkes estimate   =     -22.83606785 Ry
     estimated scf accuracy    <       0.00000045 Ry

     iteration #  8     ecut=    36.00 Ry     beta=0.70
     Davidson diagonalization with overlap
     c_bands:  1 eigenvalues not converged
     c_bands:  1 eigenvalues not converged
     c_bands:  1 eigenvalues not converged
     c_bands:  1 eigenvalues not converged
     c_bands:  1 eigenvalues not converged
     c_bands:  1 eigenvalues not converged
     ethr =  5.67E-09,  avg # of iterations =  7.1

     negative rho (up, down):  2.940E-04 0.000E+00

     total cpu time spent up to now is       51.1 secs

     total energy              =     -22.83606950 Ry
     Harris-Foulkes estimate   =     -22.83606954 Ry
     estimated scf accuracy    <       0.00000033 Ry

     iteration #  9     ecut=    36.00 Ry     beta=0.70
     Davidson diagonalization with overlap
     c_bands:  1 eigenvalues not converged
     c_bands:  1 eigenvalues not converged
     ethr =  4.10E-09,  avg # of iterations =  2.0

     negative rho (up, down):  2.931E-04 0.000E+00

     total cpu time spent up to now is       51.9 secs

     total energy              =     -22.83606898 Ry
     Harris-Foulkes estimate   =     -22.83606951 Ry
     estimated scf accuracy    <       0.00000024 Ry

     iteration # 10     ecut=    36.00 Ry     beta=0.70
     Davidson diagonalization with overlap
     c_bands:  1 eigenvalues not converged
     c_bands:  1 eigenvalues not converged
     ethr =  3.05E-09,  avg # of iterations =  3.4

     negative rho (up, down):  2.931E-04 0.000E+00

     total cpu time spent up to now is       52.9 secs

     total energy              =     -22.83606905 Ry
     Harris-Foulkes estimate   =     -22.83606905 Ry
     estimated scf accuracy    <       0.00000002 Ry

     iteration # 11     ecut=    36.00 Ry     beta=0.70
     Davidson diagonalization with overlap
     c_bands:  1 eigenvalues not converged
     c_bands:  1 eigenvalues not converged
     ethr =  2.31E-10,  avg # of iterations =  3.4

     negative rho (up, down):  2.931E-04 0.000E+00

     total cpu time spent up to now is       53.8 secs

     total energy              =     -22.83606905 Ry
     Harris-Foulkes estimate   =     -22.83606905 Ry
     estimated scf accuracy    <       0.00000001 Ry

     iteration # 12     ecut=    36.00 Ry     beta=0.70
     Davidson diagonalization with overlap
     ethr =  1.46E-10,  avg # of iterations =  1.2

     negative rho (up, down):  2.931E-04 0.000E+00

     total cpu time spent up to now is       54.5 secs

     total energy              =     -22.83606943 Ry
     Harris-Foulkes estimate   =     -22.83606905 Ry
     estimated scf accuracy    <          8.4E-09 Ry

     iteration # 13     ecut=    36.00 Ry     beta=0.70
     Davidson diagonalization with overlap
     ethr =  1.06E-10,  avg # of iterations =  1.6

     negative rho (up, down):  2.931E-04 0.000E+00

     total cpu time spent up to now is       55.2 secs

     End of self-consistent calculation

          k = 0.0000 0.0000 0.0000 (  2441 PWs)   bands (ev):

   -23.4488 -11.8679  -8.2290  -7.4605  -1.1734  -0.2429  -0.0231   1.6387

          k = 0.0011 0.0997 0.0000 (  2455 PWs)   bands (ev):

   -23.2958 -11.6882  -8.6105  -8.0181  -0.9670  -0.0340   0.1884   1.8462

          k = 0.0022 0.1993 0.0000 (  2456 PWs)   bands (ev):

   -22.8387 -11.1548  -9.9882  -8.9244  -0.3471   0.5902   0.8233   2.4648

          k = 0.0033 0.2990 0.0000 (  2457 PWs)   bands (ev):

   -22.0838 -11.9805 -10.2880  -9.7109   0.6836   1.5460   1.8798   1.9848

          k = 0.0045 0.3987 0.0000 (  2470 PWs)   bands (ev):

   -21.0458 -14.0678 -10.3519  -9.1409  -0.1888   2.0944   2.4282   3.1076

          k = 0.0056 0.4984 0.0000 (  2483 PWs)   bands (ev):

   -19.7711 -16.0213 -10.7660  -7.8810  -2.0822   2.1755   3.9685   4.9458

          k =-0.0067-0.5980 0.0000 (  2494 PWs)   bands (ev):

   -18.7439 -17.2817 -10.9085  -7.1670  -3.0223   2.1001   6.0790   6.2330

          k = 0.0880 0.0459 0.0000 (  2455 PWs)   bands (ev):

   -23.2978 -11.6875  -8.8344  -7.7754  -0.9684  -0.0354   0.1869   1.8444

          k = 0.0891 0.1455 0.0000 (  2459 PWs)   bands (ev):

   -23.0028 -11.3403  -9.6314  -8.6023  -0.5686   0.3693   0.5971   2.2461

          k = 0.0903 0.2452 0.0000 (  2459 PWs)   bands (ev):

   -22.4068 -11.0319 -10.6473  -9.7445   0.2445   1.1842   1.4307   2.6247

          k = 0.0914 0.3449 0.0000 (  2455 PWs)   bands (ev):

   -21.5195 -12.9411 -10.5850  -9.6399   0.7239   1.4655   2.6850   3.3126

          k = 0.0925 0.4445 0.0000 (  2464 PWs)   bands (ev):

   -20.3649 -14.9333 -11.1321  -8.4041  -1.2272   2.9540   3.1604   4.3711

          k = 0.0936 0.5442 0.0000 (  2483 PWs)   bands (ev):

   -19.0547 -16.7044 -11.3931  -7.2567  -2.7762   2.8260   5.0905   6.0165

          k = 0.0813-0.5522 0.0000 (  2495 PWs)   bands (ev):

   -18.9711 -16.8058 -11.3608  -7.2179  -2.8104   2.7817   5.2442   6.1373

          k = 0.0824-0.4525 0.0000 (  2475 PWs)   bands (ev):

   -20.2769 -15.0690 -11.0437  -8.3384  -1.2725   2.8623   3.2379   4.4870

          k = 0.0836-0.3528 0.0000 (  2463 PWs)   bands (ev):

   -21.4492 -13.0622 -10.4755  -9.5790   0.7116   1.5569   2.7719   3.0892

          k = 0.0847-0.2532 0.0000 (  2453 PWs)   bands (ev):

   -22.3563 -11.0306 -10.6003  -9.7384   0.3099   1.2438   1.4953   2.6643

          k = 0.0858-0.1535 0.0000 (  2452 PWs)   bands (ev):

   -22.9725 -11.3111  -9.2295  -9.0034  -0.5292   0.4066   0.6358   2.2821

          k = 0.0869-0.0538 0.0000 (  2430 PWs)   bands (ev):

   -23.2877 -11.6776  -8.6221  -7.9941  -0.9553  -0.0228   0.1996   1.8571

          k = 0.1760 0.0917 0.0000 (  2456 PWs)   bands (ev):

   -22.8465 -11.1510 -10.3534  -8.5066  -0.3539   0.5852   0.8162   2.4572

          k = 0.1772 0.1914 0.0000 (  2459 PWs)   bands (ev):

   -22.4125 -11.2648 -10.6434  -9.4754   0.2390   1.1825   1.4253   2.5648

          k = 0.1783 0.2910 0.0000 (  2449 PWs)   bands (ev):

   -21.6835 -12.3308 -10.9299  -9.8043   1.0794   1.2429   2.1881   2.4580

          k = 0.1794 0.3907 0.0000 (  2454 PWs)   bands (ev):

   -20.6756 -13.8189 -12.0183  -8.6803  -0.6176   2.6479   3.9115   4.9250

          k = 0.1805 0.4904 0.0000 (  2469 PWs)   bands (ev):

   -19.4337 -15.5810 -12.5262  -7.4111  -2.2868   4.4078   4.7013   5.2549

          k = 0.1816 0.5901 0.0000 (  2481 PWs)   bands (ev):

   -18.3488 -16.8901 -12.6480  -6.6043  -3.2281   4.5285   6.4292   6.4446

          k = 0.1693-0.5063 0.0000 (  2481 PWs)   bands (ev):

   -19.2484 -15.8233 -12.4416  -7.2928  -2.3606   4.4985   4.7405   5.4610

          k = 0.1705-0.4067 0.0000 (  2472 PWs)   bands (ev):

   -20.5165 -14.0236 -11.9254  -8.5518  -0.6363   2.8581   3.7714   4.1178

          k = 0.1716-0.3070 0.0000 (  2460 PWs)   bands (ev):

   -21.5628 -12.2254 -11.1070  -9.6966   1.1641   1.3994   2.6126   3.7324

          k = 0.1727-0.2073 0.0000 (  2443 PWs)   bands (ev):

   -22.3318 -10.7718 -10.5674 -10.0279   0.3430   1.5276   2.5787   2.7350

          k = 0.1738-0.1076 0.0000 (  2438 PWs)   bands (ev):

   -22.8061 -11.1120  -9.8426  -9.0719  -0.3017   0.6356   0.8680   2.5092

          k = 0.1749-0.0080 0.0000 (  2452 PWs)   bands (ev):

   -22.9784 -11.3087  -9.7331  -8.4681  -0.5338   0.4024   0.6307   2.2786

          k = 0.2641 0.1376 0.0000 (  2457 PWs)   bands (ev):

   -22.1006 -12.2928 -10.2754  -9.3151   0.6677   1.5282   1.8288   1.8646

          k = 0.2652 0.2372 0.0000 (  2455 PWs)   bands (ev):

   -21.5336 -13.2007 -10.2557  -9.6238   0.5899   1.4502   2.4165   2.6713

          k = 0.2663 0.3369 0.0000 (  2454 PWs)   bands (ev):

   -20.6831 -14.0080 -11.7954  -8.6645  -0.7036   2.6372   3.5699   3.9019

          k = 0.2674 0.4366 0.0000 (  2461 PWs)   bands (ev):

   -19.5770 -14.8269 -13.3008  -7.4612  -2.0928   4.2012   4.9582   5.5490

          k = 0.2685 0.5362 0.0000 (  2467 PWs)   bands (ev):

   -18.3176 -16.0336 -14.0158  -6.2313  -3.3868   5.7012   6.0156   6.7395

          k = 0.2697 0.6359 0.0000 (  2476 PWs)   bands (ev):

   -18.0695 -16.2940 -14.0013  -6.1048  -3.4575   5.7355   6.4454   6.7215

          k = 0.2574-0.4605 0.0000 (  2474 PWs)   bands (ev):

   -19.3138 -14.9535 -13.4338  -7.2706  -2.1074   4.5580   5.1863   5.5399

          k = 0.2585-0.3608 0.0000 (  2449 PWs)   bands (ev):

   -20.4726 -13.7831 -12.2366  -8.4885  -0.5804   2.9065   3.5915   4.1785

          k = 0.2596-0.2611 0.0000 (  2441 PWs)   bands (ev):

   -21.3825 -12.7633 -10.8779  -9.4873   0.8352   1.6377   2.1661   2.8700

          k = 0.2607-0.1615 0.0000 (  2430 PWs)   bands (ev):

   -22.0099 -11.7495 -10.1899 -10.0126   0.7828   1.7025   1.7975   2.0005

          k = 0.2618-0.0618 0.0000 (  2443 PWs)   bands (ev):

   -22.3413 -11.0763 -10.5628  -9.7001   0.3352   1.2759   1.5199   2.6479

          k = 0.2630 0.0379 0.0000 (  2453 PWs)   bands (ev):

   -22.3715 -11.4234 -10.5918  -9.2860   0.2964   1.2353   1.4814   2.5229

          k = 0.3521 0.1834 0.0000 (  2470 PWs)   bands (ev):

   -21.0723 -14.3230  -9.9879  -9.1050  -0.4111   2.0819   2.7318   3.3364

          k = 0.3532 0.2831 0.0000 (  2464 PWs)   bands (ev):

   -20.3852 -15.1690 -10.8044  -8.3530  -1.4479   3.0210   3.3671   4.3424

          k = 0.3543 0.3828 0.0000 (  2469 PWs)   bands (ev):

   -19.4396 -15.8056 -12.2525  -7.3422  -2.4861   4.3816   5.0123   5.2496

          k = 0.3554 0.4824 0.0000 (  2467 PWs)   bands (ev):

[...]
     c_bands:  1 eigenvalues not converged
     c_bands:  1 eigenvalues not converged
     c_bands:  1 eigenvalues not converged
     c_bands:  2 eigenvalues not converged
     c_bands:  1 eigenvalues not converged
     c_bands:  1 eigenvalues not converged
     ethr =  2.92E-05,  avg # of iterations = 19.8

     negative rho (up, down):  6.126E-04 0.000E+00

     total cpu time spent up to now is      200.8 secs

     total energy              =     -22.85031638 Ry
     Harris-Foulkes estimate   =     -22.85098421 Ry
     estimated scf accuracy    <       0.00102702 Ry

     iteration #  4     ecut=    36.00 Ry     beta=0.70
     Davidson diagonalization with overlap
     c_bands:  1 eigenvalues not converged
     c_bands:  1 eigenvalues not converged
     c_bands:  1 eigenvalues not converged
     c_bands:  1 eigenvalues not converged
     c_bands:  1 eigenvalues not converged
     c_bands:  1 eigenvalues not converged
     c_bands:  1 eigenvalues not converged
     c_bands:  1 eigenvalues not converged
     c_bands:  1 eigenvalues not converged
     c_bands:  1 eigenvalues not converged
     c_bands:  1 eigenvalues not converged
     c_bands:  1 eigenvalues not converged
     c_bands:  1 eigenvalues not converged
     c_bands:  1 eigenvalues not converged
     c_bands:  1 eigenvalues not converged
     c_bands:  1 eigenvalues not converged
     c_bands:  1 eigenvalues not converged
     c_bands:  1 eigenvalues not converged
     c_bands:  1 eigenvalues not converged
     c_bands:  1 eigenvalues not converged
     c_bands:  1 eigenvalues not converged
     c_bands:  1 eigenvalues not converged
     c_bands:  1 eigenvalues not converged
     c_bands:  1 eigenvalues not converged
     ethr =  1.28E-05,  avg # of iterations = 15.6

     negative rho (up, down):  6.458E-04 0.000E+00

     total cpu time spent up to now is      203.9 secs

     total energy              =     -22.85052729 Ry
     Harris-Foulkes estimate   =     -22.85055783 Ry
     estimated scf accuracy    <       0.00005142 Ry

     iteration #  5     ecut=    36.00 Ry     beta=0.70
     Davidson diagonalization with overlap
     c_bands:  1 eigenvalues not converged
     c_bands:  1 eigenvalues not converged
     c_bands:  1 eigenvalues not converged
     c_bands:  1 eigenvalues not converged
     c_bands:  1 eigenvalues not converged
     c_bands:  1 eigenvalues not converged
     c_bands:  1 eigenvalues not converged
     c_bands:  1 eigenvalues not converged
     c_bands:  1 eigenvalues not converged
     c_bands:  1 eigenvalues not converged
     c_bands:  1 eigenvalues not converged
     c_bands:  1 eigenvalues not converged
     c_bands:  2 eigenvalues not converged
     c_bands:  1 eigenvalues not converged
     c_bands:  1 eigenvalues not converged
     c_bands:  1 eigenvalues not converged
     c_bands:  2 eigenvalues not converged
     c_bands:  1 eigenvalues not converged
     c_bands:  1 eigenvalues not converged
     c_bands:  2 eigenvalues not converged
     c_bands:  1 eigenvalues not converged
     c_bands:  1 eigenvalues not converged
     ethr =  6.43E-07,  avg # of iterations = 13.6

     negative rho (up, down):  6.487E-04 0.000E+00

     total cpu time spent up to now is      206.9 secs

     total energy              =     -22.85055257 Ry
     Harris-Foulkes estimate   =     -22.85055528 Ry
     estimated scf accuracy    <       0.00000422 Ry

     iteration #  6     ecut=    36.00 Ry     beta=0.70
     Davidson diagonalization with overlap
     c_bands:  1 eigenvalues not converged
     c_bands:  1 eigenvalues not converged
     c_bands:  2 eigenvalues not converged
     ethr =  5.28E-08,  avg # of iterations =  4.8

     negative rho (up, down):  6.489E-04 0.000E+00

     total cpu time spent up to now is      208.6 secs

     total energy              =     -22.85055403 Ry
     Harris-Foulkes estimate   =     -22.85055410 Ry
     estimated scf accuracy    <       0.00000007 Ry

     iteration #  7     ecut=    36.00 Ry     beta=0.70
     Davidson diagonalization with overlap
     c_bands:  1 eigenvalues not converged
     ethr =  8.49E-10,  avg # of iterations =  5.6

     negative rho (up, down):  6.489E-04 0.000E+00

     total cpu time spent up to now is      210.5 secs

     total energy              =     -22.85055421 Ry
     Harris-Foulkes estimate   =     -22.85055423 Ry
     estimated scf accuracy    <       0.00000002 Ry

     iteration #  8     ecut=    36.00 Ry     beta=0.70
     Davidson diagonalization with overlap
     ethr =  2.14E-10,  avg # of iterations =  2.5

     negative rho (up, down):  6.490E-04 0.000E+00

     total cpu time spent up to now is      211.6 secs

     total energy              =     -22.85055421 Ry
     Harris-Foulkes estimate   =     -22.85055422 Ry
     estimated scf accuracy    <          1.3E-09 Ry

     iteration #  9     ecut=    36.00 Ry     beta=0.70
     Davidson diagonalization with overlap
     ethr =  1.66E-11,  avg # of iterations =  4.6

     negative rho (up, down):  6.489E-04 0.000E+00

     total cpu time spent up to now is      213.6 secs

     total energy              =     -22.85055421 Ry
     Harris-Foulkes estimate   =     -22.85055421 Ry
     estimated scf accuracy    <          1.0E-09 Ry

     iteration # 10     ecut=    36.00 Ry     beta=0.70
     Davidson diagonalization with overlap
     ethr =  1.31E-11,  avg # of iterations =  1.0

     negative rho (up, down):  6.489E-04 0.000E+00

     total cpu time spent up to now is      214.6 secs

     total energy              =     -22.85055421 Ry
     Harris-Foulkes estimate   =     -22.85055421 Ry
     estimated scf accuracy    <          3.9E-10 Ry

     iteration # 11     ecut=    36.00 Ry     beta=0.70
     Davidson diagonalization with overlap
     ethr =  4.81E-12,  avg # of iterations =  3.0

     negative rho (up, down):  6.489E-04 0.000E+00

     total cpu time spent up to now is      216.0 secs

     End of self-consistent calculation

          k = 0.0000 0.0000 0.0000 (  2067 PWs)   bands (ev):

   -24.0279 -12.3014  -7.5225  -7.5172  -1.2259  -0.3092  -0.1433   1.5502

          k = 0.0029 0.1041 0.0000 (  2079 PWs)   bands (ev):

   -23.8625 -12.1006  -8.1636  -7.8674  -0.9999  -0.0798   0.0878   1.7773

          k = 0.0059 0.2083 0.0000 (  2071 PWs)   bands (ev):

   -23.3677 -11.5032  -9.7917  -8.6809  -0.3219   0.6069   0.7812   2.4571

          k = 0.0088 0.3124 0.0000 (  2048 PWs)   bands (ev):

   -22.5491 -11.8902 -10.5281  -9.5815   0.8058   1.7327   1.9365   2.9163

          k = 0.0118 0.4166 0.0000 (  2028 PWs)   bands (ev):

   -21.4177 -14.1044 -10.3310  -9.2250   0.5170   2.3717   3.3674   3.4704

          k = 0.0147 0.5207 0.0000 (  2020 PWs)   bands (ev):

   -19.9985 -16.2282 -10.8143  -7.7566  -1.6865   3.2775   4.4106   5.3918

          k =-0.0177-0.6249 0.0000 (  2024 PWs)   bands (ev):

   -18.6383 -17.8314 -10.9802  -6.8759  -2.8289   3.2097   6.7636   6.8521

          k = 0.0917 0.0495 0.0000 (  2079 PWs)   bands (ev):

   -23.8625 -12.1006  -8.1652  -7.8659  -0.9999  -0.0798   0.0878   1.7778

          k = 0.0946 0.1537 0.0000 (  2067 PWs)   bands (ev):

   -23.5323 -11.7013  -9.1875  -8.5612  -0.5476   0.3786   0.5501   2.2322

          k = 0.0976 0.2578 0.0000 (  2051 PWs)   bands (ev):

   -22.8757 -10.9139 -10.8892  -9.5822   0.3563   1.2909   1.4754   3.1280

          k = 0.1005 0.3620 0.0000 (  2038 PWs)   bands (ev):

   -21.9007 -12.9695 -10.4837  -9.7684   1.5659   1.7072   2.6817   2.8617

          k = 0.1035 0.4661 0.0000 (  2024 PWs)   bands (ev):

   -20.6239 -15.1098 -11.1286  -8.3486  -0.6987   3.4822   4.1111   4.4776

          k = 0.1064 0.5702 0.0000 (  2016 PWs)   bands (ev):

   -19.1019 -17.0948 -11.4622  -6.9917  -2.5302   3.9393   5.7189   6.6563

          k = 0.0740-0.5753 0.0000 (  2016 PWs)   bands (ev):

   -19.1022 -17.0945 -11.4624  -6.9921  -2.5297   3.9391   5.7186   6.6554

          k = 0.0769-0.4712 0.0000 (  2024 PWs)   bands (ev):

   -20.6241 -15.1092 -11.1292  -8.3490  -0.6978   3.4817   4.1108   4.4754

          k = 0.0799-0.3671 0.0000 (  2038 PWs)   bands (ev):

   -21.9009 -12.9684 -10.4849  -9.7688   1.5669   1.7069   2.6810   2.8613

          k = 0.0828-0.2629 0.0000 (  2051 PWs)   bands (ev):

   -22.8757 -10.9141 -10.8871  -9.5846   0.3561   1.2907   1.4750   3.1274

          k = 0.0858-0.1588 0.0000 (  2069 PWs)   bands (ev):

   -23.5324 -11.7015  -9.1834  -8.5656  -0.5478   0.3784   0.5500   2.2307

          k = 0.0887-0.0546 0.0000 (  2079 PWs)   bands (ev):

   -23.8625 -12.1007  -8.1614  -7.8698  -1.0000  -0.0798   0.0877   1.7773

          k = 0.1833 0.0991 0.0000 (  2071 PWs)   bands (ev):

   -23.3677 -11.5033  -9.7932  -8.6794  -0.3220   0.6068   0.7812   2.4558

          k = 0.1863 0.2032 0.0000 (  2051 PWs)   bands (ev):

   -22.8757 -10.9139 -10.8903  -9.5810   0.3563   1.2908   1.4751   3.1275

          k = 0.1892 0.3073 0.0000 (  2057 PWs)   bands (ev):

   -22.0628 -12.1994 -10.9788  -9.9524   1.4845   2.0470   2.4243   2.6318

          k = 0.1922 0.4115 0.0000 (  2042 PWs)   bands (ev):

   -20.9419 -13.9368 -12.0455  -8.6647   0.0515   3.0535   3.9850   4.2497

          k = 0.1951 0.5156 0.0000 (  2020 PWs)   bands (ev):

   -19.5427 -15.8802 -12.6180  -7.1938  -1.9173   5.0373   5.8250   5.8685

          k = 0.1981 0.6198 0.0000 (  2012 PWs)   bands (ev):

   -18.2219 -17.4045 -12.8021  -6.2659  -3.0255   5.7364   7.3213   7.4501

          k = 0.1656-0.5258 0.0000 (  2020 PWs)   bands (ev):

   -19.5431 -15.8791 -12.6188  -7.1947  -1.9158   5.0364   5.8244   5.8676

          k = 0.1686-0.4217 0.0000 (  2042 PWs)   bands (ev):

   -20.9423 -13.9347 -12.0476  -8.6656   0.0533   3.0528   3.9848   4.2489

          k = 0.1715-0.3175 0.0000 (  2057 PWs)   bands (ev):

   -22.0630 -12.1958 -10.9826  -9.9531   1.4840   2.0486   2.4240   2.6313

          k = 0.1745-0.2134 0.0000 (  2051 PWs)   bands (ev):

   -22.8759 -10.9144 -10.8872  -9.5845   0.3560   1.2904   1.4748   3.1286

          k = 0.1774-0.1092 0.0000 (  2071 PWs)   bands (ev):

   -23.3678 -11.5035  -9.7908  -8.6821  -0.3221   0.6066   0.7810   2.4556

          k = 0.1804-0.0051 0.0000 (  2069 PWs)   bands (ev):

   -23.5324 -11.7015  -9.1846  -8.5644  -0.5478   0.3783   0.5499   2.2315

          k = 0.2750 0.1486 0.0000 (  2048 PWs)   bands (ev):

   -22.5493 -11.8915 -10.5282  -9.5799   0.8056   1.7329   1.9364   2.9167

          k = 0.2779 0.2527 0.0000 (  2038 PWs)   bands (ev):

   -21.9009 -12.9707 -10.4821  -9.7685   1.5653   1.7070   2.6815   2.8612

          k = 0.2809 0.3569 0.0000 (  2044 PWs)   bands (ev):

   -20.9420 -13.9378 -12.0443  -8.6648   0.0512   3.0534   3.9849   4.2491

          k = 0.2838 0.4610 0.0000 (  2034 PWs)   bands (ev):

   -19.6961 -14.9373 -13.5834  -7.2836  -1.5925   4.8221   5.5553   6.0949

          k = 0.2868 0.5652 0.0000 (  2026 PWs)   bands (ev):

   -18.2351 -16.4012 -14.2886  -5.8543  -3.1509   6.2664   6.9367   7.9609

          k = 0.2897 0.6693 0.0000 (  2026 PWs)   bands (ev):

   -18.2360 -16.3994 -14.2896  -5.8558  -3.1491   6.2656   6.9352   7.9608

          k = 0.2573-0.4763 0.0000 (  2034 PWs)   bands (ev):

   -19.6967 -14.9341 -13.5862  -7.2852  -1.5900   4.8211   5.5539   6.0939

          k = 0.2602-0.3721 0.0000 (  2042 PWs)   bands (ev):

   -20.9424 -13.9354 -12.0467  -8.6661   0.0534   3.0526   3.9841   4.2489

          k = 0.2632-0.2680 0.0000 (  2038 PWs)   bands (ev):

   -21.9011 -12.9690 -10.4841  -9.7694   1.5666   1.7064   2.6811   2.8608

          k = 0.2661-0.1639 0.0000 (  2048 PWs)   bands (ev):

   -22.5494 -11.8901 -10.5288  -9.5816   0.8053   1.7320   1.9363   2.9162

          k = 0.2691-0.0597 0.0000 (  2051 PWs)   bands (ev):

   -22.8759 -10.9144 -10.8874  -9.5843   0.3558   1.2903   1.4746   3.1268

          k = 0.2720 0.0444 0.0000 (  2051 PWs)   bands (ev):

   -22.8759 -10.9142 -10.8883  -9.5832   0.3559   1.2905   1.4748   3.1272

          k = 0.3666 0.1981 0.0000 (  2028 PWs)   bands (ev):

   -21.4180 -14.1054 -10.3294  -9.2252   0.5162   2.3714   3.3674   3.4737

          k = 0.3696 0.3022 0.0000 (  2024 PWs)   bands (ev):

   -20.6242 -15.1108 -11.1270  -8.3488  -0.6995   3.4820   4.1135   4.4775

          k = 0.3725 0.4064 0.0000 (  2020 PWs)   bands (ev):

   -19.5429 -15.8812 -12.6166  -7.1939  -1.9179   5.0373   5.8276   5.8691

          k = 0.3755 0.5105 0.0000 (  2026 PWs)   bands (ev):

   -18.2353 -16.4019 -14.2877  -5.8544  -3.1512   6.2665   6.9364   7.9634

          k = 0.3784 0.6147 0.0000 (  2028 PWs)   bands (ev):

   -16.9814 -16.9771 -15.2874  -4.4691  -4.4649   5.9294   8.5591   8.5636

          k = 0.3814 0.7188 0.0000 (  2026 PWs)   bands (ev):

   -18.2368 -16.3991 -14.2891  -5.8575  -3.1476   6.2656   6.9348   7.9662

          k = 0.3489-0.4268 0.0000 (  2020 PWs)   bands (ev):

   -19.5437 -15.8796 -12.6178  -7.1963  -1.9148   5.0360   5.8298   5.8671

          k = 0.3519-0.3226 0.0000 (  2024 PWs)   bands (ev):

   -20.6247 -15.1097 -11.1280  -8.3505  -0.6973   3.4811   4.1156   4.4754

          k = 0.3548-0.2185 0.0000 (  2028 PWs)   bands (ev):

   -21.4183 -14.1046 -10.3304  -9.2264   0.5174   2.3708   3.3675   3.4751

          k = 0.3578-0.1143 0.0000 (  2038 PWs)   bands (ev):

   -21.9013 -12.9688 -10.4842  -9.7695   1.5665   1.7063   2.6810   2.8609

          k = 0.3607-0.0102 0.0000 (  2057 PWs)   bands (ev):

   -22.0632 -12.1963 -10.9819  -9.9532   1.4837   2.0482   2.4236   2.6314

          k = 0.3637 0.0940 0.0000 (  2038 PWs)   bands (ev):

   -21.9011 -12.9695 -10.4834  -9.7690   1.5663   1.7066   2.6807   2.8613

          k = 0.4583 0.2476 0.0000 (  2020 PWs)   bands (ev):

   -19.9989 -16.2290 -10.8126  -7.7569  -1.6874   3.2800   4.4101   5.3917

          k = 0.4612 0.3518 0.0000 (  2016 PWs)   bands (ev):

   -19.1024 -17.0956 -11.4606  -6.9919  -2.5311   3.9419   5.7184   6.6556

          k = 0.4642 0.4559 0.0000 (  2012 PWs)   bands (ev):

   -18.2225 -17.4050 -12.8007  -6.2661  -3.0262   5.7393   7.0975   7.3221

          k = 0.4671 0.5601 0.0000 (  2026 PWs)   bands (ev):

   -18.2367 -16.3996 -14.2886  -5.8560  -3.1494   6.2657   6.9342   7.9635

          k = 0.4701 0.6642 0.0000 (  2026 PWs)   bands (ev):

   -18.2373 -16.3986 -14.2891  -5.8577  -3.1475   6.2657   6.9342   7.9668

          k = 0.4730 0.7684 0.0000 (  2012 PWs)   bands (ev):

   -18.2253 -17.4019 -12.8013  -6.2696  -3.0223   5.7423   7.0970   7.3203

          k = 0.4406-0.3772 0.0000 (  2016 PWs)   bands (ev):

   -19.1036 -17.0942 -11.4612  -6.9952  -2.5276   3.9447   5.7173   6.6542

          k = 0.4435-0.2731 0.0000 (  2020 PWs)   bands (ev):

   -19.9996 -16.2282 -10.8132  -7.7592  -1.6851   3.2827   4.4087   5.3902

          k = 0.4465-0.1689 0.0000 (  2024 PWs)   bands (ev):

   -20.6248 -15.1095 -11.1282  -8.3506  -0.6973   3.4810   4.1161   4.4762

          k = 0.4494-0.0648 0.0000 (  2042 PWs)   bands (ev):

   -20.9427 -13.9351 -12.0467  -8.6663   0.0533   3.0523   3.9839   4.2485

          k = 0.4524 0.0393 0.0000 (  2044 PWs)   bands (ev):

   -20.9426 -13.9354 -12.0465  -8.6659   0.0529   3.0524   3.9840   4.2484

          k = 0.4553 0.1435 0.0000 (  2024 PWs)   bands (ev):

   -20.6245 -15.1100 -11.1277  -8.3493  -0.6986   3.4814   4.1136   4.4743

          k =-0.5499-0.2972 0.0000 (  2024 PWs)   bands (ev):

   -18.6390 -17.8320 -10.9785  -6.8761  -2.8298   3.2123   6.7628   6.8510

          k =-0.5470-0.1930 0.0000 (  2016 PWs)   bands (ev):

   -19.1028 -17.0950 -11.4608  -6.9923  -2.5306   3.9419   5.7178   6.6548

          k =-0.5440-0.0889 0.0000 (  2020 PWs)   bands (ev):

   -19.5437 -15.8796 -12.6176  -7.1950  -1.9164   5.0358   5.8277   5.8672

          k =-0.5411 0.0153 0.0000 (  2034 PWs)   bands (ev):

   -19.6972 -14.9340 -13.5857  -7.2855  -1.5902   4.8205   5.5535   6.0932

          k =-0.5381 0.1194 0.0000 (  2020 PWs)   bands (ev):

   -19.5441 -15.8791 -12.6179  -7.1965  -1.9147   5.0357   5.8302   5.8673

          k =-0.5352 0.2236 0.0000 (  2016 PWs)   bands (ev):

   -19.1038 -17.0940 -11.4612  -6.9952  -2.5276   3.9448   5.7170   6.6547

          k =-0.5676-0.9220 0.0000 (  2024 PWs)   bands (ev):

   -18.6418 -17.8291 -10.9790  -6.8798  -2.8261   3.2153   6.7611   6.8506

     the Fermi energy is    -4.4670 ev

!    total energy              =     -22.85055421 Ry
     Harris-Foulkes estimate   =     -22.85055421 Ry
     estimated scf accuracy    <          4.3E-12 Ry

     The total energy is the sum of the following terms:

     one-electron contribution =      46.91683606 Ry
     hartree contribution      =     -22.92238811 Ry
     xc contribution           =      -6.96337751 Ry
     ewald contribution        =     -39.88139019 Ry
     smearing contrib. (-TS)   =      -0.00023446 Ry

     convergence has been achieved in  11 iterations

     Forces acting on atoms (cartesian axes, Ry/au):

     atom    1 type  1   force =     0.00041034   -0.00014976    0.00000000
     atom    2 type  1   force =    -0.00041034    0.00014976    0.00000000

     Total force =     0.000618     Total SCF correction =     0.000000


     Computing stress (Cartesian axis) and pressure

          total   stress  (Ry/bohr**3)                   (kbar)     P=    1.64
   0.00001604   0.00000084   0.00000000          2.36      0.12      0.00
   0.00000084   0.00001751   0.00000000          0.12      2.58      0.00
   0.00000000   0.00000000   0.00000000          0.00      0.00      0.00


     Writing output data file graphene_bc1_vc-relax.save

     init_run     :      1.10s CPU      1.10s WALL (       2 calls)
     electrons    :    224.00s CPU    206.93s WALL (      10 calls)
     update_pot   :      1.65s CPU      1.66s WALL (       8 calls)
     forces       :      1.53s CPU      1.58s WALL (      10 calls)
     stress       :      4.17s CPU      4.19s WALL (      10 calls)

     Called by init_run:
     wfcinit      :      0.75s CPU      0.74s WALL (       2 calls)
     potinit      :      0.10s CPU      0.10s WALL (       2 calls)

     Called by electrons:
     c_bands      :    204.85s CPU    186.97s WALL (     141 calls)
     sum_band     :     17.63s CPU     17.88s WALL (     141 calls)
     v_of_rho     :      0.42s CPU      0.45s WALL (     150 calls)
     newd         :      0.84s CPU      1.12s WALL (     150 calls)
     mix_rho      :      0.24s CPU      0.45s WALL (     141 calls)

     Called by c_bands:
     init_us_2    :      4.05s CPU      4.13s WALL (   22496 calls)
     cegterg      :    198.48s CPU    180.31s WALL (   10434 calls)

     Called by sum_band:
     sum_band:bec :      0.03s CPU      0.04s WALL (   10434 calls)
     addusdens    :      1.07s CPU      0.84s WALL (     141 calls)

     Called by *egterg:
     h_psi        :    126.13s CPU    125.36s WALL (   77534 calls)
     s_psi        :     10.52s CPU      5.96s WALL (   77534 calls)
     g_psi        :      1.58s CPU      1.68s WALL (   66952 calls)
     cdiaghg      :     10.65s CPU     10.89s WALL (   76720 calls)

     Called by h_psi:
     h_psi:pot    :    124.44s CPU    123.51s WALL (   77534 calls)
     h_psi:calbec :      6.94s CPU      7.16s WALL (   77534 calls)
     vloc_psi     :    105.83s CPU    109.74s WALL (   77534 calls)
     add_vuspsi   :     11.49s CPU      6.31s WALL (   77534 calls)

     General routines
     calbec       :      8.80s CPU      9.01s WALL (   91668 calls)
     fft          :      0.27s CPU      0.30s WALL (     961 calls)
     fftw         :    100.42s CPU    104.03s WALL (  734926 calls)
     davcio       :      0.00s CPU      0.01s WALL (     148 calls)

     Parallel routines
     fft_scatter  :     23.92s CPU     24.89s WALL (  735887 calls)

     PWSCF        :  3m53.27s CPU     3m36.49s WALL


   This run was terminated on:   3: 2:26  19Aug2017            

=------------------------------------------------------------------------------=
   JOB DONE.
=------------------------------------------------------------------------------=
