
     Program PWSCF v.4.99       starts on 23Apr2012 at 22:24: 6 

     This program is part of the open-source Quantum ESPRESSO suite
     for quantum simulation of materials; please cite
         "P. Giannozzi et al., J. Phys.:Condens. Matter 21 395502 (2009);
          URL http://www.quantum-espresso.org", 
     in publications or presentations arising from this work. More details at
     http://www.quantum-espresso.org/quote.php

     Serial version

     Current dimensions of program PWSCF are:
     Max number of different atomic species (ntypx) = 10
     Max number of k-points (npk) =  40000
     Max angular momentum in pseudopotentials (lmaxx) =  3
     Waiting for input...
     Reading input from standard input
               file H.pbe-rrkjus.UPF: wavefunction(s)  1S renormalized
               file O.pbe-rrkjus.UPF: wavefunction(s)  2S renormalized

     gamma-point specific algorithms are used

     G-vector sticks info
     --------------------
     sticks:   dense  smooth     PW     G-vecs:    dense   smooth      PW
     Sum        6369    3181    793               458581   162113   20303
     Tot        3185    1591    397



     bravais-lattice index     =            6
     lattice parameter (alat)  =      20.0000  a.u.
     unit-cell volume          =    9600.0000 (a.u.)^3
     number of atoms/cell      =            3
     number of atomic types    =            2
     number of electrons       =         8.00
     number of Kohn-Sham states=            8
     kinetic-energy cutoff     =      25.0000  Ry
     charge density cutoff     =     200.0000  Ry
     convergence threshold     =      1.0E-06
     mixing beta               =       0.5000
     number of iterations used =            8  plain     mixing
     Exchange-correlation      =  SLA  PW   PBE  PBE ( 1 4 3 4 0)
     EXX-fraction              =        0.00

     Effective Screening Medium Method
     =================================
     field strength (Ry/a.u.)         =       0.00 
     ESM offset from cell edge (a.u.) =       0.00 
     grid points for fit at edges     =          4 
     Boundary Conditions: Vacuum-Slab-Vacuum


     celldm(1)=  20.000000  celldm(2)=   0.000000  celldm(3)=   1.200000
     celldm(4)=   0.000000  celldm(5)=   0.000000  celldm(6)=   0.000000

     crystal axes: (cart. coord. in units of alat)
               a(1) = (   1.000000   0.000000   0.000000 )  
               a(2) = (   0.000000   1.000000   0.000000 )  
               a(3) = (   0.000000   0.000000   1.200000 )  

     reciprocal axes: (cart. coord. in units 2 pi/alat)
               b(1) = (  1.000000  0.000000  0.000000 )  
               b(2) = (  0.000000  1.000000  0.000000 )  
               b(3) = (  0.000000  0.000000  0.833333 )  


     PseudoPot. # 1 for H  read from file:
     /home/Brandon/src/espresso/pseudo/H.pbe-rrkjus.UPF
     MD5 check sum: 7cc9d459525c9a0585f487a71c3c9563
     Pseudo is Ultrasoft, Zval =  1.0
     Generated by new atomic code, or converted to UPF format
     Using radial grid of 1061 points,  2 beta functions with: 
                l(1) =   0
                l(2) =   0
     Q(r) pseudized with 0 coefficients 


     PseudoPot. # 2 for O  read from file:
     /home/Brandon/src/espresso/pseudo/O.pbe-rrkjus.UPF
     MD5 check sum: 390ba29e75625707450f3bd3f0eb6be9
     Pseudo is Ultrasoft, Zval =  6.0
     Generated by new atomic code, or converted to UPF format
     Using radial grid of 1269 points,  4 beta functions with: 
                l(1) =   0
                l(2) =   0
                l(3) =   1
                l(4) =   1
     Q(r) pseudized with 0 coefficients 


     atomic species   valence    mass     pseudopotential
        H              1.00     1.00794     H ( 1.00)
        O              6.00    55.84700     O ( 1.00)

     No symmetry found



   Cartesian axes

     site n.     atom                  positions (alat units)
         1           O   tau(   1) = (   0.0000000   0.5000000   0.0000000  )
         2           H   tau(   2) = (   0.0431388   0.4310286   0.0430783  )
         3           H   tau(   3) = (   0.0366354   0.5764064   0.0359492  )

     number of k points=     1  gaussian smearing, width (Ry)=  0.0500
                       cart. coord. in units 2pi/alat
        k(    1) = (   0.0000000   0.0000000   0.0000000), wk =   2.0000000

     Dense  grid:   229291 G-vectors     FFT dimensions: (  96,  96, 120)

     Smooth grid:    81057 G-vectors     FFT dimensions: (  64,  64,  80)

     Largest allocated arrays     est. size (Mb)     dimensions
        Kohn-Sham Wavefunctions         1.24 Mb     (  10152,    8)
        NL pseudopotentials             1.86 Mb     (  10152,   12)
        Each V/rho on FFT grid         16.88 Mb     (1105920)
        Each G-vector array             1.75 Mb     ( 229291)
        G-vector shells                 0.10 Mb     (  12605)
     Largest temporary arrays     est. size (Mb)     dimensions
        Auxiliary wavefunctions         2.48 Mb     (  10152,   32)
        Each subspace H/S matrix        0.01 Mb     (  32,  32)
        Each <psi_i|beta_j> matrix      0.00 Mb     (     12,    8)
        Arrays for rho mixing         135.00 Mb     (1105920,   8)

     Initial potential from superposition of free atoms
     Check: negative starting charge=   -0.001104

     starting charge    7.80759, renormalised to    8.00000

     negative rho (up, down):  0.113E-02 0.000E+00
     Starting wfc are    6 randomized atomic wfcs

     total cpu time spent up to now is        7.2 secs

     per-process dynamical memory:   113.3 Mb

     Self-consistent Calculation

     iteration #  1     ecut=    25.00 Ry     beta=0.50
     Davidson diagonalization with overlap
     ethr =  1.00E-02,  avg # of iterations =  6.0

     negative rho (up, down):  0.622E-03 0.000E+00

     total cpu time spent up to now is       10.9 secs

     total energy              =     -34.15653230 Ry
     Harris-Foulkes estimate   =     -34.57455082 Ry
     estimated scf accuracy    <       0.66442710 Ry

     iteration #  2     ecut=    25.00 Ry     beta=0.50
     Davidson diagonalization with overlap
     ethr =  8.31E-03,  avg # of iterations =  2.0

     negative rho (up, down):  0.143E-02 0.000E+00

     total cpu time spent up to now is       14.1 secs

     total energy              =     -34.24783112 Ry
     Harris-Foulkes estimate   =     -34.29751187 Ry
     estimated scf accuracy    <       0.11911412 Ry

     iteration #  3     ecut=    25.00 Ry     beta=0.50
     Davidson diagonalization with overlap
     ethr =  1.49E-03,  avg # of iterations =  6.0

     negative rho (up, down):  0.117E-02 0.000E+00

     total cpu time spent up to now is       17.4 secs

     total energy              =     -34.25154693 Ry
     Harris-Foulkes estimate   =     -34.26064573 Ry
     estimated scf accuracy    <       0.01647268 Ry

     iteration #  4     ecut=    25.00 Ry     beta=0.50
     Davidson diagonalization with overlap
     ethr =  2.06E-04,  avg # of iterations =  6.0

     negative rho (up, down):  0.663E-03 0.000E+00

     total cpu time spent up to now is       20.7 secs

     total energy              =     -34.25308656 Ry
     Harris-Foulkes estimate   =     -34.25310132 Ry
     estimated scf accuracy    <       0.00034304 Ry

     iteration #  5     ecut=    25.00 Ry     beta=0.50
     Davidson diagonalization with overlap
     ethr =  4.29E-06,  avg # of iterations = 12.0

     negative rho (up, down):  0.367E-03 0.000E+00

     total cpu time spent up to now is       24.5 secs

     total energy              =     -34.25321501 Ry
     Harris-Foulkes estimate   =     -34.25321341 Ry
     estimated scf accuracy    <       0.00003631 Ry

     iteration #  6     ecut=    25.00 Ry     beta=0.50
     Davidson diagonalization with overlap
     ethr =  4.54E-07,  avg # of iterations =  2.0

     negative rho (up, down):  0.369E-03 0.000E+00

     total cpu time spent up to now is       27.5 secs

     total energy              =     -34.25323034 Ry
     Harris-Foulkes estimate   =     -34.25322191 Ry
     estimated scf accuracy    <       0.00000146 Ry

     iteration #  7     ecut=    25.00 Ry     beta=0.50
     Davidson diagonalization with overlap
     ethr =  1.83E-08,  avg # of iterations =  3.0

     negative rho (up, down):  0.290E-03 0.000E+00

     total cpu time spent up to now is       30.4 secs

     End of self-consistent calculation

          k = 0.0000 0.0000 0.0000 ( 10152 PWs)   bands (ev):

   -25.3492 -13.1481  -9.2655  -7.2448  -1.1068   0.1064   0.5162   0.5489

     the Fermi energy is    -4.1833 ev

!    total energy              =     -34.25323095 Ry
     Harris-Foulkes estimate   =     -34.25323057 Ry
     estimated scf accuracy    <       0.00000009 Ry

     The total energy is the sum of the following terms:

     one-electron contribution =     -57.03053523 Ry
     hartree contribution      =      29.91405571 Ry
     xc contribution           =      -8.39370510 Ry
     ewald contribution        =       1.25695368 Ry
     smearing contrib. (-TS)   =      -0.00000000 Ry

     ESM Charge and Potential
     ========================

    z (A)   Tot chg (e/A)   Avg v_hartree        Avg v_local  Avg v_hart+v_loc
                                     (eV)               (eV)              (eV)
    ==========================================================================
    -6.24      0.0000        -39.7492650         39.8284615         0.0791965
    -6.14      0.0000        -39.6404315         39.7885970         0.1481655
    -6.03      0.0000        -39.3170125         39.5141236         0.1971111
    -5.93      0.0000        -38.7582461         38.9737689         0.2155229
    -5.82      0.0000        -38.0743344         38.2899763         0.2156419
    -5.72      0.0000        -37.3903580         37.6058808         0.2155228
    -5.61      0.0000        -36.7066338         36.9222674         0.2156336
    -5.50      0.0000        -36.0224844         36.2380169         0.2155326
    -5.40      0.0000        -35.3389113         35.5545279         0.2156166
    -5.29      0.0000        -34.6546409         34.8701883         0.2155474
    -5.19      0.0000        -33.9711543         34.1867506         0.2155963
    -5.08      0.0000        -33.2868363         33.5023980         0.2155617
    -4.97      0.0000        -32.6033583         32.8189364         0.2155782
    -4.87      0.0000        -31.9190710         32.1346417         0.2155707
    -4.76      0.0000        -31.2355274         31.4510929         0.2155656
    -4.66      0.0000        -30.5513366         30.7669081         0.2155715
    -4.55      0.0000        -29.8676734         30.0832330         0.2155596
    -4.45      0.0000        -29.1836191         29.3991834         0.2155643
    -4.34      0.0000        -28.4998125         28.7153713         0.2155588
    -4.23      0.0000        -27.8159018         28.0314535         0.2155517
    -4.13      0.0000        -27.1319617         27.3475210         0.2155593
    -4.02      0.0000        -26.4481699         26.6637071         0.2155372
    -3.92      0.0000        -25.7641344         25.9796909         0.2155565
    -3.81      0.0000        -25.0804137         25.2959380         0.2155243
    -3.70      0.0000        -24.3963383         24.6118844         0.2155462
    -3.60      0.0000        -23.7126318         23.9281456         0.2155139
    -3.49      0.0000        -23.0285747         23.2440995         0.2155247
    -3.39      0.0000        -22.3448312         22.5603345         0.2155033
    -3.28      0.0001        -21.6608396         21.8763298         0.2154902
    -3.18      0.0001        -20.9770264         21.1925120         0.2154855
    -3.07      0.0001        -20.2931277         20.5085671         0.2154394
    -2.96      0.0002        -19.6092412         19.8246867         0.2154455
    -2.86      0.0002        -18.9254419         19.1408033         0.2153614
    -2.75      0.0003        -18.2415082         18.4568660         0.2153578
    -2.65      0.0004        -17.5577983         17.7730322         0.2152339
    -2.54      0.0006        -16.8738727         17.0890545         0.2151818
    -2.43      0.0009        -16.1902466         16.4052506         0.2150040
    -2.33      0.0012        -15.5064200         15.7212540         0.2148340
    -2.22      0.0017        -14.8229074         15.0374582         0.2145507
    -2.12      0.0024        -14.1393120         14.3534638         0.2141517
    -2.01      0.0034        -13.4560119         13.6696566         0.2136447
    -1.91      0.0049        -12.7728562         12.9856818         0.2128256
    -1.80      0.0071        -12.0900321         12.3018482         0.2118161
    -1.69      0.0102        -11.4077290         11.6179062         0.2101772
    -1.59      0.0146        -10.7259794         10.9340344         0.2080550
    -1.48      0.0208        -10.0453442         10.2501364         0.2047923
    -1.38      0.0303         -9.3658735          9.5662151         0.2003416
    -1.27      0.0447         -8.6886017          8.8823739         0.1937722
    -1.16      0.0662         -8.0140382          8.1983870         0.1843488
    -1.06      0.0975         -7.3440039          7.5146242         0.1706203
    -0.95      0.1434         -6.6801795          6.8305403         0.1503607
    -0.85      0.2124         -6.0258671          6.1469119         0.1210448
    -0.74      0.3182         -5.3854049          5.4626085         0.0772037
    -0.64      0.4776         -4.7658026          4.7806170         0.0148144
    -0.53      0.7122         -4.1775160          4.0972278        -0.0802882
    -0.42      1.0395         -3.6356627          3.3996513        -0.2360114
    -0.32      1.4249         -3.1614731          2.7105501        -0.4509230
    -0.21      1.7459         -2.7788300          2.1034932        -0.6753367
    -0.11      1.9056         -2.5082770          1.6470359        -0.8612411
     0.00      1.9717         -2.3601454          1.3758735        -0.9842718
     0.11      2.0300         -2.3396337          1.2983904        -1.0412432
     0.21      1.9994         -2.4496576          1.4167172        -1.0329404
     0.32      1.7896         -2.6879808          1.7369845        -0.9509963
     0.42      1.4560         -3.0411995          2.2172949        -0.8239046
     0.53      1.1035         -3.4884327          2.7897613        -0.6986714
     0.64      0.7934         -4.0072551          3.4246230        -0.5826322
     0.74      0.5494         -4.5776081          4.1059858        -0.4716224
     0.85      0.3739         -5.1839783          4.7968447        -0.3871335
     0.95      0.2547         -5.8146354          5.4796485        -0.3349868
     1.06      0.1741         -6.4621552          6.1634943        -0.2986609
     1.16      0.1190         -7.1208531          6.8471963        -0.2736568
     1.27      0.0811         -7.7875265          7.5312125        -0.2563140
     1.38      0.0554         -8.4593416          8.2150717        -0.2442698
     1.48      0.0381         -9.1349048          8.8989269        -0.2359779
     1.59      0.0266         -9.8128856          9.5829317        -0.2299539
     1.69      0.0187        -10.4926175         10.2666649        -0.2259526
     1.80      0.0132        -11.1736165         10.9507647        -0.2228518
     1.91      0.0092        -11.8553726         11.6344341        -0.2209385
     2.01      0.0064        -12.5378867         12.3185653        -0.2193215
     2.12      0.0045        -13.2206273         13.0022361        -0.2183913
     2.22      0.0032        -13.9038846         13.6863347        -0.2175500
     2.33      0.0024        -14.5871257         14.3700660        -0.2170597
     2.43      0.0017        -15.2707383         15.0540808        -0.2166575
     2.54      0.0012        -15.9542708         15.7379133        -0.2163575
     2.65      0.0008        -16.6380278         16.4218168        -0.2162109
     2.75      0.0006        -17.3217506         17.1057633        -0.2159873
     2.86      0.0004        -18.0055348         17.7895580        -0.2159768
     2.96      0.0003        -18.6893955         18.4736011        -0.2157944
     3.07      0.0002        -19.3731589         19.1573180        -0.2158409
     3.18      0.0002        -20.0571188         19.8414151        -0.2157037
     3.28      0.0001        -20.7408567         20.5251060        -0.2157507
     3.39      0.0001        -21.4248705         21.2091995        -0.2156711
     3.49      0.0001        -22.1086058         21.8929238        -0.2156820
     3.60      0.0000        -22.7926228         22.5769561        -0.2156667
     3.70      0.0000        -23.4763938         23.2607657        -0.2156281
     3.81      0.0000        -24.1603659         23.9446943        -0.2156717
     3.92      0.0000        -24.8442101         24.6286193        -0.2155908
     4.02      0.0000        -25.5281013         25.3124285        -0.2156728
     4.13      0.0000        -26.2120408         25.9964686        -0.2155721
     4.23      0.0000        -26.8958372         26.6801751        -0.2156621
     4.34      0.0000        -27.5798706         27.3642981        -0.2155725
     4.45      0.0000        -28.2635862         28.0479481        -0.2156382
     4.55      0.0000        -28.9476850         28.7320960        -0.2155890
     4.66      0.0000        -29.6313598         29.4157558        -0.2156041
     4.76      0.0000        -30.3154731         30.0998580        -0.2156151
     4.87      0.0000        -30.9991648         30.7835984        -0.2155665
     4.97      0.0000        -31.6832306         31.4675881        -0.2156425
     5.08      0.0000        -32.3670013         32.1514677        -0.2155335
     5.19      0.0000        -33.0509611         32.8352982        -0.2156629
     5.29      0.0000        -33.7348614         33.5193489        -0.2155125
     5.40      0.0000        -34.4186757         34.2030055        -0.2156702
     5.50      0.0000        -35.1027309         34.8872235        -0.2155075
     5.61      0.0000        -35.7863904         35.5707286        -0.2156618
     5.72      0.0000        -36.4705927         36.2550735        -0.2155192
     5.82      0.0000        -37.1541227         36.9384833        -0.2156394
     5.93      0.0000        -37.8384300         37.6228857        -0.2155443
     6.03      0.0000        -38.4759313         38.2788500        -0.1970813
     6.14      0.0000        -39.0080326         38.8598262        -0.1482064
     6.24      0.0000        -39.4114016         39.3322509        -0.0791507
     6.35      0.0000        -39.6661980         39.6661739        -0.0000241


     convergence has been achieved in   7 iterations

     Forces acting on atoms (Ry/au):

     atom    1 type  2   force =    -0.00057421   -0.00018708    0.00055654
     atom    2 type  1   force =     0.00025608   -0.00010262   -0.00030345
     atom    3 type  1   force =     0.00031814    0.00028970   -0.00025309

     Total force =     0.000499     Total SCF correction =     0.000053
     SCF correction compared to forces is large: reduce conv_thr to get better values

     Writing output data file H2O.save

     init_run     :      6.24s CPU      6.77s WALL (       1 calls)
     electrons    :     22.60s CPU     23.48s WALL (       1 calls)
     forces       :      2.67s CPU      2.78s WALL (       1 calls)

     Called by init_run:
     wfcinit      :      0.14s CPU      0.17s WALL (       1 calls)
     potinit      :      2.79s CPU      2.91s WALL (       1 calls)

     Called by electrons:
     c_bands      :      4.01s CPU      4.03s WALL (       7 calls)
     sum_band     :      4.45s CPU      4.54s WALL (       7 calls)
     v_of_rho     :     10.86s CPU     11.17s WALL (       8 calls)
     newd         :      2.75s CPU      3.10s WALL (       8 calls)
     mix_rho      :      0.86s CPU      0.90s WALL (       7 calls)

     Called by c_bands:
     init_us_2    :      0.08s CPU      0.06s WALL (      15 calls)
     regterg      :      3.96s CPU      3.97s WALL (       7 calls)

     Called by *egterg:
     h_psi        :      3.43s CPU      3.53s WALL (      45 calls)
     s_psi        :      0.11s CPU      0.06s WALL (      45 calls)
     g_psi        :      0.05s CPU      0.05s WALL (      37 calls)
     rdiaghg      :      0.02s CPU      0.03s WALL (      44 calls)

     Called by h_psi:
     add_vuspsi   :      0.06s CPU      0.06s WALL (      45 calls)

     General routines
     calbec       :      0.05s CPU      0.09s WALL (      56 calls)
     fft          :      7.32s CPU      7.38s WALL (     128 calls)
     ffts         :      0.34s CPU      0.33s WALL (      15 calls)
     fftw         :      3.19s CPU      3.29s WALL (     262 calls)
     interpolate  :      1.30s CPU      1.42s WALL (      15 calls)
     davcio       :      0.00s CPU      0.00s WALL (       7 calls)

     EXX routines

     PWSCF        :    31.89s CPU        33.70s WALL


   This run was terminated on:  22:24:39  23Apr2012            

=------------------------------------------------------------------------------=
   JOB DONE.
=------------------------------------------------------------------------------=
