
     Program PWSCF v.5.2.0 starts on 20Jul2015 at 23: 3: 7 

     This program is part of the open-source Quantum ESPRESSO suite
     for quantum simulation of materials; please cite
         "P. Giannozzi et al., J. Phys.:Condens. Matter 21 395502 (2009);
          URL http://www.quantum-espresso.org", 
     in publications or presentations arising from this work. More details at
     http://www.quantum-espresso.org/quote

     Parallel version (MPI), running on     1 processors
     Waiting for input...
     Reading input from standard input
     Message from routine read_cards :
     DEPRECATED: no units specified in ATOMIC_POSITIONS card
     Message from routine read_cards :
     ATOMIC_POSITIONS: units set to alat

     Current dimensions of program PWSCF are:
     Max number of different atomic species (ntypx) = 10
     Max number of k-points (npk) =  40000
     Max angular momentum in pseudopotentials (lmaxx) =  3

     gamma-point specific algorithms are used

     Subspace diagonalization in iterative solution of the eigenvalue problem:
     a serial algorithm will be used


     G-vector sticks info
     --------------------
     sticks:   dense  smooth     PW     G-vecs:    dense   smooth      PW
     Sum        6369    3181    793               458581   162113   20303
     Tot        3185    1591    397



     bravais-lattice index     =            6
     lattice parameter (alat)  =      20.0000  a.u.
     unit-cell volume          =    9600.0000 (a.u.)^3
     number of atoms/cell      =            3
     number of atomic types    =            2
     number of electrons       =         8.00
     number of Kohn-Sham states=            8
     kinetic-energy cutoff     =      25.0000  Ry
     charge density cutoff     =     200.0000  Ry
     convergence threshold     =      1.0E-06
     mixing beta               =       0.3000
     number of iterations used =            8  plain     mixing
     Exchange-correlation      =  SLA  PW   PBE  PBE ( 1  4  3  4 0 0)

     Effective Screening Medium Method
     =================================
     Ordinary Periodic Boundary Conditions
     grid points for fit at edges     =        4 


     celldm(1)=  20.000000  celldm(2)=   0.000000  celldm(3)=   1.200000
     celldm(4)=   0.000000  celldm(5)=   0.000000  celldm(6)=   0.000000

     crystal axes: (cart. coord. in units of alat)
               a(1) = (   1.000000   0.000000   0.000000 )  
               a(2) = (   0.000000   1.000000   0.000000 )  
               a(3) = (   0.000000   0.000000   1.200000 )  

     reciprocal axes: (cart. coord. in units 2 pi/alat)
               b(1) = (  1.000000  0.000000  0.000000 )  
               b(2) = (  0.000000  1.000000  0.000000 )  
               b(3) = (  0.000000  0.000000  0.833333 )  


     PseudoPot. # 1 for H  read from file:
     /Users/otani/espresso-5.2.0_20150714/pseudo/H.pbe-van_ak.UPF
     MD5 check sum: 077eb6d537518a38cb46c6de387227b7
     Pseudo is Ultrasoft, Zval =  1.0
     Generated by new atomic code, or converted to UPF format
     Using radial grid of  615 points,  1 beta functions with: 
                l(1) =   0
     Q(r) pseudized with  8 coefficients,  rinner =    0.800

     PseudoPot. # 2 for O  read from file:
     /Users/otani/espresso-5.2.0_20150714/pseudo/O.pbe-van_ak.UPF
     MD5 check sum: 78c19812648e8988a0fe644b0f25305e
     Pseudo is Ultrasoft, Zval =  6.0
     Generated by new atomic code, or converted to UPF format
     Using radial grid of  737 points,  4 beta functions with: 
                l(1) =   0
                l(2) =   0
                l(3) =   1
                l(4) =   1
     Q(r) pseudized with  8 coefficients,  rinner =    0.800   0.800   0.800


     atomic species   valence    mass     pseudopotential
        H              1.00     1.00794     H ( 1.00)
        O              6.00    55.84700     O ( 1.00)

     No symmetry found



   Cartesian axes

     site n.     atom                  positions (alat units)
         1           O   tau(   1) = (   0.0000000   0.5000000   0.0000000  )
         2           H   tau(   2) = (   0.0431388   0.4310286   0.0430783  )
         3           H   tau(   3) = (   0.0366354   0.5764064   0.0359492  )

     number of k points=     1  gaussian smearing, width (Ry)=  0.0300
                       cart. coord. in units 2pi/alat
        k(    1) = (   0.0000000   0.0000000   0.0000000), wk =   2.0000000

     Dense  grid:   229291 G-vectors     FFT dimensions: (  96,  96, 120)

     Smooth grid:    81057 G-vectors     FFT dimensions: (  64,  64,  80)

     Largest allocated arrays     est. size (Mb)     dimensions
        Kohn-Sham Wavefunctions         1.24 Mb     (   10152,    8)
        NL pseudopotentials             1.55 Mb     (   10152,   10)
        Each V/rho on FFT grid         16.88 Mb     ( 1105920)
        Each G-vector array             1.75 Mb     (  229291)
        G-vector shells                 0.10 Mb     (   12605)
     Largest temporary arrays     est. size (Mb)     dimensions
        Auxiliary wavefunctions         2.48 Mb     (   10152,   32)
        Each subspace H/S matrix        0.01 Mb     (      32,   32)
        Each <psi_i|beta_j> matrix      0.00 Mb     (      10,    8)
        Arrays for rho mixing         135.00 Mb     ( 1105920,    8)

     Initial potential from superposition of free atoms
     Check: negative starting charge=   -0.002904

     starting charge    7.99998, renormalised to    8.00000

     negative rho (up, down):  2.904E-03 0.000E+00
     Starting wfc are    6 randomized atomic wfcs +    2 random wfc

     total cpu time spent up to now is        1.9 secs

     Self-consistent Calculation

     iteration #  1     ecut=    25.00 Ry     beta=0.30
     Davidson diagonalization with overlap
     ethr =  1.00E-02,  avg # of iterations =  6.0

     negative rho (up, down):  2.996E-03 0.000E+00

     total cpu time spent up to now is        3.6 secs

     total energy              =     -34.38966993 Ry
     Harris-Foulkes estimate   =     -34.57127162 Ry
     estimated scf accuracy    <       0.44350780 Ry

     iteration #  2     ecut=    25.00 Ry     beta=0.30
     Davidson diagonalization with overlap
     ethr =  5.54E-03,  avg # of iterations =  2.0

     negative rho (up, down):  4.716E-03 0.000E+00

     total cpu time spent up to now is        5.2 secs

     total energy              =     -34.42644156 Ry
     Harris-Foulkes estimate   =     -34.44032332 Ry
     estimated scf accuracy    <       0.04598127 Ry

     iteration #  3     ecut=    25.00 Ry     beta=0.30
     Davidson diagonalization with overlap
     ethr =  5.75E-04,  avg # of iterations =  3.0

     negative rho (up, down):  9.167E-03 0.000E+00

     total cpu time spent up to now is        6.9 secs

     total energy              =     -34.43023651 Ry
     Harris-Foulkes estimate   =     -34.43418822 Ry
     estimated scf accuracy    <       0.01319291 Ry

     iteration #  4     ecut=    25.00 Ry     beta=0.30
     Davidson diagonalization with overlap
     ethr =  1.65E-04,  avg # of iterations =  2.0

     negative rho (up, down):  1.087E-02 0.000E+00

     total cpu time spent up to now is        8.5 secs

     total energy              =     -34.43049463 Ry
     Harris-Foulkes estimate   =     -34.43171872 Ry
     estimated scf accuracy    <       0.00294690 Ry

     iteration #  5     ecut=    25.00 Ry     beta=0.30
     Davidson diagonalization with overlap
     ethr =  3.68E-05,  avg # of iterations =  5.0

     negative rho (up, down):  9.298E-03 0.000E+00

     total cpu time spent up to now is       10.3 secs

     total energy              =     -34.43087858 Ry
     Harris-Foulkes estimate   =     -34.43089757 Ry
     estimated scf accuracy    <       0.00003341 Ry

     iteration #  6     ecut=    25.00 Ry     beta=0.30
     Davidson diagonalization with overlap
     ethr =  4.18E-07,  avg # of iterations =  5.0

     negative rho (up, down):  8.944E-03 0.000E+00

     total cpu time spent up to now is       12.0 secs

     total energy              =     -34.43088401 Ry
     Harris-Foulkes estimate   =     -34.43088400 Ry
     estimated scf accuracy    <       0.00000711 Ry

     iteration #  7     ecut=    25.00 Ry     beta=0.30
     Davidson diagonalization with overlap
     ethr =  8.89E-08,  avg # of iterations =  2.0

     negative rho (up, down):  8.730E-03 0.000E+00

     total cpu time spent up to now is       13.6 secs

     total energy              =     -34.43088422 Ry
     Harris-Foulkes estimate   =     -34.43088501 Ry
     estimated scf accuracy    <       0.00000134 Ry

     iteration #  8     ecut=    25.00 Ry     beta=0.30
     Davidson diagonalization with overlap
     ethr =  1.67E-08,  avg # of iterations =  2.0

     negative rho (up, down):  8.989E-03 0.000E+00

     total cpu time spent up to now is       15.1 secs

     End of self-consistent calculation

          k = 0.0000 0.0000 0.0000 ( 10152 PWs)   bands (ev):

   -25.2119 -12.9933  -9.1805  -7.1430  -1.0676  -0.0517   0.3745   0.4919

     the Fermi energy is    -3.8173 ev

!    total energy              =     -34.43088369 Ry
     Harris-Foulkes estimate   =     -34.43088436 Ry
     estimated scf accuracy    <       0.00000027 Ry

     The total energy is the sum of the following terms:

     one-electron contribution =     -65.54642861 Ry
     hartree contribution      =      34.21685771 Ry
     xc contribution           =      -8.40316940 Ry
     ewald contribution        =       5.30185662 Ry
     smearing contrib. (-TS)   =      -0.00000000 Ry

     convergence has been achieved in   8 iterations

     Forces acting on atoms (Ry/au):

     atom    1 type  2   force =    -0.00183649   -0.00032007   -0.00153277
     atom    2 type  1   force =     0.00089068   -0.00028832    0.00074851
     atom    3 type  1   force =     0.00094580    0.00060839    0.00078426

     Total force =     0.001371     Total SCF correction =     0.000069

     Writing output data file H2O_pbc.save

     init_run     :      1.66s CPU      1.84s WALL (       1 calls)
     electrons    :     12.04s CPU     13.33s WALL (       1 calls)
     forces       :      0.54s CPU      0.63s WALL (       1 calls)

     Called by init_run:
     wfcinit      :      0.05s CPU      0.05s WALL (       1 calls)
     potinit      :      0.93s CPU      1.02s WALL (       1 calls)

     Called by electrons:
     c_bands      :      1.32s CPU      1.39s WALL (       8 calls)
     sum_band     :      3.02s CPU      2.98s WALL (       8 calls)
     v_of_rho     :      5.85s CPU      6.44s WALL (       9 calls)
     newd         :      1.28s CPU      1.78s WALL (       9 calls)
     mix_rho      :      0.70s CPU      0.88s WALL (       8 calls)

     Called by c_bands:
     init_us_2    :      0.03s CPU      0.07s WALL (      17 calls)
     regterg      :      1.29s CPU      1.33s WALL (       8 calls)

     Called by sum_band:
     sum_band:bec :      0.00s CPU      0.00s WALL (       8 calls)
     addusdens    :      1.68s CPU      1.53s WALL (       8 calls)

     Called by *egterg:
     h_psi        :      1.18s CPU      1.21s WALL (      36 calls)
     s_psi        :      0.01s CPU      0.01s WALL (      36 calls)
     g_psi        :      0.01s CPU      0.01s WALL (      27 calls)
     rdiaghg      :      0.00s CPU      0.00s WALL (      35 calls)

     Called by h_psi:
     add_vuspsi   :      0.02s CPU      0.01s WALL (      36 calls)

     General routines
     calbec       :      0.02s CPU      0.02s WALL (      48 calls)
     fft          :      5.46s CPU      5.87s WALL (     143 calls)
     ffts         :      0.18s CPU      0.20s WALL (      17 calls)
     fftw         :      1.14s CPU      1.18s WALL (     240 calls)
     interpolate  :      0.92s CPU      1.05s WALL (      17 calls)
     davcio       :      0.00s CPU      0.00s WALL (       1 calls)

     Parallel routines
     fft_scatter  :      0.94s CPU      0.94s WALL (     400 calls)

     PWSCF        :    14.33s CPU        15.97s WALL


   This run was terminated on:  23: 3:23  20Jul2015            

=------------------------------------------------------------------------------=
   JOB DONE.
=------------------------------------------------------------------------------=
