
     Program PHONON v.5.0.2 starts on 25Jan2013 at 10:54:26 

     This program is part of the open-source Quantum ESPRESSO suite
     for quantum simulation of materials; please cite
         "P. Giannozzi et al., J. Phys.:Condens. Matter 21 395502 (2009);
          URL http://www.quantum-espresso.org", 
     in publications or presentations arising from this work. More details at
     http://www.quantum-espresso.org/quote.php

     Parallel version (MPI), running on     8 processors
     path-images division:  nimage    =       2
     R & G space division:  proc/nbgrp/npool/nimage =       4

   Info: using nr1, nr2, nr3 values from input

   Info: using nr1s, nr2s, nr3s values from input

     IMPORTANT: XC functional enforced from input :
     Exchange-correlation      =  SLA  PZ   NOGX NOGC ( 1 1 0 0 0)
     EXX-fraction              =        0.00
     Any further DFT definition will be discarded
     Please, verify this is what you really want


     Parallelization info
     --------------------
     sticks:   dense  smooth     PW     G-vecs:    dense   smooth      PW
     Min          60      60     20                  610      610     114
     Max          61      61     22                  613      613     115
     Sum         241     241     85                 2445     2445     459



     Dynamical matrices for ( 4, 4, 4)  uniform grid of q-points
     (   8q-points):
       N         xq(1)         xq(2)         xq(3) 
       1   0.000000000   0.000000000   0.000000000
       2  -0.250000000   0.250000000  -0.250000000
       3   0.500000000  -0.500000000   0.500000000
       4   0.000000000   0.500000000   0.000000000
       5   0.750000000  -0.250000000   0.750000000
       6   0.500000000   0.000000000   0.500000000
       7   0.000000000  -1.000000000   0.000000000
       8  -0.500000000  -1.000000000   0.000000000

      Image parallelization. There are  2 images and    38 representations
      The estimated total work is   336 self-consistent (scf) runs
      I am image number     0 and my work is about  165 scf runs. I calculate: 
      q point number     1, representations:
       0 1 2
      q point number     2, representations:
       0 1 2 3 4
      q point number     3, representations:
       0 1 2 3 4
      q point number     4, representations:
       0 1 2 3 4 5 6
      q point number     5, representations:
       0 1 2 3 4

     Calculation of q =    0.0000000   0.0000000   0.0000000

                                                                                

     bravais-lattice index     =            2
     lattice parameter (alat)  =      10.5000  a.u.
     unit-cell volume          =     289.4063 (a.u.)^3
     number of atoms/cell      =            2
     number of atomic types    =            2
     kinetic-energy cut-off    =      16.0000  Ry
     charge density cut-off    =      64.0000  Ry
     convergence threshold     =      1.0E-12
     beta                      =       0.7000
     number of iterations used =            4
     Exchange-correlation      =  SLA  PZ   NOGX NOGC ( 1 1 0 0 0)
     EXX-fraction              =        0.00


     celldm(1)=   10.50000  celldm(2)=    0.00000  celldm(3)=    0.00000
     celldm(4)=    0.00000  celldm(5)=    0.00000  celldm(6)=    0.00000

     crystal axes: (cart. coord. in units of alat)
               a(1) = ( -0.5000  0.0000  0.5000 )  
               a(2) = (  0.0000  0.5000  0.5000 )  
               a(3) = ( -0.5000  0.5000  0.0000 )  

     reciprocal axes: (cart. coord. in units 2 pi/alat)
               b(1) = ( -1.0000 -1.0000  1.0000 )  
               b(2) = (  1.0000  1.0000  1.0000 )  
               b(3) = ( -1.0000  1.0000 -1.0000 )  


     Atoms inside the unit cell: 

     Cartesian axes

     site n.  atom      mass           positions (alat units)
        1     Al  26.9800   tau(    1) = (    0.00000    0.00000    0.00000  )
        2     As  74.9200   tau(    2) = (    0.25000    0.25000    0.25000  )

     Computing dynamical matrix for 
                    q = (   0.0000000   0.0000000   0.0000000 )

     25 Sym.Ops. (with q -> -q+G )


     G cutoff =  178.7306  (    611 G-vectors)     FFT grid: ( 20, 20, 20)
     number of k points=     2

     PseudoPot. # 1 for Al read from file:
     /scratch/dalcorso_sissa/espresso/pseudo/Al.pz-vbc.UPF
     MD5 check sum: 614279c88ff8d45c90147292d03ed420
     Pseudo is Norm-conserving, Zval =  3.0
     Generated by new atomic code, or converted to UPF format
     Using radial grid of  171 points,  2 beta functions with: 
                l(1) =   0
                l(2) =   1

     PseudoPot. # 2 for As read from file:
     /scratch/dalcorso_sissa/espresso/pseudo/As.pz-bhs.UPF
     MD5 check sum: 451cd3365afcfc94d28b1934951c34a8
     Pseudo is Norm-conserving, Zval =  5.0
     Generated by new atomic code, or converted to UPF format
     Using radial grid of  525 points,  2 beta functions with: 
                l(1) =   0
                l(2) =   1


     Electric field:
     Dielectric constant
     Born effective charges in two ways 


     Atomic displacements:
     There are   2 irreducible representations

     Representation     1      3 modes -T_2  G_15 P_4  To be done

     Representation     2      3 modes -T_2  G_15 P_4  To be done



     Alpha used in Ewald sum =   0.7000
     PHONON       :     0.40s CPU         0.44s WALL


     Electric Fields Calculation

      iter #   1 total cpu time :     0.6 secs   av.it.:   6.0
      thresh= 1.000E-02 alpha_mix =  0.700 |ddv_scf|^2 =  1.326E-06

      iter #   2 total cpu time :     0.7 secs   av.it.:   9.3
      thresh= 1.152E-04 alpha_mix =  0.700 |ddv_scf|^2 =  6.508E-08

      iter #   3 total cpu time :     0.7 secs   av.it.:   9.3
      thresh= 2.551E-05 alpha_mix =  0.700 |ddv_scf|^2 =  6.400E-10

      iter #   4 total cpu time :     0.8 secs   av.it.:   9.8
      thresh= 2.530E-06 alpha_mix =  0.700 |ddv_scf|^2 =  3.108E-12

      iter #   5 total cpu time :     0.9 secs   av.it.:   8.8
      thresh= 1.763E-07 alpha_mix =  0.700 |ddv_scf|^2 =  1.544E-14

     End of electric fields calculation

          Dielectric constant in cartesian axis 

          (      13.742266399       0.000000000      -0.000000000 )
          (       0.000000000      13.742266399      -0.000000000 )
          (       0.000000000      -0.000000000      13.742266399 )

          Effective charges (d Force / dE) in cartesian axis

           atom      1   Al 
      Ex  (        1.88294        0.00000       -0.00000 )
      Ey  (        0.00000        1.88294       -0.00000 )
      Ez  (       -0.00000       -0.00000        1.88294 )
           atom      2   As 
      Ex  (       -3.23358        0.00000        0.00000 )
      Ey  (        0.00000       -3.23358        0.00000 )
      Ez  (        0.00000        0.00000       -3.23358 )


     Representation #  1 modes #   1  2  3

     Self-consistent Calculation

      iter #   1 total cpu time :     1.0 secs   av.it.:   5.7
      thresh= 1.000E-02 alpha_mix =  0.700 |ddv_scf|^2 =  4.661E-07

      iter #   2 total cpu time :     1.1 secs   av.it.:   9.7
      thresh= 6.827E-05 alpha_mix =  0.700 |ddv_scf|^2 =  2.268E-08

      iter #   3 total cpu time :     1.2 secs   av.it.:   9.7
      thresh= 1.506E-05 alpha_mix =  0.700 |ddv_scf|^2 =  3.805E-11

      iter #   4 total cpu time :     1.3 secs   av.it.:   9.5
      thresh= 6.168E-07 alpha_mix =  0.700 |ddv_scf|^2 =  7.135E-13

     End of self-consistent calculation

     Convergence has been achieved 


     Representation #  2 modes #   4  5  6

     Self-consistent Calculation

      iter #   1 total cpu time :     1.4 secs   av.it.:   5.0
      thresh= 1.000E-02 alpha_mix =  0.700 |ddv_scf|^2 =  2.910E-08

      iter #   2 total cpu time :     1.5 secs   av.it.:   9.8
      thresh= 1.706E-05 alpha_mix =  0.700 |ddv_scf|^2 =  3.252E-10

      iter #   3 total cpu time :     1.6 secs   av.it.:   9.5
      thresh= 1.803E-06 alpha_mix =  0.700 |ddv_scf|^2 =  3.009E-11

      iter #   4 total cpu time :     1.6 secs   av.it.:   9.5
      thresh= 5.485E-07 alpha_mix =  0.700 |ddv_scf|^2 =  1.296E-12

      iter #   5 total cpu time :     1.7 secs   av.it.:   9.5
      thresh= 1.139E-07 alpha_mix =  0.700 |ddv_scf|^2 =  4.619E-16

     End of self-consistent calculation

     Convergence has been achieved 

     Number of q in the star =    1
     List of q in the star:
          1   0.000000000   0.000000000   0.000000000

          Dielectric constant in cartesian axis 

          (      13.742266399       0.000000000      -0.000000000 )
          (       0.000000000      13.742266399      -0.000000000 )
          (       0.000000000      -0.000000000      13.742266399 )

          Effective charges (d Force / dE) in cartesian axis

           atom      1   Al 
      Ex  (        1.88294        0.00000       -0.00000 )
      Ey  (        0.00000        1.88294       -0.00000 )
      Ez  (       -0.00000       -0.00000        1.88294 )
           atom      2   As 
      Ex  (       -3.23358        0.00000        0.00000 )
      Ey  (        0.00000       -3.23358        0.00000 )
      Ez  (        0.00000        0.00000       -3.23358 )

     Diagonalizing the dynamical matrix

     q = (    0.000000000   0.000000000   0.000000000 ) 

 **************************************************************************
     omega(    1) =       0.208030 [THz] =       6.939128 [cm-1]
     omega(    2) =       0.208030 [THz] =       6.939128 [cm-1]
     omega(    3) =       0.208030 [THz] =       6.939128 [cm-1]
     omega(    4) =      11.258361 [THz] =     375.538498 [cm-1]
     omega(    5) =      11.258361 [THz] =     375.538498 [cm-1]
     omega(    6) =      11.258361 [THz] =     375.538498 [cm-1]
 **************************************************************************

     Mode symmetry, T_d (-43m)  point group:

     omega(  1 -  3) =          6.9  [cm-1]   --> T_2  G_15 P_4   I+R
     omega(  4 -  6) =        375.5  [cm-1]   --> T_2  G_15 P_4   I+R

     Calculation of q =   -0.2500000   0.2500000  -0.2500000

     Parallelization info
     --------------------
     sticks:   dense  smooth     PW     G-vecs:    dense   smooth      PW
     Min          60      60     21                  610      610     132
     Max          61      61     22                  613      613     135
     Sum         241     241     85                 2445     2445     531



     bravais-lattice index     =            2
     lattice parameter (alat)  =      10.5000  a.u.
     unit-cell volume          =     289.4063 (a.u.)^3
     number of atoms/cell      =            2
     number of atomic types    =            2
     number of electrons       =         8.00
     number of Kohn-Sham states=            4
     kinetic-energy cutoff     =      16.0000  Ry
     charge density cutoff     =      64.0000  Ry
     Exchange-correlation      =  SLA  PZ   NOGX NOGC ( 1 1 0 0 0)
     EXX-fraction              =        0.00

     celldm(1)=  10.500000  celldm(2)=   0.000000  celldm(3)=   0.000000
     celldm(4)=   0.000000  celldm(5)=   0.000000  celldm(6)=   0.000000

     crystal axes: (cart. coord. in units of alat)
               a(1) = (  -0.500000   0.000000   0.500000 )  
               a(2) = (   0.000000   0.500000   0.500000 )  
               a(3) = (  -0.500000   0.500000   0.000000 )  

     reciprocal axes: (cart. coord. in units 2 pi/alat)
               b(1) = ( -1.000000 -1.000000  1.000000 )  
               b(2) = (  1.000000  1.000000  1.000000 )  
               b(3) = ( -1.000000  1.000000 -1.000000 )  


     PseudoPot. # 1 for Al read from file:
     /scratch/dalcorso_sissa/espresso/pseudo/Al.pz-vbc.UPF
     MD5 check sum: 614279c88ff8d45c90147292d03ed420
     Pseudo is Norm-conserving, Zval =  3.0
     Generated by new atomic code, or converted to UPF format
     Using radial grid of  171 points,  2 beta functions with: 
                l(1) =   0
                l(2) =   1

     PseudoPot. # 2 for As read from file:
     /scratch/dalcorso_sissa/espresso/pseudo/As.pz-bhs.UPF
     MD5 check sum: 451cd3365afcfc94d28b1934951c34a8
     Pseudo is Norm-conserving, Zval =  5.0
     Generated by new atomic code, or converted to UPF format
     Using radial grid of  525 points,  2 beta functions with: 
                l(1) =   0
                l(2) =   1

     atomic species   valence    mass     pseudopotential
        Al             3.00    26.98000     Al( 1.00)
        As             5.00    74.92000     As( 1.00)

     24 Sym. Ops. (no inversion) found



   Cartesian axes

     site n.     atom                  positions (alat units)
         1           Al  tau(   1) = (   0.0000000   0.0000000   0.0000000  )
         2           As  tau(   2) = (   0.2500000   0.2500000   0.2500000  )

     number of k points=    20
                       cart. coord. in units 2pi/alat
        k(    1) = (   0.2500000   0.2500000   0.2500000), wk =   0.1875000
        k(    2) = (   0.0000000   0.5000000   0.0000000), wk =   0.0000000
        k(    3) = (   0.2500000   0.2500000   0.7500000), wk =   0.3750000
        k(    4) = (   0.0000000   0.5000000   0.5000000), wk =   0.0000000
        k(    5) = (  -0.2500000   0.2500000  -0.2500000), wk =   0.0625000
        k(    6) = (  -0.5000000   0.5000000  -0.5000000), wk =   0.0000000
        k(    7) = (  -0.2500000  -0.2500000  -0.2500000), wk =   0.1875000
        k(    8) = (  -0.5000000   0.0000000  -0.5000000), wk =   0.0000000
        k(    9) = (   0.2500000  -0.2500000   0.2500000), wk =   0.0625000
        k(   10) = (   0.0000000   0.0000000   0.0000000), wk =   0.0000000
        k(   11) = (  -0.7500000  -0.2500000   0.2500000), wk =   0.1875000
        k(   12) = (  -1.0000000   0.0000000   0.0000000), wk =   0.0000000
        k(   13) = (  -0.7500000   0.2500000  -0.2500000), wk =   0.1875000
        k(   14) = (  -1.0000000   0.5000000  -0.5000000), wk =   0.0000000
        k(   15) = (  -0.2500000  -0.2500000  -0.7500000), wk =   0.3750000
        k(   16) = (  -0.5000000   0.0000000  -1.0000000), wk =   0.0000000
        k(   17) = (   0.2500000  -0.2500000   0.7500000), wk =   0.1875000
        k(   18) = (   0.0000000   0.0000000   0.5000000), wk =   0.0000000
        k(   19) = (  -0.2500000   0.2500000   0.7500000), wk =   0.1875000
        k(   20) = (  -0.5000000   0.5000000   0.5000000), wk =   0.0000000

     Dense  grid:     2445 G-vectors     FFT dimensions: (  20,  20,  20)

     Largest allocated arrays     est. size (Mb)     dimensions
        Kohn-Sham Wavefunctions         0.01 Mb     (     82,    4)
        NL pseudopotentials             0.01 Mb     (     82,    8)
        Each V/rho on FFT grid          0.03 Mb     (   2000)
        Each G-vector array             0.00 Mb     (    611)
        G-vector shells                 0.00 Mb     (     60)
     Largest temporary arrays     est. size (Mb)     dimensions
        Auxiliary wavefunctions         0.02 Mb     (     82,   16)
        Each subspace H/S matrix        0.00 Mb     (  16,  16)
        Each <psi_i|beta_j> matrix      0.00 Mb     (      8,    4)

     The potential is recalculated from file :
     /scratch/tmp/_ph0/alas.save/charge-density.dat

     Starting wfc are    8 atomic wfcs

     total cpu time spent up to now is        0.0 secs

     per-process dynamical memory:     5.3 Mb

     Band Structure Calculation
     Davidson diagonalization with overlap

     ethr =  1.25E-10,  avg # of iterations = 11.0

     total cpu time spent up to now is        0.3 secs

     End of band structure calculation

          k = 0.2500 0.2500 0.2500     band energies (ev):

    -6.3572   1.7036   4.6972   4.6972

          k = 0.0000 0.5000 0.0000     band energies (ev):

    -6.1427   1.9398   3.7849   3.7849

          k = 0.2500 0.2500 0.7500     band energies (ev):

    -5.1816  -0.0414   2.3127   3.5087

          k = 0.0000 0.5000 0.5000     band energies (ev):

    -5.5284   0.5006   2.1486   4.2665

          k =-0.2500 0.2500-0.2500     band energies (ev):

    -6.3572   1.7036   4.6972   4.6972

          k =-0.5000 0.5000-0.5000     band energies (ev):

    -5.4215  -0.6402   4.3485   4.3485

          k =-0.2500-0.2500-0.2500     band energies (ev):

    -6.3572   1.7036   4.6972   4.6972

          k =-0.5000 0.0000-0.5000     band energies (ev):

    -5.5284   0.5006   2.1486   4.2665

          k = 0.2500-0.2500 0.2500     band energies (ev):

    -6.3572   1.7036   4.6972   4.6972

          k = 0.0000 0.0000 0.0000     band energies (ev):

    -6.9794   5.1763   5.1763   5.1763

          k =-0.7500-0.2500 0.2500     band energies (ev):

    -5.1816  -0.0414   2.3127   3.5087

          k =-1.0000 0.0000 0.0000     band energies (ev):

    -4.8213  -0.4470   2.9275   2.9275

          k =-0.7500 0.2500-0.2500     band energies (ev):

    -5.1816  -0.0414   2.3127   3.5087

          k =-1.0000 0.5000-0.5000     band energies (ev):

    -5.5284   0.5006   2.1486   4.2665

          k =-0.2500-0.2500-0.7500     band energies (ev):

    -5.1816  -0.0414   2.3127   3.5087

          k =-0.5000 0.0000-1.0000     band energies (ev):

    -4.7849  -0.0517   1.7951   2.1911

          k = 0.2500-0.2500 0.7500     band energies (ev):

    -5.1816  -0.0414   2.3127   3.5087

          k = 0.0000 0.0000 0.5000     band energies (ev):

    -6.1427   1.9398   3.7849   3.7849

          k =-0.2500 0.2500 0.7500     band energies (ev):

    -5.1816  -0.0414   2.3127   3.5087

          k =-0.5000 0.5000 0.5000     band energies (ev):

    -5.4215  -0.6402   4.3485   4.3485

     Writing output data file alas.save

                                                                                

     bravais-lattice index     =            2
     lattice parameter (alat)  =      10.5000  a.u.
     unit-cell volume          =     289.4063 (a.u.)^3
     number of atoms/cell      =            2
     number of atomic types    =            2
     kinetic-energy cut-off    =      16.0000  Ry
     charge density cut-off    =      64.0000  Ry
     convergence threshold     =      1.0E-12
     beta                      =       0.7000
     number of iterations used =            4
     Exchange-correlation      =  SLA  PZ   NOGX NOGC ( 1 1 0 0 0)
     EXX-fraction              =        0.00


     celldm(1)=   10.50000  celldm(2)=    0.00000  celldm(3)=    0.00000
     celldm(4)=    0.00000  celldm(5)=    0.00000  celldm(6)=    0.00000

     crystal axes: (cart. coord. in units of alat)
               a(1) = ( -0.5000  0.0000  0.5000 )  
               a(2) = (  0.0000  0.5000  0.5000 )  
               a(3) = ( -0.5000  0.5000  0.0000 )  

     reciprocal axes: (cart. coord. in units 2 pi/alat)
               b(1) = ( -1.0000 -1.0000  1.0000 )  
               b(2) = (  1.0000  1.0000  1.0000 )  
               b(3) = ( -1.0000  1.0000 -1.0000 )  


     Atoms inside the unit cell: 

     Cartesian axes

     site n.  atom      mass           positions (alat units)
        1     Al  26.9800   tau(    1) = (    0.00000    0.00000    0.00000  )
        2     As  74.9200   tau(    2) = (    0.25000    0.25000    0.25000  )

     Computing dynamical matrix for 
                    q = (  -0.2500000   0.2500000  -0.2500000 )

      6 Sym.Ops. (no q -> -q+G )


     G cutoff =  178.7306  (    611 G-vectors)     FFT grid: ( 20, 20, 20)
     number of k points=    20

     PseudoPot. # 1 for Al read from file:
     /scratch/dalcorso_sissa/espresso/pseudo/Al.pz-vbc.UPF
     MD5 check sum: 614279c88ff8d45c90147292d03ed420
     Pseudo is Norm-conserving, Zval =  3.0
     Generated by new atomic code, or converted to UPF format
     Using radial grid of  171 points,  2 beta functions with: 
                l(1) =   0
                l(2) =   1

     PseudoPot. # 2 for As read from file:
     /scratch/dalcorso_sissa/espresso/pseudo/As.pz-bhs.UPF
     MD5 check sum: 451cd3365afcfc94d28b1934951c34a8
     Pseudo is Norm-conserving, Zval =  5.0
     Generated by new atomic code, or converted to UPF format
     Using radial grid of  525 points,  2 beta functions with: 
                l(1) =   0
                l(2) =   1


     Atomic displacements:
     There are   4 irreducible representations

     Representation     1      1 modes -A_1  L_1  To be done

     Representation     2      1 modes -A_1  L_1  To be done

     Representation     3      2 modes -E    L_3  To be done

     Representation     4      2 modes -E    L_3  To be done



     Alpha used in Ewald sum =   0.7000
     PHONON       :     1.99s CPU         2.21s WALL



     Representation #  1 mode #   1

     Self-consistent Calculation

      iter #   1 total cpu time :     2.3 secs   av.it.:   6.2
      thresh= 1.000E-02 alpha_mix =  0.700 |ddv_scf|^2 =  3.084E-03

      iter #   2 total cpu time :     2.4 secs   av.it.:   7.6
      thresh= 5.553E-03 alpha_mix =  0.700 |ddv_scf|^2 =  2.964E-02

      iter #   3 total cpu time :     2.4 secs   av.it.:   6.8
      thresh= 1.000E-02 alpha_mix =  0.700 |ddv_scf|^2 =  6.298E-06

      iter #   4 total cpu time :     2.5 secs   av.it.:   7.2
      thresh= 2.510E-04 alpha_mix =  0.700 |ddv_scf|^2 =  1.376E-07

      iter #   5 total cpu time :     2.6 secs   av.it.:   7.6
      thresh= 3.709E-05 alpha_mix =  0.700 |ddv_scf|^2 =  6.411E-09

      iter #   6 total cpu time :     2.7 secs   av.it.:   6.9
      thresh= 8.007E-06 alpha_mix =  0.700 |ddv_scf|^2 =  4.614E-10

      iter #   7 total cpu time :     2.7 secs   av.it.:   7.2
      thresh= 2.148E-06 alpha_mix =  0.700 |ddv_scf|^2 =  3.659E-11

      iter #   8 total cpu time :     2.8 secs   av.it.:   7.2
      thresh= 6.049E-07 alpha_mix =  0.700 |ddv_scf|^2 =  2.527E-13

     End of self-consistent calculation

     Convergence has been achieved 


     Representation #  2 mode #   2

     Self-consistent Calculation

      iter #   1 total cpu time :     2.9 secs   av.it.:   5.6
      thresh= 1.000E-02 alpha_mix =  0.700 |ddv_scf|^2 =  6.517E-04

      iter #   2 total cpu time :     3.0 secs   av.it.:   7.6
      thresh= 2.553E-03 alpha_mix =  0.700 |ddv_scf|^2 =  5.932E-03

      iter #   3 total cpu time :     3.0 secs   av.it.:   6.2
      thresh= 7.702E-03 alpha_mix =  0.700 |ddv_scf|^2 =  2.181E-07

      iter #   4 total cpu time :     3.1 secs   av.it.:   8.2
      thresh= 4.671E-05 alpha_mix =  0.700 |ddv_scf|^2 =  8.473E-09

      iter #   5 total cpu time :     3.2 secs   av.it.:   8.0
      thresh= 9.205E-06 alpha_mix =  0.700 |ddv_scf|^2 =  2.616E-09

      iter #   6 total cpu time :     3.3 secs   av.it.:   6.9
      thresh= 5.115E-06 alpha_mix =  0.700 |ddv_scf|^2 =  2.296E-10

      iter #   7 total cpu time :     3.4 secs   av.it.:   7.6
      thresh= 1.515E-06 alpha_mix =  0.700 |ddv_scf|^2 =  1.880E-11

      iter #   8 total cpu time :     3.4 secs   av.it.:   7.5
      thresh= 4.336E-07 alpha_mix =  0.700 |ddv_scf|^2 =  4.379E-13

     End of self-consistent calculation

     Convergence has been achieved 


     Representation #  3 modes #   3  4

     Self-consistent Calculation

      iter #   1 total cpu time :     3.6 secs   av.it.:   5.9
      thresh= 1.000E-02 alpha_mix =  0.700 |ddv_scf|^2 =  1.311E-06

      iter #   2 total cpu time :     3.8 secs   av.it.:   9.2
      thresh= 1.145E-04 alpha_mix =  0.700 |ddv_scf|^2 =  9.098E-08

      iter #   3 total cpu time :     3.9 secs   av.it.:   9.2
      thresh= 3.016E-05 alpha_mix =  0.700 |ddv_scf|^2 =  8.892E-11

      iter #   4 total cpu time :     4.1 secs   av.it.:   9.2
      thresh= 9.430E-07 alpha_mix =  0.700 |ddv_scf|^2 =  1.656E-12

      iter #   5 total cpu time :     4.3 secs   av.it.:   9.1
      thresh= 1.287E-07 alpha_mix =  0.700 |ddv_scf|^2 =  1.867E-14

     End of self-consistent calculation

     Convergence has been achieved 


     Representation #  4 modes #   5  6

     Self-consistent Calculation

      iter #   1 total cpu time :     4.4 secs   av.it.:   5.0
      thresh= 1.000E-02 alpha_mix =  0.700 |ddv_scf|^2 =  1.108E-07

      iter #   2 total cpu time :     4.6 secs   av.it.:   9.4
      thresh= 3.328E-05 alpha_mix =  0.700 |ddv_scf|^2 =  4.510E-09

      iter #   3 total cpu time :     4.8 secs   av.it.:   9.2
      thresh= 6.716E-06 alpha_mix =  0.700 |ddv_scf|^2 =  1.324E-10

      iter #   4 total cpu time :     5.0 secs   av.it.:   9.1
      thresh= 1.150E-06 alpha_mix =  0.700 |ddv_scf|^2 =  6.944E-12

      iter #   5 total cpu time :     5.1 secs   av.it.:   8.9
      thresh= 2.635E-07 alpha_mix =  0.700 |ddv_scf|^2 =  1.136E-15

     End of self-consistent calculation

     Convergence has been achieved 

     Number of q in the star =    4
     List of q in the star:
          1  -0.250000000   0.250000000  -0.250000000
          2   0.250000000  -0.250000000  -0.250000000
          3  -0.250000000  -0.250000000   0.250000000
          4   0.250000000   0.250000000   0.250000000
     In addition there is the -q list: 
          1   0.250000000  -0.250000000   0.250000000
          2  -0.250000000   0.250000000   0.250000000
          3   0.250000000   0.250000000  -0.250000000
          4  -0.250000000  -0.250000000  -0.250000000

     Diagonalizing the dynamical matrix

     q = (   -0.250000000   0.250000000  -0.250000000 ) 

 **************************************************************************
     omega(    1) =       1.767015 [THz] =      58.941293 [cm-1]
     omega(    2) =       1.767015 [THz] =      58.941293 [cm-1]
     omega(    3) =       4.537017 [THz] =     151.338610 [cm-1]
     omega(    4) =      11.004503 [THz] =     367.070710 [cm-1]
     omega(    5) =      11.004503 [THz] =     367.070710 [cm-1]
     omega(    6) =      12.135803 [THz] =     404.806812 [cm-1]
 **************************************************************************

     Mode symmetry, C_3v (3m)   point group:

     omega(  1 -  2) =         58.9  [cm-1]   --> E    L_3           
     omega(  3 -  3) =        151.3  [cm-1]   --> A_1  L_1           
     omega(  4 -  5) =        367.1  [cm-1]   --> E    L_3           
     omega(  6 -  6) =        404.8  [cm-1]   --> A_1  L_1           

     Calculation of q =    0.5000000  -0.5000000   0.5000000

     Parallelization info
     --------------------
     sticks:   dense  smooth     PW     G-vecs:    dense   smooth      PW
     Min          60      60     21                  610      610     133
     Max          61      61     22                  613      613     136
     Sum         241     241     85                 2445     2445     537



     bravais-lattice index     =            2
     lattice parameter (alat)  =      10.5000  a.u.
     unit-cell volume          =     289.4063 (a.u.)^3
     number of atoms/cell      =            2
     number of atomic types    =            2
     number of electrons       =         8.00
     number of Kohn-Sham states=            4
     kinetic-energy cutoff     =      16.0000  Ry
     charge density cutoff     =      64.0000  Ry
     Exchange-correlation      =  SLA  PZ   NOGX NOGC ( 1 1 0 0 0)
     EXX-fraction              =        0.00

     celldm(1)=  10.500000  celldm(2)=   0.000000  celldm(3)=   0.000000
     celldm(4)=   0.000000  celldm(5)=   0.000000  celldm(6)=   0.000000

     crystal axes: (cart. coord. in units of alat)
               a(1) = (  -0.500000   0.000000   0.500000 )  
               a(2) = (   0.000000   0.500000   0.500000 )  
               a(3) = (  -0.500000   0.500000   0.000000 )  

     reciprocal axes: (cart. coord. in units 2 pi/alat)
               b(1) = ( -1.000000 -1.000000  1.000000 )  
               b(2) = (  1.000000  1.000000  1.000000 )  
               b(3) = ( -1.000000  1.000000 -1.000000 )  


     PseudoPot. # 1 for Al read from file:
     /scratch/dalcorso_sissa/espresso/pseudo/Al.pz-vbc.UPF
     MD5 check sum: 614279c88ff8d45c90147292d03ed420
     Pseudo is Norm-conserving, Zval =  3.0
     Generated by new atomic code, or converted to UPF format
     Using radial grid of  171 points,  2 beta functions with: 
                l(1) =   0
                l(2) =   1

     PseudoPot. # 2 for As read from file:
     /scratch/dalcorso_sissa/espresso/pseudo/As.pz-bhs.UPF
     MD5 check sum: 451cd3365afcfc94d28b1934951c34a8
     Pseudo is Norm-conserving, Zval =  5.0
     Generated by new atomic code, or converted to UPF format
     Using radial grid of  525 points,  2 beta functions with: 
                l(1) =   0
                l(2) =   1

     atomic species   valence    mass     pseudopotential
        Al             3.00    26.98000     Al( 1.00)
        As             5.00    74.92000     As( 1.00)

     24 Sym. Ops. (no inversion) found



   Cartesian axes

     site n.     atom                  positions (alat units)
         1           Al  tau(   1) = (   0.0000000   0.0000000   0.0000000  )
         2           As  tau(   2) = (   0.2500000   0.2500000   0.2500000  )

     number of k points=    10
                       cart. coord. in units 2pi/alat
        k(    1) = (   0.2500000   0.2500000   0.2500000), wk =   0.3750000
        k(    2) = (   0.7500000  -0.2500000   0.7500000), wk =   0.0000000
        k(    3) = (   0.2500000   0.2500000   0.7500000), wk =   0.7500000
        k(    4) = (   0.7500000  -0.2500000   1.2500000), wk =   0.0000000
        k(    5) = (  -0.2500000   0.2500000  -0.2500000), wk =   0.1250000
        k(    6) = (   0.2500000  -0.2500000   0.2500000), wk =   0.0000000
        k(    7) = (  -0.7500000  -0.2500000   0.2500000), wk =   0.3750000
        k(    8) = (  -0.2500000  -0.7500000   0.7500000), wk =   0.0000000
        k(    9) = (  -0.7500000   0.2500000  -0.2500000), wk =   0.3750000
        k(   10) = (  -0.2500000  -0.2500000   0.2500000), wk =   0.0000000

     Dense  grid:     2445 G-vectors     FFT dimensions: (  20,  20,  20)

     Largest allocated arrays     est. size (Mb)     dimensions
        Kohn-Sham Wavefunctions         0.00 Mb     (     81,    4)
        NL pseudopotentials             0.01 Mb     (     81,    8)
        Each V/rho on FFT grid          0.03 Mb     (   2000)
        Each G-vector array             0.00 Mb     (    611)
        G-vector shells                 0.00 Mb     (     60)
     Largest temporary arrays     est. size (Mb)     dimensions
        Auxiliary wavefunctions         0.02 Mb     (     81,   16)
        Each subspace H/S matrix        0.00 Mb     (  16,  16)
        Each <psi_i|beta_j> matrix      0.00 Mb     (      8,    4)

     The potential is recalculated from file :
     /scratch/tmp/_ph0/alas.save/charge-density.dat

     Starting wfc are    8 atomic wfcs

     total cpu time spent up to now is        0.4 secs

     per-process dynamical memory:     8.3 Mb

     Band Structure Calculation
     Davidson diagonalization with overlap

     ethr =  1.25E-10,  avg # of iterations = 11.6

     total cpu time spent up to now is        0.5 secs

     End of band structure calculation

          k = 0.2500 0.2500 0.2500 (   311 PWs)   bands (ev):

    -6.3572   1.7036   4.6972   4.6972

          k = 0.7500-0.2500 0.7500 (   311 PWs)   bands (ev):

    -5.1816  -0.0414   2.3127   3.5087

          k = 0.2500 0.2500 0.7500 (   311 PWs)   bands (ev):

    -5.1816  -0.0414   2.3127   3.5087

          k = 0.7500-0.2500 1.2500 (   311 PWs)   bands (ev):

    -5.1816  -0.0414   2.3127   3.5087

          k =-0.2500 0.2500-0.2500 (   311 PWs)   bands (ev):

    -6.3572   1.7036   4.6972   4.6972

          k = 0.2500-0.2500 0.2500 (   311 PWs)   bands (ev):

    -6.3572   1.7036   4.6972   4.6972

          k =-0.7500-0.2500 0.2500 (   311 PWs)   bands (ev):

    -5.1816  -0.0414   2.3127   3.5087

          k =-0.2500-0.7500 0.7500 (   311 PWs)   bands (ev):

    -5.1816  -0.0414   2.3127   3.5087

          k =-0.7500 0.2500-0.2500 (   311 PWs)   bands (ev):

    -5.1816  -0.0414   2.3127   3.5087

          k =-0.2500-0.2500 0.2500 (   311 PWs)   bands (ev):

    -6.3572   1.7036   4.6972   4.6972

     Writing output data file alas.save

                                                                                

     bravais-lattice index     =            2
     lattice parameter (alat)  =      10.5000  a.u.
     unit-cell volume          =     289.4063 (a.u.)^3
     number of atoms/cell      =            2
     number of atomic types    =            2
     kinetic-energy cut-off    =      16.0000  Ry
     charge density cut-off    =      64.0000  Ry
     convergence threshold     =      1.0E-12
     beta                      =       0.7000
     number of iterations used =            4
     Exchange-correlation      =  SLA  PZ   NOGX NOGC ( 1 1 0 0 0)
     EXX-fraction              =        0.00


     celldm(1)=   10.50000  celldm(2)=    0.00000  celldm(3)=    0.00000
     celldm(4)=    0.00000  celldm(5)=    0.00000  celldm(6)=    0.00000

     crystal axes: (cart. coord. in units of alat)
               a(1) = ( -0.5000  0.0000  0.5000 )  
               a(2) = (  0.0000  0.5000  0.5000 )  
               a(3) = ( -0.5000  0.5000  0.0000 )  

     reciprocal axes: (cart. coord. in units 2 pi/alat)
               b(1) = ( -1.0000 -1.0000  1.0000 )  
               b(2) = (  1.0000  1.0000  1.0000 )  
               b(3) = ( -1.0000  1.0000 -1.0000 )  


     Atoms inside the unit cell: 

     Cartesian axes

     site n.  atom      mass           positions (alat units)
        1     Al  26.9800   tau(    1) = (    0.00000    0.00000    0.00000  )
        2     As  74.9200   tau(    2) = (    0.25000    0.25000    0.25000  )

     Computing dynamical matrix for 
                    q = (   0.5000000  -0.5000000   0.5000000 )

      7 Sym.Ops. (with q -> -q+G )


     G cutoff =  178.7306  (    611 G-vectors)     FFT grid: ( 20, 20, 20)
     number of k points=    10

     PseudoPot. # 1 for Al read from file:
     /scratch/dalcorso_sissa/espresso/pseudo/Al.pz-vbc.UPF
     MD5 check sum: 614279c88ff8d45c90147292d03ed420
     Pseudo is Norm-conserving, Zval =  3.0
     Generated by new atomic code, or converted to UPF format
     Using radial grid of  171 points,  2 beta functions with: 
                l(1) =   0
                l(2) =   1

     PseudoPot. # 2 for As read from file:
     /scratch/dalcorso_sissa/espresso/pseudo/As.pz-bhs.UPF
     MD5 check sum: 451cd3365afcfc94d28b1934951c34a8
     Pseudo is Norm-conserving, Zval =  5.0
     Generated by new atomic code, or converted to UPF format
     Using radial grid of  525 points,  2 beta functions with: 
                l(1) =   0
                l(2) =   1


     Atomic displacements:
     There are   4 irreducible representations

     Representation     1      1 modes -A_1  L_1  To be done

     Representation     2      1 modes -A_1  L_1  To be done

     Representation     3      2 modes -E    L_3  To be done

     Representation     4      2 modes -E    L_3  To be done



     Alpha used in Ewald sum =   0.7000
     PHONON       :     4.80s CPU         5.48s WALL



     Representation #  1 mode #   1

     Self-consistent Calculation

      iter #   1 total cpu time :     5.5 secs   av.it.:   6.2
      thresh= 1.000E-02 alpha_mix =  0.700 |ddv_scf|^2 =  3.570E-04

      iter #   2 total cpu time :     5.6 secs   av.it.:   8.2
      thresh= 1.889E-03 alpha_mix =  0.700 |ddv_scf|^2 =  1.022E-03

      iter #   3 total cpu time :     5.6 secs   av.it.:   7.4
      thresh= 3.198E-03 alpha_mix =  0.700 |ddv_scf|^2 =  5.287E-08

      iter #   4 total cpu time :     5.7 secs   av.it.:   8.0
      thresh= 2.299E-05 alpha_mix =  0.700 |ddv_scf|^2 =  8.135E-09

      iter #   5 total cpu time :     5.7 secs   av.it.:   7.4
      thresh= 9.019E-06 alpha_mix =  0.700 |ddv_scf|^2 =  4.322E-11

      iter #   6 total cpu time :     5.8 secs   av.it.:   8.4
      thresh= 6.574E-07 alpha_mix =  0.700 |ddv_scf|^2 =  4.540E-12

      iter #   7 total cpu time :     5.8 secs   av.it.:   8.0
      thresh= 2.131E-07 alpha_mix =  0.700 |ddv_scf|^2 =  8.125E-15

     End of self-consistent calculation

     Convergence has been achieved 


     Representation #  2 mode #   2

     Self-consistent Calculation

      iter #   1 total cpu time :     5.8 secs   av.it.:   5.4
      thresh= 1.000E-02 alpha_mix =  0.700 |ddv_scf|^2 =  5.801E-05

      iter #   2 total cpu time :     5.9 secs   av.it.:   8.2
      thresh= 7.616E-04 alpha_mix =  0.700 |ddv_scf|^2 =  1.452E-04

      iter #   3 total cpu time :     5.9 secs   av.it.:   7.4
      thresh= 1.205E-03 alpha_mix =  0.700 |ddv_scf|^2 =  6.724E-07

      iter #   4 total cpu time :     6.0 secs   av.it.:   7.6
      thresh= 8.200E-05 alpha_mix =  0.700 |ddv_scf|^2 =  4.026E-09

      iter #   5 total cpu time :     6.0 secs   av.it.:   8.0
      thresh= 6.345E-06 alpha_mix =  0.700 |ddv_scf|^2 =  7.130E-11

      iter #   6 total cpu time :     6.1 secs   av.it.:   8.4
      thresh= 8.444E-07 alpha_mix =  0.700 |ddv_scf|^2 =  1.225E-12

      iter #   7 total cpu time :     6.1 secs   av.it.:   8.2
      thresh= 1.107E-07 alpha_mix =  0.700 |ddv_scf|^2 =  2.296E-14

     End of self-consistent calculation

     Convergence has been achieved 


     Representation #  3 modes #   3  4

     Self-consistent Calculation

      iter #   1 total cpu time :     6.2 secs   av.it.:   6.2
      thresh= 1.000E-02 alpha_mix =  0.700 |ddv_scf|^2 =  1.539E-06

      iter #   2 total cpu time :     6.3 secs   av.it.:   9.2
      thresh= 1.241E-04 alpha_mix =  0.700 |ddv_scf|^2 =  1.304E-07

      iter #   3 total cpu time :     6.4 secs   av.it.:   9.1
      thresh= 3.610E-05 alpha_mix =  0.700 |ddv_scf|^2 =  8.950E-11

      iter #   4 total cpu time :     6.5 secs   av.it.:   9.2
      thresh= 9.460E-07 alpha_mix =  0.700 |ddv_scf|^2 =  7.013E-13

     End of self-consistent calculation

     Convergence has been achieved 


     Representation #  4 modes #   5  6

     Self-consistent Calculation

      iter #   1 total cpu time :     6.5 secs   av.it.:   4.8
      thresh= 1.000E-02 alpha_mix =  0.700 |ddv_scf|^2 =  1.481E-07

      iter #   2 total cpu time :     6.6 secs   av.it.:   9.0
      thresh= 3.848E-05 alpha_mix =  0.700 |ddv_scf|^2 =  8.849E-09

      iter #   3 total cpu time :     6.7 secs   av.it.:   9.0
      thresh= 9.407E-06 alpha_mix =  0.700 |ddv_scf|^2 =  1.468E-10

      iter #   4 total cpu time :     6.8 secs   av.it.:   9.1
      thresh= 1.212E-06 alpha_mix =  0.700 |ddv_scf|^2 =  7.514E-12

      iter #   5 total cpu time :     6.9 secs   av.it.:   8.3
      thresh= 2.741E-07 alpha_mix =  0.700 |ddv_scf|^2 =  2.666E-15

     End of self-consistent calculation

     Convergence has been achieved 

     Number of q in the star =    4
     List of q in the star:
          1   0.500000000  -0.500000000   0.500000000
          2  -0.500000000   0.500000000   0.500000000
          3   0.500000000   0.500000000  -0.500000000
          4  -0.500000000  -0.500000000  -0.500000000

     Diagonalizing the dynamical matrix

     q = (    0.500000000  -0.500000000   0.500000000 ) 

 **************************************************************************
     omega(    1) =       2.021584 [THz] =      67.432787 [cm-1]
     omega(    2) =       2.021584 [THz] =      67.432787 [cm-1]
     omega(    3) =       6.497150 [THz] =     216.721581 [cm-1]
     omega(    4) =      10.940501 [THz] =     364.935846 [cm-1]
     omega(    5) =      10.940501 [THz] =     364.935846 [cm-1]
     omega(    6) =      11.550408 [THz] =     385.280131 [cm-1]
 **************************************************************************

     Mode symmetry, C_3v (3m)   point group:

     omega(  1 -  2) =         67.4  [cm-1]   --> E    L_3           
     omega(  3 -  3) =        216.7  [cm-1]   --> A_1  L_1           
     omega(  4 -  5) =        364.9  [cm-1]   --> E    L_3           
     omega(  6 -  6) =        385.3  [cm-1]   --> A_1  L_1           

     Calculation of q =    0.0000000   0.5000000   0.0000000

     Parallelization info
     --------------------
     sticks:   dense  smooth     PW     G-vecs:    dense   smooth      PW
     Min          60      60     21                  610      610     132
     Max          61      61     22                  613      613     135
     Sum         241     241     85                 2445     2445     531



     bravais-lattice index     =            2
     lattice parameter (alat)  =      10.5000  a.u.
     unit-cell volume          =     289.4063 (a.u.)^3
     number of atoms/cell      =            2
     number of atomic types    =            2
     number of electrons       =         8.00
     number of Kohn-Sham states=            4
     kinetic-energy cutoff     =      16.0000  Ry
     charge density cutoff     =      64.0000  Ry
     Exchange-correlation      =  SLA  PZ   NOGX NOGC ( 1 1 0 0 0)
     EXX-fraction              =        0.00

     celldm(1)=  10.500000  celldm(2)=   0.000000  celldm(3)=   0.000000
     celldm(4)=   0.000000  celldm(5)=   0.000000  celldm(6)=   0.000000

     crystal axes: (cart. coord. in units of alat)
               a(1) = (  -0.500000   0.000000   0.500000 )  
               a(2) = (   0.000000   0.500000   0.500000 )  
               a(3) = (  -0.500000   0.500000   0.000000 )  

     reciprocal axes: (cart. coord. in units 2 pi/alat)
               b(1) = ( -1.000000 -1.000000  1.000000 )  
               b(2) = (  1.000000  1.000000  1.000000 )  
               b(3) = ( -1.000000  1.000000 -1.000000 )  


     PseudoPot. # 1 for Al read from file:
     /scratch/dalcorso_sissa/espresso/pseudo/Al.pz-vbc.UPF
     MD5 check sum: 614279c88ff8d45c90147292d03ed420
     Pseudo is Norm-conserving, Zval =  3.0
     Generated by new atomic code, or converted to UPF format
     Using radial grid of  171 points,  2 beta functions with: 
                l(1) =   0
                l(2) =   1

     PseudoPot. # 2 for As read from file:
     /scratch/dalcorso_sissa/espresso/pseudo/As.pz-bhs.UPF
     MD5 check sum: 451cd3365afcfc94d28b1934951c34a8
     Pseudo is Norm-conserving, Zval =  5.0
     Generated by new atomic code, or converted to UPF format
     Using radial grid of  525 points,  2 beta functions with: 
                l(1) =   0
                l(2) =   1

     atomic species   valence    mass     pseudopotential
        Al             3.00    26.98000     Al( 1.00)
        As             5.00    74.92000     As( 1.00)

     24 Sym. Ops. (no inversion) found



   Cartesian axes

     site n.     atom                  positions (alat units)
         1           Al  tau(   1) = (   0.0000000   0.0000000   0.0000000  )
         2           As  tau(   2) = (   0.2500000   0.2500000   0.2500000  )

     number of k points=    24
                       cart. coord. in units 2pi/alat
        k(    1) = (   0.2500000   0.2500000   0.2500000), wk =   0.1250000
        k(    2) = (   0.2500000   0.7500000   0.2500000), wk =   0.0000000
        k(    3) = (   0.2500000   0.2500000   0.7500000), wk =   0.2500000
        k(    4) = (   0.2500000   0.7500000   0.7500000), wk =   0.0000000
        k(    5) = (  -0.2500000  -0.2500000   0.2500000), wk =   0.1250000
        k(    6) = (  -0.2500000   0.2500000   0.2500000), wk =   0.0000000
        k(    7) = (  -0.2500000  -0.2500000  -0.2500000), wk =   0.1250000
        k(    8) = (  -0.2500000   0.2500000  -0.2500000), wk =   0.0000000
        k(    9) = (   0.2500000   0.2500000  -0.2500000), wk =   0.1250000
        k(   10) = (   0.2500000   0.7500000  -0.2500000), wk =   0.0000000
        k(   11) = (  -0.2500000  -0.2500000   0.7500000), wk =   0.2500000
        k(   12) = (  -0.2500000   0.2500000   0.7500000), wk =   0.0000000
        k(   13) = (  -0.2500000  -0.7500000   0.2500000), wk =   0.1250000
        k(   14) = (  -0.2500000  -0.2500000   0.2500000), wk =   0.0000000
        k(   15) = (  -0.2500000   0.7500000  -0.2500000), wk =   0.1250000
        k(   16) = (  -0.2500000   1.2500000  -0.2500000), wk =   0.0000000
        k(   17) = (  -0.2500000  -0.2500000  -0.7500000), wk =   0.2500000
        k(   18) = (  -0.2500000   0.2500000  -0.7500000), wk =   0.0000000
        k(   19) = (   0.2500000   0.2500000  -0.7500000), wk =   0.2500000
        k(   20) = (   0.2500000   0.7500000  -0.7500000), wk =   0.0000000
        k(   21) = (  -0.2500000   0.7500000   0.2500000), wk =   0.1250000
        k(   22) = (  -0.2500000   1.2500000   0.2500000), wk =   0.0000000
        k(   23) = (  -0.2500000  -0.7500000  -0.2500000), wk =   0.1250000
        k(   24) = (  -0.2500000  -0.2500000  -0.2500000), wk =   0.0000000

     Dense  grid:     2445 G-vectors     FFT dimensions: (  20,  20,  20)

     Largest allocated arrays     est. size (Mb)     dimensions
        Kohn-Sham Wavefunctions         0.01 Mb     (     86,    4)
        NL pseudopotentials             0.01 Mb     (     86,    8)
        Each V/rho on FFT grid          0.03 Mb     (   2000)
        Each G-vector array             0.00 Mb     (    611)
        G-vector shells                 0.00 Mb     (     60)
     Largest temporary arrays     est. size (Mb)     dimensions
        Auxiliary wavefunctions         0.02 Mb     (     86,   16)
        Each subspace H/S matrix        0.00 Mb     (  16,  16)
        Each <psi_i|beta_j> matrix      0.00 Mb     (      8,    4)

     The potential is recalculated from file :
     /scratch/tmp/_ph0/alas.save/charge-density.dat

     Starting wfc are    8 atomic wfcs

     total cpu time spent up to now is        0.7 secs

     per-process dynamical memory:     8.3 Mb

     Band Structure Calculation
     Davidson diagonalization with overlap

     ethr =  1.25E-10,  avg # of iterations = 11.7

     total cpu time spent up to now is        0.9 secs

     End of band structure calculation

          k = 0.2500 0.2500 0.2500 (   311 PWs)   bands (ev):

    -6.3572   1.7036   4.6972   4.6972

          k = 0.2500 0.7500 0.2500 (   311 PWs)   bands (ev):

    -5.1816  -0.0414   2.3127   3.5087

          k = 0.2500 0.2500 0.7500 (   311 PWs)   bands (ev):

    -5.1816  -0.0414   2.3127   3.5087

          k = 0.2500 0.7500 0.7500 (   311 PWs)   bands (ev):

    -5.1816  -0.0414   2.3127   3.5087

          k =-0.2500-0.2500 0.2500 (   311 PWs)   bands (ev):

    -6.3572   1.7036   4.6972   4.6972

          k =-0.2500 0.2500 0.2500 (   311 PWs)   bands (ev):

    -6.3572   1.7036   4.6972   4.6972

          k =-0.2500-0.2500-0.2500 (   311 PWs)   bands (ev):

    -6.3572   1.7036   4.6972   4.6972

          k =-0.2500 0.2500-0.2500 (   311 PWs)   bands (ev):

    -6.3572   1.7036   4.6972   4.6972

          k = 0.2500 0.2500-0.2500 (   311 PWs)   bands (ev):

    -6.3572   1.7036   4.6972   4.6972

          k = 0.2500 0.7500-0.2500 (   311 PWs)   bands (ev):

    -5.1816  -0.0414   2.3127   3.5087

          k =-0.2500-0.2500 0.7500 (   311 PWs)   bands (ev):

    -5.1816  -0.0414   2.3127   3.5087

          k =-0.2500 0.2500 0.7500 (   311 PWs)   bands (ev):

    -5.1816  -0.0414   2.3127   3.5087

          k =-0.2500-0.7500 0.2500 (   311 PWs)   bands (ev):

    -5.1816  -0.0414   2.3127   3.5087

          k =-0.2500-0.2500 0.2500 (   311 PWs)   bands (ev):

    -6.3572   1.7036   4.6972   4.6972

          k =-0.2500 0.7500-0.2500 (   311 PWs)   bands (ev):

    -5.1816  -0.0414   2.3127   3.5087

          k =-0.2500 1.2500-0.2500 (   311 PWs)   bands (ev):

    -5.1816  -0.0414   2.3127   3.5087

          k =-0.2500-0.2500-0.7500 (   311 PWs)   bands (ev):

    -5.1816  -0.0414   2.3127   3.5087

          k =-0.2500 0.2500-0.7500 (   311 PWs)   bands (ev):

    -5.1816  -0.0414   2.3127   3.5087

          k = 0.2500 0.2500-0.7500 (   311 PWs)   bands (ev):

    -5.1816  -0.0414   2.3127   3.5087

          k = 0.2500 0.7500-0.7500 (   311 PWs)   bands (ev):

    -5.1816  -0.0414   2.3127   3.5087

          k =-0.2500 0.7500 0.2500 (   311 PWs)   bands (ev):

    -5.1816  -0.0414   2.3127   3.5087

          k =-0.2500 1.2500 0.2500 (   311 PWs)   bands (ev):

    -5.1816  -0.0414   2.3127   3.5087

          k =-0.2500-0.7500-0.2500 (   311 PWs)   bands (ev):

    -5.1816  -0.0414   2.3127   3.5087

          k =-0.2500-0.2500-0.2500 (   311 PWs)   bands (ev):

    -6.3572   1.7036   4.6972   4.6972

     Writing output data file alas.save

                                                                                

     bravais-lattice index     =            2
     lattice parameter (alat)  =      10.5000  a.u.
     unit-cell volume          =     289.4063 (a.u.)^3
     number of atoms/cell      =            2
     number of atomic types    =            2
     kinetic-energy cut-off    =      16.0000  Ry
     charge density cut-off    =      64.0000  Ry
     convergence threshold     =      1.0E-12
     beta                      =       0.7000
     number of iterations used =            4
     Exchange-correlation      =  SLA  PZ   NOGX NOGC ( 1 1 0 0 0)
     EXX-fraction              =        0.00


     celldm(1)=   10.50000  celldm(2)=    0.00000  celldm(3)=    0.00000
     celldm(4)=    0.00000  celldm(5)=    0.00000  celldm(6)=    0.00000

     crystal axes: (cart. coord. in units of alat)
               a(1) = ( -0.5000  0.0000  0.5000 )  
               a(2) = (  0.0000  0.5000  0.5000 )  
               a(3) = ( -0.5000  0.5000  0.0000 )  

     reciprocal axes: (cart. coord. in units 2 pi/alat)
               b(1) = ( -1.0000 -1.0000  1.0000 )  
               b(2) = (  1.0000  1.0000  1.0000 )  
               b(3) = ( -1.0000  1.0000 -1.0000 )  


     Atoms inside the unit cell: 

     Cartesian axes

     site n.  atom      mass           positions (alat units)
        1     Al  26.9800   tau(    1) = (    0.00000    0.00000    0.00000  )
        2     As  74.9200   tau(    2) = (    0.25000    0.25000    0.25000  )

     Computing dynamical matrix for 
                    q = (   0.0000000   0.5000000   0.0000000 )

      4 Sym.Ops. (no q -> -q+G )


     G cutoff =  178.7306  (    611 G-vectors)     FFT grid: ( 20, 20, 20)
     number of k points=    24

     PseudoPot. # 1 for Al read from file:
     /scratch/dalcorso_sissa/espresso/pseudo/Al.pz-vbc.UPF
     MD5 check sum: 614279c88ff8d45c90147292d03ed420
     Pseudo is Norm-conserving, Zval =  3.0
     Generated by new atomic code, or converted to UPF format
     Using radial grid of  171 points,  2 beta functions with: 
                l(1) =   0
                l(2) =   1

     PseudoPot. # 2 for As read from file:
     /scratch/dalcorso_sissa/espresso/pseudo/As.pz-bhs.UPF
     MD5 check sum: 451cd3365afcfc94d28b1934951c34a8
     Pseudo is Norm-conserving, Zval =  5.0
     Generated by new atomic code, or converted to UPF format
     Using radial grid of  525 points,  2 beta functions with: 
                l(1) =   0
                l(2) =   1


     Atomic displacements:
     There are   6 irreducible representations

     Representation     1      1 modes -A_1  D_1  S_1  To be done

     Representation     2      1 modes -A_1  D_1  S_1  To be done

     Representation     3      1 modes -B_1  D_3  S_3  To be done

     Representation     4      1 modes -B_1  D_3  S_3  To be done

     Representation     5      1 modes -B_2  D_4  S_4  To be done

     Representation     6      1 modes -B_2  D_4  S_4  To be done



     Alpha used in Ewald sum =   0.7000
     PHONON       :     6.51s CPU         7.45s WALL



     Representation #  1 mode #   1

     Self-consistent Calculation

      iter #   1 total cpu time :     7.5 secs   av.it.:   6.5
      thresh= 1.000E-02 alpha_mix =  0.700 |ddv_scf|^2 =  1.919E-03

     Maximum CPU time exceeded

     max_seconds     =       7.00
     elapsed seconds =       7.31

     PHONON       :     6.58s CPU         7.53s WALL

     INITIALIZATION: 
     phq_setup    :      0.03s CPU      0.03s WALL (       4 calls)
     phq_init     :      0.26s CPU      0.26s WALL (       4 calls)

     phq_init     :      0.26s CPU      0.26s WALL (       4 calls)
     init_vloc    :      0.02s CPU      0.02s WALL (       4 calls)
     init_us_1    :      0.05s CPU      0.05s WALL (       4 calls)

     DYNAMICAL MATRIX:
     dynmat0      :      0.02s CPU      0.02s WALL (       4 calls)
     phqscf       :      4.55s CPU      5.32s WALL (       4 calls)
     dynmatrix    :      0.01s CPU      0.01s WALL (       3 calls)

     phqscf       :      4.55s CPU      5.32s WALL (       5 calls)
     solve_linter :      4.50s CPU      5.26s WALL (      11 calls)
     drhodv       :      0.01s CPU      0.02s WALL (      10 calls)

     dynmat0      :      0.02s CPU      0.02s WALL (       4 calls)
     dynmat_us    :      0.01s CPU      0.01s WALL (       4 calls)
     d2ionq       :      0.01s CPU      0.00s WALL (       4 calls)

     dynmat_us    :      0.01s CPU      0.01s WALL (       4 calls)

     phqscf       :      4.55s CPU      5.32s WALL (       6 calls)
     solve_linter :      4.50s CPU      5.26s WALL (      12 calls)

     solve_linter :      4.50s CPU      5.26s WALL (      13 calls)
     dvqpsi_us    :      0.08s CPU      0.09s WALL (     126 calls)
     ortho        :      0.01s CPU      0.02s WALL (     622 calls)
     cgsolve      :      3.21s CPU      3.84s WALL (     622 calls)
     incdrhoscf   :      0.33s CPU      0.38s WALL (     616 calls)
     vpsifft      :      0.26s CPU      0.29s WALL (     472 calls)
     dv_of_drho   :      0.12s CPU      0.12s WALL (     111 calls)
     mix_pot      :      0.02s CPU      0.05s WALL (      64 calls)
     psymdvscf    :      0.57s CPU      0.58s WALL (      59 calls)

     dvqpsi_us    :      0.08s CPU      0.09s WALL (     126 calls)
     dvqpsi_us_on :      0.00s CPU      0.01s WALL (     126 calls)

     cgsolve      :      3.21s CPU      3.84s WALL (     622 calls)
     ch_psi       :      3.07s CPU      3.69s WALL (    5916 calls)

     ch_psi       :      3.07s CPU      3.69s WALL (    5916 calls)
     h_psiq       :      2.80s CPU      3.37s WALL (    5916 calls)
     last         :      0.26s CPU      0.28s WALL (    5916 calls)

     h_psiq       :      2.80s CPU      3.37s WALL (    5916 calls)
     firstfft     :      1.17s CPU      1.37s WALL (   21008 calls)
     secondfft    :      1.28s CPU      1.49s WALL (   21008 calls)
     add_vuspsi   :      0.06s CPU      0.09s WALL (    6640 calls)

     incdrhoscf   :      0.33s CPU      0.38s WALL (     616 calls)


      General routines
     calbec       :      0.22s CPU      0.25s WALL (   13260 calls)
     fft          :      0.12s CPU      0.12s WALL (     349 calls)
     ffts         :      0.01s CPU      0.02s WALL (     186 calls)
     fftw         :      3.22s CPU      3.62s WALL (   57552 calls)
     davcio       :      0.00s CPU      0.04s WALL (    3273 calls)
     write_rec    :      0.15s CPU      0.18s WALL (      74 calls)


     PHONON       :     6.58s CPU         7.53s WALL


   This run was terminated on:  10:54:33  25Jan2013            

=------------------------------------------------------------------------------=
   JOB DONE.
=------------------------------------------------------------------------------=
