
     Program PWSCF v.7.1 starts on 21Sep2022 at 17:38:46 

     This program is part of the open-source Quantum ESPRESSO suite
     for quantum simulation of materials; please cite
         "P. Giannozzi et al., J. Phys.:Condens. Matter 21 395502 (2009);
         "P. Giannozzi et al., J. Phys.:Condens. Matter 29 465901 (2017);
         "P. Giannozzi et al., J. Chem. Phys. 152 154105 (2020);
          URL http://www.quantum-espresso.org", 
     in publications or presentations arising from this work. More details at
     http://www.quantum-espresso.org/quote

     Parallel version (MPI), running on    10 processors

     MPI processes distributed on     1 nodes
     54354 MiB available memory on the printing compute node when the environment starts

     Waiting for input...
     Reading input from standard input
     Message from routine  control_checkin    :
      isave not used in PW 

     Current dimensions of program PWSCF are:
     Max number of different atomic species (ntypx) = 10
     Max number of k-points (npk) =  40000
     Max angular momentum in pseudopotentials (lmaxx) =  4

     gamma-point specific algorithms are used

     R & G space division:  proc/nbgrp/npool/nimage =      10
     Subspace diagonalization in iterative solution of the eigenvalue problem:
     a serial algorithm will be used


     Parallelization info
     --------------------
     sticks:   dense  smooth     PW     G-vecs:    dense   smooth      PW
     Min          40      40      9                  616      616      72
     Max          42      42     12                  622      622      78
     Sum         405     405    101                 6187     6187     751

     Using Slab Decomposition


     Title: 
     SiH4                                                                       


     bravais-lattice index     =            0
     lattice parameter (alat)  =       8.0000  a.u.
     unit-cell volume          =     512.0000 (a.u.)^3
     number of atoms/cell      =            5
     number of atomic types    =            2
     number of electrons       =         8.00
     number of Kohn-Sham states=            4
     kinetic-energy cutoff     =      20.0000  Ry
     charge density cutoff     =      80.0000  Ry
     scf convergence threshold =      1.0E-07
     mixing beta               =       0.4000
     number of iterations used =            8  plain     mixing
     energy convergence thresh.=      0.0E+00
     force convergence thresh. =      0.0E+00
     Exchange-correlation= SLA-PW-PBX-PBC
                           (   1   4   3   4   0   0   0)
     nstep                     =          500


     celldm(1)=   8.000000  celldm(2)=   0.000000  celldm(3)=   0.000000
     celldm(4)=   0.000000  celldm(5)=   0.000000  celldm(6)=   0.000000

     crystal axes: (cart. coord. in units of alat)
               a(1) = (   1.000000   0.000000   0.000000 )  
               a(2) = (   0.000000   1.000000   0.000000 )  
               a(3) = (   0.000000   0.000000   1.000000 )  

     reciprocal axes: (cart. coord. in units 2 pi/alat)
               b(1) = (  1.000000  0.000000  0.000000 )  
               b(2) = (  0.000000  1.000000  0.000000 )  
               b(3) = (  0.000000  0.000000  1.000000 )  


     PseudoPot. # 1 for Si read from file:
     /home/pizza/codes/QEdev/q-e/pseudo/Si.pbe-hgh.UPF
     MD5 check sum: 644c0713ebe098a80395b411a455088e
     Pseudo is Norm-conserving, Zval =  4.0
     Generated in analytical, separable form
     Using radial grid of 1141 points,  3 beta functions with: 
                l(1) =   0
                l(2) =   0
                l(3) =   1

     PseudoPot. # 2 for H  read from file:
     /home/pizza/codes/QEdev/q-e/pseudo/H.pbe-hgh.UPF
     MD5 check sum: 50ae4f52d34cf16cdfed4bce9c5a191e
     Pseudo is Norm-conserving, Zval =  1.0
     Generated in analytical, separable form
     Using radial grid of  929 points,  0 beta functions with: 

     atomic species   valence    mass     pseudopotential
        Si             4.00    28.08600     Si( 1.00)
        H              1.00     1.00000     H ( 1.00)

     No symmetry found



   Cartesian axes

     site n.     atom                  positions (alat units)
         1           Si  tau(   1) = (   1.1810788   1.1810788   1.1812500  )
         2           H   tau(   2) = (   1.3992171   1.3992171   1.3875000  )
         3           H   tau(   3) = (   1.1810788   1.1810788   0.8250000  )
         4           H   tau(   4) = (   0.8831109   1.2610727   1.3875000  )
         5           H   tau(   5) = (   1.2610727   0.8831109   1.3875000  )

     number of k points=     1
                       cart. coord. in units 2pi/alat
        k(    1) = (   0.0000000   0.0000000   0.0000000), wk =   2.0000000

     Dense  grid:     3094 G-vectors     FFT dimensions: (  24,  24,  24)

     Estimated max dynamical RAM per process >       0.52 MB

     Estimated total dynamical RAM >       5.20 MB

     Initial potential from superposition of free atoms

     starting charge       7.9994, renormalised to       8.0000
     Starting wfcs are    8 randomized atomic wfcs

   External force field information
   --------------------------------
     2 external force field(s):
           1 : Repulsive planar (Fix indent lammps style) potential
             axis = 3  dir = 0 pos =   5.0000 inc =   0.0050 Strength =    10.0000
           2 : Repulsive planar (Fix indent lammps style) potential
             axis = 3  dir = 1 pos =  11.3000 inc =  -0.0050 Strength =    10.0000

     total cpu time spent up to now is        0.2 secs

     Self-consistent Calculation

     iteration #  1     ecut=    20.00 Ry     beta= 0.40
     Davidson diagonalization with overlap
     ethr =  1.00E-02,  avg # of iterations =  2.0

     total cpu time spent up to now is        0.2 secs

     total energy              =     -12.14434416 Ry
     estimated scf accuracy    <       0.24310909 Ry

     iteration #  2     ecut=    20.00 Ry     beta= 0.40
     Davidson diagonalization with overlap
     ethr =  3.04E-03,  avg # of iterations =  1.0

     total cpu time spent up to now is        0.2 secs

     total energy              =     -12.12473457 Ry
     estimated scf accuracy    <       0.07353773 Ry

     iteration #  3     ecut=    20.00 Ry     beta= 0.40
     Davidson diagonalization with overlap
     ethr =  9.19E-04,  avg # of iterations =  2.0

     total cpu time spent up to now is        0.2 secs

     total energy              =     -12.13237601 Ry
     estimated scf accuracy    <       0.00284122 Ry

     iteration #  4     ecut=    20.00 Ry     beta= 0.40
     Davidson diagonalization with overlap
     ethr =  3.55E-05,  avg # of iterations =  2.0

     total cpu time spent up to now is        0.2 secs

     total energy              =     -12.13254760 Ry
     estimated scf accuracy    <       0.00060476 Ry

     iteration #  5     ecut=    20.00 Ry     beta= 0.40
     Davidson diagonalization with overlap
     ethr =  7.56E-06,  avg # of iterations =  2.0

     total cpu time spent up to now is        0.2 secs

     total energy              =     -12.13271254 Ry
     estimated scf accuracy    <       0.00024555 Ry

     iteration #  6     ecut=    20.00 Ry     beta= 0.40
     Davidson diagonalization with overlap
     ethr =  3.07E-06,  avg # of iterations =  1.0

     total cpu time spent up to now is        0.2 secs

     total energy              =     -12.13269453 Ry
     estimated scf accuracy    <       0.00005496 Ry

     iteration #  7     ecut=    20.00 Ry     beta= 0.40
     Davidson diagonalization with overlap
     ethr =  6.87E-07,  avg # of iterations =  3.0

     total cpu time spent up to now is        0.2 secs

     total energy              =     -12.13272379 Ry
     estimated scf accuracy    <       0.00004258 Ry

     iteration #  8     ecut=    20.00 Ry     beta= 0.40
     Davidson diagonalization with overlap
     ethr =  5.32E-07,  avg # of iterations =  1.0

     total cpu time spent up to now is        0.2 secs

     total energy              =     -12.13271290 Ry
     estimated scf accuracy    <       0.00002266 Ry

     iteration #  9     ecut=    20.00 Ry     beta= 0.40
     Davidson diagonalization with overlap
     ethr =  2.83E-07,  avg # of iterations =  2.0

     total cpu time spent up to now is        0.2 secs

     total energy              =     -12.13271732 Ry
     estimated scf accuracy    <       0.00000016 Ry

     iteration # 10     ecut=    20.00 Ry     beta= 0.40
     Davidson diagonalization with overlap
     ethr =  2.06E-09,  avg # of iterations =  2.0

     total cpu time spent up to now is        0.2 secs

          k = 0.0000 0.0000 0.0000     band energies (ev):

    -9.9117  -4.2218  -2.9574  -2.6312

     highest occupied level (ev):    -2.6312

     total energy              =     -12.13271732 Ry
     estimated scf accuracy    <       0.00000021 Ry

     iteration # 11     ecut=    20.00 Ry     beta= 0.40
     Davidson diagonalization with overlap
     ethr =  2.06E-09,  avg # of iterations =  2.0

     total cpu time spent up to now is        0.2 secs

     End of self-consistent calculation

          k = 0.0000 0.0000 0.0000 (   376 PWs)   bands (ev):

    -9.9122  -4.2219  -2.9583  -2.6320

     highest occupied level (ev):    -2.6320

!    total energy              =     -12.13271728 Ry
     estimated scf accuracy    <       0.00000009 Ry

     convergence has been achieved in  11 iterations

     Forces acting on atoms (cartesian axes, Ry/au):

     atom    1 type  1   force =    -0.02662205   -0.02662371    0.09768659
     atom    2 type  2   force =    -0.00550523   -0.00550422   -0.06124528
     atom    3 type  2   force =     0.00297741    0.00297781    0.08679703
     atom    4 type  2   force =     0.03814079   -0.00899073   -0.06161955
     atom    5 type  2   force =    -0.00899093    0.03814086   -0.06161879

     Total force =     0.181627     Total SCF correction =     0.000196

     Molecular Dynamics Calculation

     Starting temperature  =   300.00 K

     temperature is controlled by velocity rescaling (rescaling)

     mass Si               =    28.09
     mass H                =     1.00
     Time step             =     3.00 a.u.,  0.1451 femto-seconds

     Entering Dynamics:    iteration =     1
                           time      =   0.0001 pico-seconds


ATOMIC_POSITIONS (bohr)
Si            9.4486820185        9.4489154263        9.4499956146
H            11.2007595414       11.1884773651       11.1045914947
H             9.4456021133        9.4470346831        6.6014495686
H             7.0630402818       10.0848463566       11.1024517468
H            10.0849919478        7.0674802067       11.0916303590


     kinetic energy (Ekin) =           0.01140052 Ry
     temperature           =         300.00000000 K 
     Ekin + Etot (const)   =         -12.12131676 Ry

     Linear momentum :    0.0000000000   -0.0000000000    0.0000000000

     Writing config-only to output data dir /home/pizza/codes/QEdev/q-e/tempdir/SiH4.save/
     NEW-OLD atomic charge density approx. for the potential

     total cpu time spent up to now is        0.2 secs

     Self-consistent Calculation

     iteration #  1     ecut=    20.00 Ry     beta= 0.40
     Davidson diagonalization with overlap
     ethr =  1.00E-06,  avg # of iterations =  3.0

     total cpu time spent up to now is        0.3 secs

     total energy              =     -12.13297492 Ry
     estimated scf accuracy    <       0.00001103 Ry

     iteration #  2     ecut=    20.00 Ry     beta= 0.40
     Davidson diagonalization with overlap
     ethr =  1.38E-07,  avg # of iterations =  1.0

     total cpu time spent up to now is        0.3 secs

     total energy              =     -12.13297606 Ry
     estimated scf accuracy    <       0.00000349 Ry

     iteration #  3     ecut=    20.00 Ry     beta= 0.40
     Davidson diagonalization with overlap
     ethr =  4.36E-08,  avg # of iterations =  2.0

     total cpu time spent up to now is        0.3 secs

     total energy              =     -12.13297659 Ry
     estimated scf accuracy    <       0.00000029 Ry

     iteration #  4     ecut=    20.00 Ry     beta= 0.40
     Davidson diagonalization with overlap
     ethr =  3.58E-09,  avg # of iterations =  2.0

     total cpu time spent up to now is        0.3 secs

     End of self-consistent calculation

          k = 0.0000 0.0000 0.0000 (   376 PWs)   bands (ev):

    -9.9133  -4.2245  -2.9591  -2.6339

     highest occupied level (ev):    -2.6339

!    total energy              =     -12.13297670 Ry
     estimated scf accuracy    <       0.00000006 Ry

     convergence has been achieved in   4 iterations

     Forces acting on atoms (cartesian axes, Ry/au):

     atom    1 type  1   force =    -0.02680635   -0.02580964    0.09801515
     atom    2 type  2   force =    -0.00627397   -0.00551269   -0.06158759
     atom    3 type  2   force =     0.00299877    0.00324384    0.08610434
     atom    4 type  2   force =     0.03867797   -0.00865288   -0.06183450
     atom    5 type  2   force =    -0.00859641    0.03673136   -0.06069739

     Total force =     0.181079     Total SCF correction =     0.000128

     Entering Dynamics:    iteration =     2
                           time      =   0.0003 pico-seconds


ATOMIC_POSITIONS (bohr)
Si            9.4487239481        9.4491911140        9.4500256892
H            11.2077205674       11.1831635967       11.1085748465
H             9.4426031732        9.4454707329        6.6037493692
H             7.0615753483       10.0810254802       11.1042929126
H            10.0813171617        7.0704358359       11.0826613653


     kinetic energy (Ekin) =           0.01165908 Ry
     temperature           =         306.80374180 K 
     Ekin + Etot (const)   =         -12.12131762 Ry

     Linear momentum :    0.0000000000    0.0000000000   -0.0000000000

     Writing config-only to output data dir /home/pizza/codes/QEdev/q-e/tempdir/SiH4.save/
     NEW-OLD atomic charge density approx. for the potential

     total cpu time spent up to now is        0.3 secs

     Self-consistent Calculation

     iteration #  1     ecut=    20.00 Ry     beta= 0.40
     Davidson diagonalization with overlap
     ethr =  1.00E-06,  avg # of iterations =  3.0

     total cpu time spent up to now is        0.3 secs

     total energy              =     -12.13342930 Ry
     estimated scf accuracy    <       0.00001133 Ry

     iteration #  2     ecut=    20.00 Ry     beta= 0.40
     Davidson diagonalization with overlap
     ethr =  1.42E-07,  avg # of iterations =  1.0

     total cpu time spent up to now is        0.3 secs

     total energy              =     -12.13343051 Ry
     estimated scf accuracy    <       0.00000351 Ry

     iteration #  3     ecut=    20.00 Ry     beta= 0.40
     Davidson diagonalization with overlap
     ethr =  4.38E-08,  avg # of iterations =  2.0

     total cpu time spent up to now is        0.3 secs

     total energy              =     -12.13343109 Ry
     estimated scf accuracy    <       0.00000033 Ry

     iteration #  4     ecut=    20.00 Ry     beta= 0.40
     Davidson diagonalization with overlap
     ethr =  4.16E-09,  avg # of iterations =  2.0

     total cpu time spent up to now is        0.3 secs

     End of self-consistent calculation

          k = 0.0000 0.0000 0.0000 (   376 PWs)   bands (ev):

    -9.9154  -4.2289  -2.9611  -2.6365

     highest occupied level (ev):    -2.6365

!    total energy              =     -12.13343120 Ry
     estimated scf accuracy    <       0.00000006 Ry

     convergence has been achieved in   4 iterations

     Forces acting on atoms (cartesian axes, Ry/au):

     atom    1 type  1   force =    -0.02692802   -0.02489608    0.09835372
     atom    2 type  2   force =    -0.00695881   -0.00548351   -0.06182173
     atom    3 type  2   force =     0.00299791    0.00350684    0.08508146
     atom    4 type  2   force =     0.03906235   -0.00828807   -0.06191759
     atom    5 type  2   force =    -0.00817342    0.03516081   -0.05969586

     Total force =     0.180205     Total SCF correction =     0.000115

     Entering Dynamics:    iteration =     3
                           time      =   0.0004 pico-seconds


ATOMIC_POSITIONS (bohr)
Si            9.4487564103        9.4494580488        9.4500903429
H            11.2146128791       11.1777956817       11.1119477433
H             9.4396338358        9.4439414108        6.6068893014
H             7.0604961336       10.0771227638       11.1055226769
H            10.0775616677        7.0737386583       11.0731029086


     kinetic energy (Ekin) =           0.01211189 Ry
     temperature           =         318.71941628 K 
     Ekin + Etot (const)   =         -12.12131930 Ry

     Linear momentum :    0.0000000000    0.0000000000    0.0000000000

     Writing config-only to output data dir /home/pizza/codes/QEdev/q-e/tempdir/SiH4.save/
     NEW-OLD atomic charge density approx. for the potential

     total cpu time spent up to now is        0.3 secs

     Self-consistent Calculation

     iteration #  1     ecut=    20.00 Ry     beta= 0.40
     Davidson diagonalization with overlap
     ethr =  1.00E-06,  avg # of iterations =  3.0

     total cpu time spent up to now is        0.3 secs

     total energy              =     -12.13407180 Ry
     estimated scf accuracy    <       0.00001208 Ry

     iteration #  2     ecut=    20.00 Ry     beta= 0.40
     Davidson diagonalization with overlap
     ethr =  1.51E-07,  avg # of iterations =  1.0

     total cpu time spent up to now is        0.3 secs

     total energy              =     -12.13407305 Ry
     estimated scf accuracy    <       0.00000368 Ry

     iteration #  3     ecut=    20.00 Ry     beta= 0.40
     Davidson diagonalization with overlap
     ethr =  4.60E-08,  avg # of iterations =  2.0

     total cpu time spent up to now is        0.3 secs

     total energy              =     -12.13407370 Ry
     estimated scf accuracy    <       0.00000041 Ry

     iteration #  4     ecut=    20.00 Ry     beta= 0.40
     Davidson diagonalization with overlap
     ethr =  5.07E-09,  avg # of iterations =  2.0

     total cpu time spent up to now is        0.3 secs

     End of self-consistent calculation

          k = 0.0000 0.0000 0.0000 (   376 PWs)   bands (ev):

    -9.9183  -4.2348  -2.9643  -2.6401

     highest occupied level (ev):    -2.6401

!    total energy              =     -12.13407380 Ry
     estimated scf accuracy    <       0.00000007 Ry

     convergence has been achieved in   4 iterations

     Forces acting on atoms (cartesian axes, Ry/au):

     atom    1 type  1   force =    -0.02698894   -0.02387662    0.09872607
     atom    2 type  2   force =    -0.00759508   -0.00540681   -0.06197444
     atom    3 type  2   force =     0.00299164    0.00376869    0.08368913
     atom    4 type  2   force =     0.03929662   -0.00789038   -0.06188295
     atom    5 type  2   force =    -0.00770424    0.03340512   -0.05855782

     Total force =     0.178998     Total SCF correction =     0.000125

     Entering Dynamics:    iteration =     4
                           time      =   0.0006 pico-seconds


ATOMIC_POSITIONS (bohr)
Si            9.4487793838        9.4497165891        9.4501897065
H            11.2214301937       11.1723743775       11.1147086775
H             9.4366940393        9.4424493023        6.6108556169
H             7.0598049509       10.0731421344       11.1061413819
H            10.0737300987        7.0773713375       11.0629662263


     kinetic energy (Ekin) =           0.01275249 Ry
     temperature           =         335.57642940 K 
     Ekin + Etot (const)   =         -12.12132131 Ry

     Linear momentum :    0.0000000000   -0.0000000000   -0.0000000000

     Writing config-only to output data dir /home/pizza/codes/QEdev/q-e/tempdir/SiH4.save/
     NEW-OLD atomic charge density approx. for the potential

     total cpu time spent up to now is        0.3 secs

     Self-consistent Calculation

     iteration #  1     ecut=    20.00 Ry     beta= 0.40
     Davidson diagonalization with overlap
     ethr =  1.00E-06,  avg # of iterations =  3.0

     total cpu time spent up to now is        0.3 secs

     total energy              =     -12.13489298 Ry
     estimated scf accuracy    <       0.00001346 Ry

     iteration #  2     ecut=    20.00 Ry     beta= 0.40
     Davidson diagonalization with overlap
     ethr =  1.68E-07,  avg # of iterations =  1.0

     total cpu time spent up to now is        0.3 secs

     total energy              =     -12.13489430 Ry
     estimated scf accuracy    <       0.00000385 Ry

     iteration #  3     ecut=    20.00 Ry     beta= 0.40
     Davidson diagonalization with overlap
     ethr =  4.81E-08,  avg # of iterations =  2.0

     total cpu time spent up to now is        0.3 secs

     total energy              =     -12.13489498 Ry
     estimated scf accuracy    <       0.00000043 Ry

     iteration #  4     ecut=    20.00 Ry     beta= 0.40
     Davidson diagonalization with overlap
     ethr =  5.38E-09,  avg # of iterations =  2.0

     total cpu time spent up to now is        0.3 secs

     End of self-consistent calculation

          k = 0.0000 0.0000 0.0000 (   376 PWs)   bands (ev):

    -9.9223  -4.2425  -2.9693  -2.6447

     highest occupied level (ev):    -2.6447

!    total energy              =     -12.13489513 Ry
     estimated scf accuracy    <       0.00000008 Ry

     convergence has been achieved in   4 iterations

     Forces acting on atoms (cartesian axes, Ry/au):

     atom    1 type  1   force =    -0.02698984   -0.02274169    0.09912936
     atom    2 type  2   force =    -0.00818024   -0.00528739   -0.06204972
     atom    3 type  2   force =     0.00297422    0.00400673    0.08195044
     atom    4 type  2   force =     0.03938484   -0.00746349   -0.06173346
     atom    5 type  2   force =    -0.00718898    0.03148583   -0.05729662

     Total force =     0.177488     Total SCF correction =     0.000142

     Entering Dynamics:    iteration =     5
                           time      =   0.0007 pico-seconds


ATOMIC_POSITIONS (bohr)
Si            9.4487928683        9.4499671339        9.4503239220
H            11.2281667330       11.1669008633       11.1168569054
H             9.4337836114        9.4409967581        6.6156311469
H             7.0595026713       10.0690878072       11.1061505036
H            10.0698275424        7.0813149216       11.0522637722


     kinetic energy (Ekin) =           0.01357161 Ry
     temperature           =         357.13130487 K 
     Ekin + Etot (const)   =         -12.12132352 Ry

     Linear momentum :    0.0000000000   -0.0000000000   -0.0000000000

     Writing config-only to output data dir /home/pizza/codes/QEdev/q-e/tempdir/SiH4.save/
     NEW-OLD atomic charge density approx. for the potential

     total cpu time spent up to now is        0.3 secs

     Self-consistent Calculation

     iteration #  1     ecut=    20.00 Ry     beta= 0.40
     Davidson diagonalization with overlap
     ethr =  1.00E-06,  avg # of iterations =  3.0

     total cpu time spent up to now is        0.4 secs

     total energy              =     -12.13588120 Ry
     estimated scf accuracy    <       0.00001394 Ry

     iteration #  2     ecut=    20.00 Ry     beta= 0.40
     Davidson diagonalization with overlap
     ethr =  1.74E-07,  avg # of iterations =  1.0

     total cpu time spent up to now is        0.4 secs

     total energy              =     -12.13588268 Ry
     estimated scf accuracy    <       0.00000396 Ry

     iteration #  3     ecut=    20.00 Ry     beta= 0.40
     Davidson diagonalization with overlap
     ethr =  4.95E-08,  avg # of iterations =  2.0

     total cpu time spent up to now is        0.4 secs

     total energy              =     -12.13588339 Ry
     estimated scf accuracy    <       0.00000048 Ry

     iteration #  4     ecut=    20.00 Ry     beta= 0.40
     Davidson diagonalization with overlap
     ethr =  6.00E-09,  avg # of iterations =  2.0

     total cpu time spent up to now is        0.4 secs

     End of self-consistent calculation

          k = 0.0000 0.0000 0.0000 (   376 PWs)   bands (ev):

    -9.9272  -4.2515  -2.9753  -2.6503

     highest occupied level (ev):    -2.6503

!    total energy              =     -12.13588356 Ry
     estimated scf accuracy    <       0.00000009 Ry

     convergence has been achieved in   4 iterations

     Forces acting on atoms (cartesian axes, Ry/au):

     atom    1 type  1   force =    -0.02693169   -0.02149616    0.09956738
     atom    2 type  2   force =    -0.00872187   -0.00511649   -0.06204953
     atom    3 type  2   force =     0.00294850    0.00424924    0.07984186
     atom    4 type  2   force =     0.03932936   -0.00700113   -0.06146918
     atom    5 type  2   force =    -0.00662431    0.02936454   -0.05589053

     Total force =     0.175668     Total SCF correction =     0.000144

     Entering Dynamics:    iteration =     6
                           time      =   0.0009 pico-seconds


ATOMIC_POSITIONS (bohr)
Si            9.4487968841        9.4502101212        9.4504931431
H            11.2348171487       11.1613768266       11.1183924292
H             9.4309022984        9.4395861727        6.6211950704
H             7.0595887472       10.0649643478       11.1055526518
H            10.0658595749        7.0855484640       11.0410094303


     kinetic energy (Ekin) =           0.01455766 Ry
     temperature           =         383.07866538 K 
     Ekin + Etot (const)   =         -12.12132590 Ry

     Linear momentum :    0.0000000000   -0.0000000000   -0.0000000000

     Writing config-only to output data dir /home/pizza/codes/QEdev/q-e/tempdir/SiH4.save/
     NEW-OLD atomic charge density approx. for the potential

     total cpu time spent up to now is        0.4 secs

     Self-consistent Calculation

     iteration #  1     ecut=    20.00 Ry     beta= 0.40
     Davidson diagonalization with overlap
     ethr =  1.00E-06,  avg # of iterations =  3.0

     total cpu time spent up to now is        0.4 secs

     total energy              =     -12.13702267 Ry
     estimated scf accuracy    <       0.00001524 Ry

     iteration #  2     ecut=    20.00 Ry     beta= 0.40
     Davidson diagonalization with overlap
     ethr =  1.90E-07,  avg # of iterations =  1.0

     total cpu time spent up to now is        0.4 secs

     total energy              =     -12.13702428 Ry
     estimated scf accuracy    <       0.00000422 Ry

     iteration #  3     ecut=    20.00 Ry     beta= 0.40
     Davidson diagonalization with overlap
     ethr =  5.28E-08,  avg # of iterations =  2.0

     total cpu time spent up to now is        0.4 secs

     total energy              =     -12.13702507 Ry
     estimated scf accuracy    <       0.00000055 Ry

     iteration #  4     ecut=    20.00 Ry     beta= 0.40
     Davidson diagonalization with overlap
     ethr =  6.89E-09,  avg # of iterations =  2.0

     total cpu time spent up to now is        0.4 secs

     total energy              =     -12.13702526 Ry
     estimated scf accuracy    <       0.00000011 Ry

     iteration #  5     ecut=    20.00 Ry     beta= 0.40
     Davidson diagonalization with overlap
     ethr =  1.35E-09,  avg # of iterations =  2.0

     total cpu time spent up to now is        0.4 secs

     End of self-consistent calculation

          k = 0.0000 0.0000 0.0000 (   376 PWs)   bands (ev):

    -9.9328  -4.2617  -2.9825  -2.6564

     highest occupied level (ev):    -2.6564

!    total energy              =     -12.13702527 Ry
     estimated scf accuracy    <       0.00000002 Ry

     convergence has been achieved in   5 iterations

     Forces acting on atoms (cartesian axes, Ry/au):

     atom    1 type  1   force =    -0.02681750   -0.02011960    0.10003716
     atom    2 type  2   force =    -0.00918402   -0.00492519   -0.06196453
     atom    3 type  2   force =     0.00289699    0.00448571    0.07742935
     atom    4 type  2   force =     0.03913794   -0.00652323   -0.06108855
     atom    5 type  2   force =    -0.00603342    0.02708232   -0.05441342

     Total force =     0.173609     Total SCF correction =     0.000072

     Entering Dynamics:    iteration =     7
                           time      =   0.0010 pico-seconds


ATOMIC_POSITIONS (bohr)
Si            9.4487914715        9.4504460348        9.4506975353
H            11.2413768775       11.1558041564       11.1193160880
H             9.4280495915        9.4382198812        6.6275235652
H             7.0600612882       10.0607764752       11.1043515848
H            10.0618320307        7.0900494292       11.0292177865


     kinetic energy (Ekin) =           0.01569757 Ry
     temperature           =         413.07509037 K 
     Ekin + Etot (const)   =         -12.12132770 Ry

     Linear momentum :    0.0000000000   -0.0000000000   -0.0000000000

     Writing config-only to output data dir /home/pizza/codes/QEdev/q-e/tempdir/SiH4.save/
     NEW-OLD atomic charge density approx. for the potential

     total cpu time spent up to now is        0.4 secs

     Self-consistent Calculation

     iteration #  1     ecut=    20.00 Ry     beta= 0.40
     Davidson diagonalization with overlap
     ethr =  1.00E-06,  avg # of iterations =  3.0

     total cpu time spent up to now is        0.4 secs

     total energy              =     -12.13830173 Ry
     estimated scf accuracy    <       0.00001632 Ry

     iteration #  2     ecut=    20.00 Ry     beta= 0.40
     Davidson diagonalization with overlap
     ethr =  2.04E-07,  avg # of iterations =  1.0

     total cpu time spent up to now is        0.4 secs

     total energy              =     -12.13830349 Ry
     estimated scf accuracy    <       0.00000450 Ry

     iteration #  3     ecut=    20.00 Ry     beta= 0.40
     Davidson diagonalization with overlap
     ethr =  5.62E-08,  avg # of iterations =  2.0

     total cpu time spent up to now is        0.4 secs

     total energy              =     -12.13830431 Ry
     estimated scf accuracy    <       0.00000058 Ry

     iteration #  4     ecut=    20.00 Ry     beta= 0.40
     Davidson diagonalization with overlap
     ethr =  7.23E-09,  avg # of iterations =  2.0

     total cpu time spent up to now is        0.4 secs

     total energy              =     -12.13830451 Ry
     estimated scf accuracy    <       0.00000011 Ry

     iteration #  5     ecut=    20.00 Ry     beta= 0.40
     Davidson diagonalization with overlap
     ethr =  1.40E-09,  avg # of iterations =  2.0

     total cpu time spent up to now is        0.4 secs

     End of self-consistent calculation

          k = 0.0000 0.0000 0.0000 (   376 PWs)   bands (ev):

    -9.9395  -4.2735  -2.9912  -2.6639

     highest occupied level (ev):    -2.6639

!    total energy              =     -12.13830452 Ry
     estimated scf accuracy    <       0.00000002 Ry

     convergence has been achieved in   5 iterations

     Forces acting on atoms (cartesian axes, Ry/au):

     atom    1 type  1   force =    -0.02664384   -0.01862000    0.10053839
     atom    2 type  2   force =    -0.00963171   -0.00466622   -0.06181723
     atom    3 type  2   force =     0.00285277    0.00471451    0.07461247
     atom    4 type  2   force =     0.03879354   -0.00600090   -0.06059910
     atom    5 type  2   force =    -0.00537076    0.02457261   -0.05273452

     Total force =     0.171244     Total SCF correction =     0.000070

     Entering Dynamics:    iteration =     8
                           time      =   0.0012 pico-seconds


     Velocity rescaling: T ( 413.1K) out of range, reset to  300.0

ATOMIC_POSITIONS (bohr)
Si            9.4487774914        9.4506405361        9.4509070672
H            11.2468720297       11.1510090004       11.1194928279
H             9.4256466585        9.4371020683        6.6336535217
H             7.0608470564       10.0571482769       11.1027296426
H            10.0583466879        7.0941278329       11.0186481176


     kinetic energy (Ekin) =           0.01241377 Ry
     temperature           =         326.66313056 K 
     Ekin + Etot (const)   =         -12.12589075 Ry

     Linear momentum :    0.0000000000   -0.0000000000    0.0000000000

     Writing config-only to output data dir /home/pizza/codes/QEdev/q-e/tempdir/SiH4.save/
     NEW-OLD atomic charge density approx. for the potential

     total cpu time spent up to now is        0.4 secs

     Self-consistent Calculation

     iteration #  1     ecut=    20.00 Ry     beta= 0.40
     Davidson diagonalization with overlap
     ethr =  1.00E-06,  avg # of iterations =  3.0

     total cpu time spent up to now is        0.4 secs

     total energy              =     -12.13952542 Ry
     estimated scf accuracy    <       0.00001313 Ry

     iteration #  2     ecut=    20.00 Ry     beta= 0.40
     Davidson diagonalization with overlap
     ethr =  1.64E-07,  avg # of iterations =  1.0

     total cpu time spent up to now is        0.4 secs

     total energy              =     -12.13952684 Ry
     estimated scf accuracy    <       0.00000352 Ry

     iteration #  3     ecut=    20.00 Ry     beta= 0.40
     Davidson diagonalization with overlap
     ethr =  4.40E-08,  avg # of iterations =  2.0

     total cpu time spent up to now is        0.4 secs

     total energy              =     -12.13952750 Ry
     estimated scf accuracy    <       0.00000047 Ry

     iteration #  4     ecut=    20.00 Ry     beta= 0.40
     Davidson diagonalization with overlap
     ethr =  5.90E-09,  avg # of iterations =  2.0

     total cpu time spent up to now is        0.4 secs

     End of self-consistent calculation

          k = 0.0000 0.0000 0.0000 (   376 PWs)   bands (ev):

    -9.9462  -4.2851  -3.0002  -2.6719

     highest occupied level (ev):    -2.6719

!    total energy              =     -12.13952767 Ry
     estimated scf accuracy    <       0.00000009 Ry

     convergence has been achieved in   4 iterations

     Forces acting on atoms (cartesian axes, Ry/au):

     atom    1 type  1   force =    -0.02643279   -0.01723058    0.10099463
     atom    2 type  2   force =    -0.00999127   -0.00438018   -0.06161924
     atom    3 type  2   force =     0.00282078    0.00490238    0.07180241
     atom    4 type  2   force =     0.03834182   -0.00551176   -0.06006601
     atom    5 type  2   force =    -0.00473854    0.02222014   -0.05111179

     Total force =     0.168926     Total SCF correction =     0.000137

     Entering Dynamics:    iteration =     9
                           time      =   0.0013 pico-seconds


ATOMIC_POSITIONS (bohr)
Si            9.4487542181        9.4508289795        9.4511521067
H            11.2522685237       11.1461705925       11.1190611125
H             9.4232715791        9.4360326637        6.6404924867
H             7.0620114286       10.0534656531       11.1005145822
H            10.0548145548        7.0984256481       11.0075737484


     kinetic energy (Ekin) =           0.01363508 Ry
     temperature           =         358.80151804 K 
     Ekin + Etot (const)   =         -12.12589258 Ry

     Linear momentum :    0.0000000000    0.0000000000    0.0000000000

     Writing config-only to output data dir /home/pizza/codes/QEdev/q-e/tempdir/SiH4.save/
     NEW-OLD atomic charge density approx. for the potential

     total cpu time spent up to now is        0.5 secs

     Self-consistent Calculation

     iteration #  1     ecut=    20.00 Ry     beta= 0.40
     Davidson diagonalization with overlap
     ethr =  1.00E-06,  avg # of iterations =  3.0

     total cpu time spent up to now is        0.5 secs

     total energy              =     -12.14086830 Ry
     estimated scf accuracy    <       0.00001502 Ry

     iteration #  2     ecut=    20.00 Ry     beta= 0.40
     Davidson diagonalization with overlap
     ethr =  1.88E-07,  avg # of iterations =  1.0

     total cpu time spent up to now is        0.5 secs

     total energy              =     -12.14086990 Ry
     estimated scf accuracy    <       0.00000381 Ry

     iteration #  3     ecut=    20.00 Ry     beta= 0.40
     Davidson diagonalization with overlap
     ethr =  4.77E-08,  avg # of iterations =  2.0

     total cpu time spent up to now is        0.5 secs

     total energy              =     -12.14087067 Ry
     estimated scf accuracy    <       0.00000055 Ry

     iteration #  4     ecut=    20.00 Ry     beta= 0.40
     Davidson diagonalization with overlap
     ethr =  6.89E-09,  avg # of iterations =  2.0

     total cpu time spent up to now is        0.5 secs

     total energy              =     -12.14087087 Ry
     estimated scf accuracy    <       0.00000011 Ry

     iteration #  5     ecut=    20.00 Ry     beta= 0.40
     Davidson diagonalization with overlap
     ethr =  1.39E-09,  avg # of iterations =  2.0

     total cpu time spent up to now is        0.5 secs

     End of self-consistent calculation

          k = 0.0000 0.0000 0.0000 (   376 PWs)   bands (ev):

    -9.9534  -4.2975  -3.0096  -2.6799

     highest occupied level (ev):    -2.6799

!    total energy              =     -12.14087087 Ry
     estimated scf accuracy    <       0.00000002 Ry

     convergence has been achieved in   5 iterations

     Forces acting on atoms (cartesian axes, Ry/au):

     atom    1 type  1   force =    -0.02616747   -0.01571105    0.10148064
     atom    2 type  2   force =    -0.01024761   -0.00409556   -0.06134416
     atom    3 type  2   force =     0.00274985    0.00508339    0.06877220
     atom    4 type  2   force =     0.03776698   -0.00502187   -0.05942561
     atom    5 type  2   force =    -0.00410174    0.01974509   -0.04948307

     Total force =     0.166481     Total SCF correction =     0.000068

     Entering Dynamics:    iteration =    10
                           time      =   0.0015 pico-seconds


ATOMIC_POSITIONS (bohr)
Si            9.4487217449        9.4510118992        9.4514328247
H            11.2575638283       11.1412917433       11.1180236578
H             9.4209236529        9.4350134547        6.6480105386
H             7.0635487284       10.0497334411       11.0977127274
H            10.0512419192        7.1029184349       10.9960107617


     kinetic energy (Ekin) =           0.01497637 Ry
     temperature           =         394.09694748 K 
     Ekin + Etot (const)   =         -12.12589450 Ry

     Linear momentum :    0.0000000000    0.0000000000    0.0000000000

     Writing config-only to output data dir /home/pizza/codes/QEdev/q-e/tempdir/SiH4.save/
     NEW-OLD atomic charge density approx. for the potential

     total cpu time spent up to now is        0.5 secs

     Self-consistent Calculation

     iteration #  1     ecut=    20.00 Ry     beta= 0.40
     Davidson diagonalization with overlap
     ethr =  1.00E-06,  avg # of iterations =  3.0

     total cpu time spent up to now is        0.5 secs

     total energy              =     -12.14231339 Ry
     estimated scf accuracy    <       0.00001622 Ry

     iteration #  2     ecut=    20.00 Ry     beta= 0.40
     Davidson diagonalization with overlap
     ethr =  2.03E-07,  avg # of iterations =  1.0

     total cpu time spent up to now is        0.5 secs

     total energy              =     -12.14231515 Ry
     estimated scf accuracy    <       0.00000410 Ry

     iteration #  3     ecut=    20.00 Ry     beta= 0.40
     Davidson diagonalization with overlap
     ethr =  5.13E-08,  avg # of iterations =  2.0

     total cpu time spent up to now is        0.5 secs

     total energy              =     -12.14231596 Ry
     estimated scf accuracy    <       0.00000058 Ry

     iteration #  4     ecut=    20.00 Ry     beta= 0.40
     Davidson diagonalization with overlap
     ethr =  7.29E-09,  avg # of iterations =  2.0

     total cpu time spent up to now is        0.5 secs

     total energy              =     -12.14231616 Ry
     estimated scf accuracy    <       0.00000012 Ry

     iteration #  5     ecut=    20.00 Ry     beta= 0.40
     Davidson diagonalization with overlap
     ethr =  1.46E-09,  avg # of iterations =  2.0

     total cpu time spent up to now is        0.5 secs

     End of self-consistent calculation

          k = 0.0000 0.0000 0.0000 (   376 PWs)   bands (ev):

    -9.9618  -4.3113  -3.0206  -2.6894

     highest occupied level (ev):    -2.6894

!    total energy              =     -12.14231617 Ry
     estimated scf accuracy    <       0.00000002 Ry

     convergence has been achieved in   5 iterations

     Forces acting on atoms (cartesian axes, Ry/au):

     atom    1 type  1   force =    -0.02583802   -0.01407695    0.10199325
     atom    2 type  2   force =    -0.01048326   -0.00374689   -0.06099916
     atom    3 type  2   force =     0.00268567    0.00525751    0.06533889
     atom    4 type  2   force =     0.03703274   -0.00448913   -0.05866981
     atom    5 type  2   force =    -0.00339712    0.01705546   -0.04766316

     Total force =     0.163784     Total SCF correction =     0.000070

     Entering Dynamics:    iteration =    11
                           time      =   0.0016 pico-seconds


ATOMIC_POSITIONS (bohr)
Si            9.4486801876        9.4511898697        9.4517494013
H            11.2627556165       11.1363758956       11.1163838708
H             9.4186022462        9.4340461607        6.6561737752
H             7.0654517057       10.0459569015       11.0943315411
H            10.0476357390        7.1075796347       10.9839771281


     kinetic energy (Ekin) =           0.01642049 Ry
     temperature           =         432.09827338 K 
     Ekin + Etot (const)   =         -12.12589568 Ry

     Linear momentum :    0.0000000000   -0.0000000000    0.0000000000

     Writing config-only to output data dir /home/pizza/codes/QEdev/q-e/tempdir/SiH4.save/
     NEW-OLD atomic charge density approx. for the potential

     total cpu time spent up to now is        0.5 secs

     Self-consistent Calculation

     iteration #  1     ecut=    20.00 Ry     beta= 0.40
     Davidson diagonalization with overlap
     ethr =  1.00E-06,  avg # of iterations =  3.0

     total cpu time spent up to now is        0.5 secs

     total energy              =     -12.14384113 Ry
     estimated scf accuracy    <       0.00001796 Ry

     iteration #  2     ecut=    20.00 Ry     beta= 0.40
     Davidson diagonalization with overlap
     ethr =  2.24E-07,  avg # of iterations =  1.0

     total cpu time spent up to now is        0.5 secs

     total energy              =     -12.14384309 Ry
     estimated scf accuracy    <       0.00000442 Ry

     iteration #  3     ecut=    20.00 Ry     beta= 0.40
     Davidson diagonalization with overlap
     ethr =  5.53E-08,  avg # of iterations =  2.0

     total cpu time spent up to now is        0.5 secs

     total energy              =     -12.14384399 Ry
     estimated scf accuracy    <       0.00000064 Ry

     iteration #  4     ecut=    20.00 Ry     beta= 0.40
     Davidson diagonalization with overlap
     ethr =  8.03E-09,  avg # of iterations =  2.0

     total cpu time spent up to now is        0.5 secs

     total energy              =     -12.14384420 Ry
     estimated scf accuracy    <       0.00000013 Ry

     iteration #  5     ecut=    20.00 Ry     beta= 0.40
     Davidson diagonalization with overlap
     ethr =  1.67E-09,  avg # of iterations =  2.0

     total cpu time spent up to now is        0.5 secs

     End of self-consistent calculation

          k = 0.0000 0.0000 0.0000 (   376 PWs)   bands (ev):

    -9.9709  -4.3262  -3.0327  -2.7000

     highest occupied level (ev):    -2.7000

!    total energy              =     -12.14384421 Ry
     estimated scf accuracy    <       0.00000003 Ry

     convergence has been achieved in   5 iterations

     Forces acting on atoms (cartesian axes, Ry/au):

     atom    1 type  1   force =    -0.02544487   -0.01232132    0.10253035
     atom    2 type  2   force =    -0.01067092   -0.00335625   -0.06058469
     atom    3 type  2   force =     0.00261223    0.00542507    0.06157615
     atom    4 type  2   force =     0.03615035   -0.00392813   -0.05780324
     atom    5 type  2   force =    -0.00264678    0.01418062   -0.04571858

     Total force =     0.160926     Total SCF correction =     0.000084

     Entering Dynamics:    iteration =    12
                           time      =   0.0017 pico-seconds


     Velocity rescaling: T ( 432.1K) out of range, reset to  300.0

ATOMIC_POSITIONS (bohr)
Si            9.4486366146        9.4513338298        9.4520492326
H            11.2669762453       11.1322466807       11.1144192973
H             9.4166937548        9.4332937435        6.6635837287
H             7.0673943042       10.0427713550       11.0909434318
H            10.0446047951        7.1116035519       10.9734987952


     kinetic energy (Ekin) =           0.01256961 Ry
     temperature           =         330.76400032 K 
     Ekin + Etot (const)   =         -12.13127461 Ry

     Linear momentum :    0.0000000000   -0.0000000000    0.0000000000

     Writing config-only to output data dir /home/pizza/codes/QEdev/q-e/tempdir/SiH4.save/
     NEW-OLD atomic charge density approx. for the potential

     total cpu time spent up to now is        0.5 secs

     Self-consistent Calculation

     iteration #  1     ecut=    20.00 Ry     beta= 0.40
     Davidson diagonalization with overlap
     ethr =  1.00E-06,  avg # of iterations =  3.0

     total cpu time spent up to now is        0.5 secs

     total energy              =     -12.14519734 Ry
     estimated scf accuracy    <       0.00001382 Ry

     iteration #  2     ecut=    20.00 Ry     beta= 0.40
     Davidson diagonalization with overlap
     ethr =  1.73E-07,  avg # of iterations =  1.0

     total cpu time spent up to now is        0.5 secs

     total energy              =     -12.14519886 Ry
     estimated scf accuracy    <       0.00000334 Ry

     iteration #  3     ecut=    20.00 Ry     beta= 0.40
     Davidson diagonalization with overlap
     ethr =  4.17E-08,  avg # of iterations =  2.0

     total cpu time spent up to now is        0.5 secs

     total energy              =     -12.14519955 Ry
     estimated scf accuracy    <       0.00000049 Ry

     iteration #  4     ecut=    20.00 Ry     beta= 0.40
     Davidson diagonalization with overlap
     ethr =  6.18E-09,  avg # of iterations =  2.0

     total cpu time spent up to now is        0.5 secs

     total energy              =     -12.14519970 Ry
     estimated scf accuracy    <       0.00000011 Ry

     iteration #  5     ecut=    20.00 Ry     beta= 0.40
     Davidson diagonalization with overlap
     ethr =  1.38E-09,  avg # of iterations =  2.0

     total cpu time spent up to now is        0.6 secs

     End of self-consistent calculation

          k = 0.0000 0.0000 0.0000 (   376 PWs)   bands (ev):

    -9.9794  -4.3397  -3.0439  -2.7099

     highest occupied level (ev):    -2.7099

!    total energy              =     -12.14519972 Ry
     estimated scf accuracy    <       0.00000003 Ry

     convergence has been achieved in   5 iterations

     Forces acting on atoms (cartesian axes, Ry/au):

     atom    1 type  1   force =    -0.02504205   -0.01074722    0.10299983
     atom    2 type  2   force =    -0.01077793   -0.00299457   -0.06016767
     atom    3 type  2   force =     0.00253959    0.00555658    0.05811960
     atom    4 type  2   force =     0.03526330   -0.00343524   -0.05696774
     atom    5 type  2   force =    -0.00198292    0.01162045   -0.04398402

     Total force =     0.158386     Total SCF correction =     0.000087

     Entering Dynamics:    iteration =    13
                           time      =   0.0019 pico-seconds


ATOMIC_POSITIONS (bohr)
Si            9.4485842373        9.4514740113        9.4523852765
H            11.2710904481       11.1280878962       11.1118606017
H             9.4148103405        9.4325961945        6.6715675806
H             7.0696851080       10.0395518875       11.0869927980
H            10.0415542709        7.1157422145       10.9625861448


     kinetic energy (Ekin) =           0.01392411 Ry
     temperature           =         366.40715303 K 
     Ekin + Etot (const)   =         -12.13127561 Ry

     Linear momentum :   -0.0000000000   -0.0000000000    0.0000000000

     Writing config-only to output data dir /home/pizza/codes/QEdev/q-e/tempdir/SiH4.save/
     NEW-OLD atomic charge density approx. for the potential

     total cpu time spent up to now is        0.6 secs

     Self-consistent Calculation

     iteration #  1     ecut=    20.00 Ry     beta= 0.40
     Davidson diagonalization with overlap
     ethr =  1.00E-06,  avg # of iterations =  3.0

     total cpu time spent up to now is        0.6 secs

     total energy              =     -12.14662279 Ry
     estimated scf accuracy    <       0.00001540 Ry

     iteration #  2     ecut=    20.00 Ry     beta= 0.40
     Davidson diagonalization with overlap
     ethr =  1.92E-07,  avg # of iterations =  1.0

     total cpu time spent up to now is        0.6 secs

     total energy              =     -12.14662448 Ry
     estimated scf accuracy    <       0.00000363 Ry

     iteration #  3     ecut=    20.00 Ry     beta= 0.40
     Davidson diagonalization with overlap
     ethr =  4.54E-08,  avg # of iterations =  2.0

     total cpu time spent up to now is        0.6 secs

     total energy              =     -12.14662526 Ry
     estimated scf accuracy    <       0.00000055 Ry

     iteration #  4     ecut=    20.00 Ry     beta= 0.40
     Davidson diagonalization with overlap
     ethr =  6.88E-09,  avg # of iterations =  1.0

     total cpu time spent up to now is        0.6 secs

     total energy              =     -12.14662542 Ry
     estimated scf accuracy    <       0.00000013 Ry

     iteration #  5     ecut=    20.00 Ry     beta= 0.40
     Davidson diagonalization with overlap
     ethr =  1.65E-09,  avg # of iterations =  2.0

     total cpu time spent up to now is        0.6 secs

     End of self-consistent calculation

          k = 0.0000 0.0000 0.0000 (   376 PWs)   bands (ev):

    -9.9886  -4.3541  -3.0560  -2.7209

     highest occupied level (ev):    -2.7209

!    total energy              =     -12.14662544 Ry
     estimated scf accuracy    <       0.00000003 Ry

     convergence has been achieved in   5 iterations

     Forces acting on atoms (cartesian axes, Ry/au):

     atom    1 type  1   force =    -0.02458780   -0.00908226    0.10348381
     atom    2 type  2   force =    -0.01082854   -0.00259114   -0.05968142
     atom    3 type  2   force =     0.00246162    0.00568352    0.05435642
     atom    4 type  2   force =     0.03423018   -0.00291424   -0.05602236
     atom    5 type  2   force =    -0.00127546    0.00890412   -0.04213646

     Total force =     0.155724     Total SCF correction =     0.000097

     Entering Dynamics:    iteration =    14
                           time      =   0.0020 pico-seconds


ATOMIC_POSITIONS (bohr)
Si            9.4485232155        9.4516109997        9.4527577030
H            11.2750977252       11.1239035256       11.1087125857
H             9.4129512334        9.4319547670        6.6800881717
H             7.0723139156       10.0363036435       11.0824889749
H            10.0384911523        7.1199688002       10.9512574205


     kinetic energy (Ekin) =           0.01534884 Ry
     temperature           =         403.89846132 K 
     Ekin + Etot (const)   =         -12.13127660 Ry

     Linear momentum :   -0.0000000000    0.0000000000   -0.0000000000

     Writing config-only to output data dir /home/pizza/codes/QEdev/q-e/tempdir/SiH4.save/
     NEW-OLD atomic charge density approx. for the potential

     total cpu time spent up to now is        0.6 secs

     Self-consistent Calculation

     iteration #  1     ecut=    20.00 Ry     beta= 0.40
     Davidson diagonalization with overlap
     ethr =  1.00E-06,  avg # of iterations =  3.0

     total cpu time spent up to now is        0.6 secs

     total energy              =     -12.14810009 Ry
     estimated scf accuracy    <       0.00001704 Ry

     iteration #  2     ecut=    20.00 Ry     beta= 0.40
     Davidson diagonalization with overlap
     ethr =  2.13E-07,  avg # of iterations =  1.0

     total cpu time spent up to now is        0.6 secs

     total energy              =     -12.14810197 Ry
     estimated scf accuracy    <       0.00000394 Ry

     iteration #  3     ecut=    20.00 Ry     beta= 0.40
     Davidson diagonalization with overlap
     ethr =  4.93E-08,  avg # of iterations =  2.0

     total cpu time spent up to now is        0.6 secs

     total energy              =     -12.14810283 Ry
     estimated scf accuracy    <       0.00000061 Ry

     iteration #  4     ecut=    20.00 Ry     beta= 0.40
     Davidson diagonalization with overlap
     ethr =  7.61E-09,  avg # of iterations =  1.0

     total cpu time spent up to now is        0.6 secs

     total energy              =     -12.14810300 Ry
     estimated scf accuracy    <       0.00000016 Ry

     iteration #  5     ecut=    20.00 Ry     beta= 0.40
     Davidson diagonalization with overlap
     ethr =  1.99E-09,  avg # of iterations =  2.0

     total cpu time spent up to now is        0.6 secs

     End of self-consistent calculation

          k = 0.0000 0.0000 0.0000 (   376 PWs)   bands (ev):

    -9.9987  -4.3693  -3.0691  -2.7330

     highest occupied level (ev):    -2.7330

!    total energy              =     -12.14810302 Ry
     estimated scf accuracy    <       0.00000005 Ry

     convergence has been achieved in   5 iterations

     Forces acting on atoms (cartesian axes, Ry/au):

     atom    1 type  1   force =    -0.02406124   -0.00732993    0.10397726
     atom    2 type  2   force =    -0.01083103   -0.00214763   -0.05912559
     atom    3 type  2   force =     0.00237480    0.00580561    0.05029616
     atom    4 type  2   force =     0.03304753   -0.00236339   -0.05496427
     atom    5 type  2   force =    -0.00053006    0.00603534   -0.04018355

     Total force =     0.152974     Total SCF correction =     0.000113

     Entering Dynamics:    iteration =    15
                           time      =   0.0022 pico-seconds


     Velocity rescaling: T ( 403.9K) out of range, reset to  300.0

ATOMIC_POSITIONS (bohr)
Si            9.4484621653        9.4517264842        9.4531152297
H            11.2784443896       11.1202760786       11.1054156809
H             9.4113724381        9.4314592890        6.6879281685
H             7.0749058419       10.0334808534       11.0780646776
H            10.0358460130        7.1236710187       10.9410971304


     kinetic energy (Ekin) =           0.01258672 Ry
     temperature           =         331.21429358 K 
     Ekin + Etot (const)   =         -12.13551630 Ry

     Linear momentum :    0.0000000000    0.0000000000   -0.0000000000

     Writing config-only to output data dir /home/pizza/codes/QEdev/q-e/tempdir/SiH4.save/
     NEW-OLD atomic charge density approx. for the potential

     total cpu time spent up to now is        0.6 secs

     Self-consistent Calculation

     iteration #  1     ecut=    20.00 Ry     beta= 0.40
     Davidson diagonalization with overlap
     ethr =  1.00E-06,  avg # of iterations =  3.0

     total cpu time spent up to now is        0.6 secs

     total energy              =     -12.14942436 Ry
     estimated scf accuracy    <       0.00001340 Ry

     iteration #  2     ecut=    20.00 Ry     beta= 0.40
     Davidson diagonalization with overlap
     ethr =  1.67E-07,  avg # of iterations =  1.0

     total cpu time spent up to now is        0.6 secs

     total energy              =     -12.14942594 Ry
     estimated scf accuracy    <       0.00000330 Ry

     iteration #  3     ecut=    20.00 Ry     beta= 0.40
     Davidson diagonalization with overlap
     ethr =  4.13E-08,  avg # of iterations =  2.0

     total cpu time spent up to now is        0.6 secs

     total energy              =     -12.14942676 Ry
     estimated scf accuracy    <       0.00000061 Ry

     iteration #  4     ecut=    20.00 Ry     beta= 0.40
     Davidson diagonalization with overlap
     ethr =  7.57E-09,  avg # of iterations =  1.0

     total cpu time spent up to now is        0.6 secs

     total energy              =     -12.14942677 Ry
     estimated scf accuracy    <       0.00000029 Ry

     iteration #  5     ecut=    20.00 Ry     beta= 0.40
     Davidson diagonalization with overlap
     ethr =  3.67E-09,  avg # of iterations =  2.0

     total cpu time spent up to now is        0.6 secs

     total energy              =     -12.14942687 Ry
     estimated scf accuracy    <       0.00000015 Ry

     iteration #  6     ecut=    20.00 Ry     beta= 0.40
     Davidson diagonalization with overlap
     ethr =  1.93E-09,  avg # of iterations =  1.0

     total cpu time spent up to now is        0.6 secs

     End of self-consistent calculation

          k = 0.0000 0.0000 0.0000 (   376 PWs)   bands (ev):

   -10.0081  -4.3833  -3.0814  -2.7445

     highest occupied level (ev):    -2.7445

!    total energy              =     -12.14942683 Ry
     estimated scf accuracy    <       0.00000007 Ry

     convergence has been achieved in   6 iterations

     Forces acting on atoms (cartesian axes, Ry/au):

     atom    1 type  1   force =    -0.02354223   -0.00576237    0.10437965
     atom    2 type  2   force =    -0.01078246   -0.00172577   -0.05857225
     atom    3 type  2   force =     0.00229262    0.00590975    0.04653302
     atom    4 type  2   force =     0.03188408   -0.00185624   -0.05393714
     atom    5 type  2   force =     0.00014799    0.00343464   -0.03840328

     Total force =     0.150512     Total SCF correction =     0.000149

     Entering Dynamics:    iteration =    16
                           time      =   0.0023 pico-seconds


ATOMIC_POSITIONS (bohr)
Si            9.4483928381        9.4518399427        9.4535094541
H            11.2816845833       11.1166315906       11.1015404080
H             9.4098162811        9.4310221664        6.6962276526
H             7.0778126055       10.0306397339       11.0731077814
H            10.0332023351        7.1274071523       10.9305576295


     kinetic energy (Ekin) =           0.01390983 Ry
     temperature           =         366.03152918 K 
     Ekin + Etot (const)   =         -12.13551699 Ry

     Linear momentum :    0.0000000000    0.0000000000    0.0000000000

     Writing config-only to output data dir /home/pizza/codes/QEdev/q-e/tempdir/SiH4.save/
     NEW-OLD atomic charge density approx. for the potential

     total cpu time spent up to now is        0.7 secs

     Self-consistent Calculation

     iteration #  1     ecut=    20.00 Ry     beta= 0.40
     Davidson diagonalization with overlap
     ethr =  1.00E-06,  avg # of iterations =  3.0

     total cpu time spent up to now is        0.7 secs

     total energy              =     -12.15078694 Ry
     estimated scf accuracy    <       0.00001432 Ry

     iteration #  2     ecut=    20.00 Ry     beta= 0.40
     Davidson diagonalization with overlap
     ethr =  1.79E-07,  avg # of iterations =  1.0

     total cpu time spent up to now is        0.7 secs

     total energy              =     -12.15078870 Ry
     estimated scf accuracy    <       0.00000355 Ry

     iteration #  3     ecut=    20.00 Ry     beta= 0.40
     Davidson diagonalization with overlap
     ethr =  4.43E-08,  avg # of iterations =  2.0

     total cpu time spent up to now is        0.7 secs

     total energy              =     -12.15078960 Ry
     estimated scf accuracy    <       0.00000066 Ry

     iteration #  4     ecut=    20.00 Ry     beta= 0.40
     Davidson diagonalization with overlap
     ethr =  8.20E-09,  avg # of iterations =  1.0

     total cpu time spent up to now is        0.7 secs

     total energy              =     -12.15078956 Ry
     estimated scf accuracy    <       0.00000038 Ry

     iteration #  5     ecut=    20.00 Ry     beta= 0.40
     Davidson diagonalization with overlap
     ethr =  4.75E-09,  avg # of iterations =  2.0

     total cpu time spent up to now is        0.7 secs

     total energy              =     -12.15078970 Ry
     estimated scf accuracy    <       0.00000022 Ry

     iteration #  6     ecut=    20.00 Ry     beta= 0.40
     Davidson diagonalization with overlap
     ethr =  2.73E-09,  avg # of iterations =  1.0

     total cpu time spent up to now is        0.7 secs

     total energy              =     -12.15078965 Ry
     estimated scf accuracy    <       0.00000010 Ry

     iteration #  7     ecut=    20.00 Ry     beta= 0.40
     Davidson diagonalization with overlap
     ethr =  1.28E-09,  avg # of iterations =  2.0

     total cpu time spent up to now is        0.7 secs

     End of self-consistent calculation

          k = 0.0000 0.0000 0.0000 (   376 PWs)   bands (ev):

   -10.0180  -4.3976  -3.0947  -2.7574

     highest occupied level (ev):    -2.7574

!    total energy              =     -12.15078967 Ry
     estimated scf accuracy    <          1.3E-09 Ry

     convergence has been achieved in   7 iterations

     Forces acting on atoms (cartesian axes, Ry/au):

     atom    1 type  1   force =    -0.02294631   -0.00411029    0.10481456
     atom    2 type  2   force =    -0.01067886   -0.00126417   -0.05795118
     atom    3 type  2   force =     0.00220162    0.00600492    0.04245242
     atom    4 type  2   force =     0.03056412   -0.00132412   -0.05279366
     atom    5 type  2   force =     0.00085943    0.00069366   -0.03652214

     Total force =     0.148003     Total SCF correction =     0.000025

     Entering Dynamics:    iteration =    17
                           time      =   0.0025 pico-seconds


ATOMIC_POSITIONS (bohr)
Si            9.4483154435        9.4519519562        9.4539405291
H            11.2848193293       11.1129746196       11.0970928997
H             9.4082818639        9.4306443390        6.7049463306
H             7.0810211727       10.0277855395       11.0676295774
H            10.0305671436        7.1311501355       10.9196574929


     kinetic energy (Ekin) =           0.01527179 Ry
     temperature           =         401.87079947 K 
     Ekin + Etot (const)   =         -12.13551789 Ry

     Linear momentum :    0.0000000000    0.0000000000   -0.0000000000

     Writing config-only to output data dir /home/pizza/codes/QEdev/q-e/tempdir/SiH4.save/
     NEW-OLD atomic charge density approx. for the potential

     total cpu time spent up to now is        0.7 secs

     Self-consistent Calculation

     iteration #  1     ecut=    20.00 Ry     beta= 0.40
     Davidson diagonalization with overlap
     ethr =  1.00E-06,  avg # of iterations =  3.0

     total cpu time spent up to now is        0.7 secs

     total energy              =     -12.15217191 Ry
     estimated scf accuracy    <       0.00001785 Ry

     iteration #  2     ecut=    20.00 Ry     beta= 0.40
     Davidson diagonalization with overlap
     ethr =  2.23E-07,  avg # of iterations =  1.0

     total cpu time spent up to now is        0.7 secs

     total energy              =     -12.15217377 Ry
     estimated scf accuracy    <       0.00000389 Ry

     iteration #  3     ecut=    20.00 Ry     beta= 0.40
     Davidson diagonalization with overlap
     ethr =  4.86E-08,  avg # of iterations =  2.0

     total cpu time spent up to now is        0.7 secs

     total energy              =     -12.15217472 Ry
     estimated scf accuracy    <       0.00000065 Ry

     iteration #  4     ecut=    20.00 Ry     beta= 0.40
     Davidson diagonalization with overlap
     ethr =  8.16E-09,  avg # of iterations =  1.0

     total cpu time spent up to now is        0.7 secs

     total energy              =     -12.15217483 Ry
     estimated scf accuracy    <       0.00000027 Ry

     iteration #  5     ecut=    20.00 Ry     beta= 0.40
     Davidson diagonalization with overlap
     ethr =  3.35E-09,  avg # of iterations =  2.0

     total cpu time spent up to now is        0.7 secs

     total energy              =     -12.15217491 Ry
     estimated scf accuracy    <       0.00000011 Ry

     iteration #  6     ecut=    20.00 Ry     beta= 0.40
     Davidson diagonalization with overlap
     ethr =  1.41E-09,  avg # of iterations =  1.0

     total cpu time spent up to now is        0.7 secs

     End of self-consistent calculation

          k = 0.0000 0.0000 0.0000 (   376 PWs)   bands (ev):

   -10.0288  -4.4129  -3.1084  -2.7706

     highest occupied level (ev):    -2.7706

!    total energy              =     -12.15217488 Ry
     estimated scf accuracy    <       0.00000005 Ry

     convergence has been achieved in   6 iterations

     Forces acting on atoms (cartesian axes, Ry/au):

     atom    1 type  1   force =    -0.02227898   -0.00240211    0.10523097
     atom    2 type  2   force =    -0.01052575   -0.00076470   -0.05727471
     atom    3 type  2   force =     0.00210570    0.00609474    0.03817600
     atom    4 type  2   force =     0.02910063   -0.00076851   -0.05155634
     atom    5 type  2   force =     0.00159840   -0.00215942   -0.03457592

     Total force =     0.145515     Total SCF correction =     0.000130

     Entering Dynamics:    iteration =    18
                           time      =   0.0026 pico-seconds


     Velocity rescaling: T ( 401.9K) out of range, reset to  300.0

ATOMIC_POSITIONS (bohr)
Si            9.4482407412        9.4520478921        9.4543499779
H            11.2874238367       11.1098074191       11.0926846646
H             9.4069769088        9.4303780754        6.7128562984
H             7.0840807504       10.0253119061       11.0623872794
H            10.0283061023        7.1343627772       10.9098982777


     kinetic energy (Ekin) =           0.01251588 Ry
     temperature           =         329.35010744 K 
     Ekin + Etot (const)   =         -12.13965900 Ry

     Linear momentum :    0.0000000000    0.0000000000   -0.0000000000

     Writing config-only to output data dir /home/pizza/codes/QEdev/q-e/tempdir/SiH4.save/
     NEW-OLD atomic charge density approx. for the potential

     total cpu time spent up to now is        0.7 secs

     Self-consistent Calculation

     iteration #  1     ecut=    20.00 Ry     beta= 0.40
     Davidson diagonalization with overlap
     ethr =  1.00E-06,  avg # of iterations =  3.0

     total cpu time spent up to now is        0.7 secs

     total energy              =     -12.15339310 Ry
     estimated scf accuracy    <       0.00001302 Ry

     iteration #  2     ecut=    20.00 Ry     beta= 0.40
     Davidson diagonalization with overlap
     ethr =  1.63E-07,  avg # of iterations =  1.0

     total cpu time spent up to now is        0.7 secs

     total energy              =     -12.15339464 Ry
     estimated scf accuracy    <       0.00000319 Ry

     iteration #  3     ecut=    20.00 Ry     beta= 0.40
     Davidson diagonalization with overlap
     ethr =  3.99E-08,  avg # of iterations =  2.0

     total cpu time spent up to now is        0.7 secs

     total energy              =     -12.15339555 Ry
     estimated scf accuracy    <       0.00000063 Ry

     iteration #  4     ecut=    20.00 Ry     beta= 0.40
     Davidson diagonalization with overlap
     ethr =  7.83E-09,  avg # of iterations =  1.0

     total cpu time spent up to now is        0.7 secs

     total energy              =     -12.15339542 Ry
     estimated scf accuracy    <       0.00000050 Ry

     iteration #  5     ecut=    20.00 Ry     beta= 0.40
     Davidson diagonalization with overlap
     ethr =  6.30E-09,  avg # of iterations =  2.0

     total cpu time spent up to now is        0.7 secs

     total energy              =     -12.15339561 Ry
     estimated scf accuracy    <       0.00000019 Ry

     iteration #  6     ecut=    20.00 Ry     beta= 0.40
     Davidson diagonalization with overlap
     ethr =  2.39E-09,  avg # of iterations =  1.0

     total cpu time spent up to now is        0.7 secs

     total energy              =     -12.15339551 Ry
     estimated scf accuracy    <       0.00000022 Ry

     iteration #  7     ecut=    20.00 Ry     beta= 0.40
     Davidson diagonalization with overlap
     ethr =  2.39E-09,  avg # of iterations =  2.0

     total cpu time spent up to now is        0.7 secs

     End of self-consistent calculation

          k = 0.0000 0.0000 0.0000 (   376 PWs)   bands (ev):

   -10.0386  -4.4263  -3.1214  -2.7836

     highest occupied level (ev):    -2.7836

!    total energy              =     -12.15339554 Ry
     estimated scf accuracy    <          5.4E-09 Ry

     convergence has been achieved in   7 iterations

     Forces acting on atoms (cartesian axes, Ry/au):

     atom    1 type  1   force =    -0.02162227   -0.00087849    0.10557653
     atom    2 type  2   force =    -0.01034086   -0.00029766   -0.05661623
     atom    3 type  2   force =     0.00201193    0.00616787    0.03421467
     atom    4 type  2   force =     0.02768696   -0.00026088   -0.05036832
     atom    5 type  2   force =     0.00226424   -0.00473084   -0.03280665

     Total force =     0.143343     Total SCF correction =     0.000036

     Entering Dynamics:    iteration =    19
                           time      =   0.0028 pico-seconds


ATOMIC_POSITIONS (bohr)
Si            9.4481584370        9.4521435191        9.4547965452
H            11.2899262340       11.1066372793       11.0877173760
H             9.4056918205        9.4301727162        6.7211041169
H             7.0874137213       10.0228356968       11.0566476226
H            10.0260674191        7.1375287045       10.8998151152


     kinetic energy (Ekin) =           0.01373589 Ry
     temperature           =         361.45424686 K 
     Ekin + Etot (const)   =         -12.13965965 Ry

     Linear momentum :    0.0000000000    0.0000000000   -0.0000000000

     Writing config-only to output data dir /home/pizza/codes/QEdev/q-e/tempdir/SiH4.save/
     NEW-OLD atomic charge density approx. for the potential

     total cpu time spent up to now is        0.8 secs

     Self-consistent Calculation

     iteration #  1     ecut=    20.00 Ry     beta= 0.40
     Davidson diagonalization with overlap
     ethr =  1.00E-06,  avg # of iterations =  3.0

     total cpu time spent up to now is        0.8 secs

     total energy              =     -12.15462857 Ry
     estimated scf accuracy    <       0.00001488 Ry

     iteration #  2     ecut=    20.00 Ry     beta= 0.40
     Davidson diagonalization with overlap
     ethr =  1.86E-07,  avg # of iterations =  1.0

     total cpu time spent up to now is        0.8 secs

     total energy              =     -12.15463019 Ry
     estimated scf accuracy    <       0.00000359 Ry

     iteration #  3     ecut=    20.00 Ry     beta= 0.40
     Davidson diagonalization with overlap
     ethr =  4.49E-08,  avg # of iterations =  2.0

     total cpu time spent up to now is        0.8 secs

     total energy              =     -12.15463129 Ry
     estimated scf accuracy    <       0.00000075 Ry

     iteration #  4     ecut=    20.00 Ry     beta= 0.40
     Davidson diagonalization with overlap
     ethr =  9.33E-09,  avg # of iterations =  1.0

     total cpu time spent up to now is        0.8 secs

     total energy              =     -12.15463124 Ry
     estimated scf accuracy    <       0.00000067 Ry

     iteration #  5     ecut=    20.00 Ry     beta= 0.40
     Davidson diagonalization with overlap
     ethr =  8.42E-09,  avg # of iterations =  1.0

     total cpu time spent up to now is        0.8 secs

     total energy              =     -12.15463124 Ry
     estimated scf accuracy    <       0.00000019 Ry

     iteration #  6     ecut=    20.00 Ry     beta= 0.40
     Davidson diagonalization with overlap
     ethr =  2.38E-09,  avg # of iterations =  3.0

     total cpu time spent up to now is        0.8 secs

     total energy              =     -12.15463126 Ry
     estimated scf accuracy    <       0.00000082 Ry

     iteration #  7     ecut=    20.00 Ry     beta= 0.40
     Davidson diagonalization with overlap
     ethr =  2.38E-09,  avg # of iterations =  2.0

     total cpu time spent up to now is        0.8 secs

     total energy              =     -12.15463122 Ry
     estimated scf accuracy    <       0.00000020 Ry

     iteration #  8     ecut=    20.00 Ry     beta= 0.40
     Davidson diagonalization with overlap
     ethr =  2.38E-09,  avg # of iterations =  2.0

     total cpu time spent up to now is        0.8 secs

     End of self-consistent calculation

          k = 0.0000 0.0000 0.0000 (   376 PWs)   bands (ev):

   -10.0491  -4.4403  -3.1350  -2.7973

     highest occupied level (ev):    -2.7973

!    total energy              =     -12.15463124 Ry
     estimated scf accuracy    <       0.00000001 Ry

     convergence has been achieved in   8 iterations

     Forces acting on atoms (cartesian axes, Ry/au):

     atom    1 type  1   force =    -0.02089334    0.00067542    0.10590807
     atom    2 type  2   force =    -0.01010178    0.00020707   -0.05589722
     atom    3 type  2   force =     0.00191417    0.00623706    0.03004685
     atom    4 type  2   force =     0.02612879    0.00027075   -0.04907923
     atom    5 type  2   force =     0.00295215   -0.00739031   -0.03097846

     Total force =     0.141209     Total SCF correction =     0.000062

     Entering Dynamics:    iteration =    20
                           time      =   0.0029 pico-seconds


ATOMIC_POSITIONS (bohr)
Si            9.4480687871        9.4522393836        9.4552803476
H            11.2923288819       11.1034691842       11.0821981338
H             9.4044256335        9.4300289444        6.7296486311
H             7.0910046994       10.0203621609       11.0504233359
H            10.0238578868        7.1406216567       10.8894260578


     kinetic energy (Ekin) =           0.01497090 Ry
     temperature           =         393.95293340 K 
     Ekin + Etot (const)   =         -12.13966034 Ry

     Linear momentum :    0.0000000000    0.0000000000   -0.0000000000

     Writing config-only to output data dir /home/pizza/codes/QEdev/q-e/tempdir/SiH4.save/
     NEW-OLD atomic charge density approx. for the potential

     total cpu time spent up to now is        0.8 secs

     Self-consistent Calculation

     iteration #  1     ecut=    20.00 Ry     beta= 0.40
     Davidson diagonalization with overlap
     ethr =  1.00E-06,  avg # of iterations =  3.0

     total cpu time spent up to now is        0.8 secs

     total energy              =     -12.15586544 Ry
     estimated scf accuracy    <       0.00001685 Ry

     iteration #  2     ecut=    20.00 Ry     beta= 0.40
     Davidson diagonalization with overlap
     ethr =  2.11E-07,  avg # of iterations =  1.0

     total cpu time spent up to now is        0.8 secs

     total energy              =     -12.15586727 Ry
     estimated scf accuracy    <       0.00000367 Ry

     iteration #  3     ecut=    20.00 Ry     beta= 0.40
     Davidson diagonalization with overlap
     ethr =  4.59E-08,  avg # of iterations =  2.0

     total cpu time spent up to now is        0.8 secs

     total energy              =     -12.15586822 Ry
     estimated scf accuracy    <       0.00000063 Ry

     iteration #  4     ecut=    20.00 Ry     beta= 0.40
     Davidson diagonalization with overlap
     ethr =  7.87E-09,  avg # of iterations =  1.0

     total cpu time spent up to now is        0.8 secs

     total energy              =     -12.15586822 Ry
     estimated scf accuracy    <       0.00000041 Ry

     iteration #  5     ecut=    20.00 Ry     beta= 0.40
     Davidson diagonalization with overlap
     ethr =  5.13E-09,  avg # of iterations =  2.0

     total cpu time spent up to now is        0.8 secs

     total energy              =     -12.15586836 Ry
     estimated scf accuracy    <       0.00000023 Ry

     iteration #  6     ecut=    20.00 Ry     beta= 0.40
     Davidson diagonalization with overlap
     ethr =  2.88E-09,  avg # of iterations =  1.0

     total cpu time spent up to now is        0.8 secs

     total energy              =     -12.15586830 Ry
     estimated scf accuracy    <       0.00000012 Ry

     iteration #  7     ecut=    20.00 Ry     beta= 0.40
     Davidson diagonalization with overlap
     ethr =  1.47E-09,  avg # of iterations =  2.0

     total cpu time spent up to now is        0.8 secs

     End of self-consistent calculation

          k = 0.0000 0.0000 0.0000 (   376 PWs)   bands (ev):

   -10.0600  -4.4544  -3.1493  -2.8122

     highest occupied level (ev):    -2.8122

!    total energy              =     -12.15586833 Ry
     estimated scf accuracy    <          6.5E-10 Ry

     convergence has been achieved in   7 iterations

     Forces acting on atoms (cartesian axes, Ry/au):

     atom    1 type  1   force =    -0.02008577    0.00224013    0.10619511
     atom    2 type  2   force =    -0.00980644    0.00075398   -0.05511145
     atom    3 type  2   force =     0.00180992    0.00630609    0.02567729
     atom    4 type  2   force =     0.02442094    0.00083075   -0.04767925
     atom    5 type  2   force =     0.00366134   -0.01013096   -0.02908171

     Total force =     0.139120     Total SCF correction =     0.000018

     Entering Dynamics:    iteration =    21
                           time      =   0.0030 pico-seconds


ATOMIC_POSITIONS (bohr)
Si            9.4479720755        9.4523360357        9.4558014858
H            11.2946346966       11.1003085343       11.0761346970
H             9.4031773185        9.4299474417        6.7384466941
H             7.0948368205       10.0178968283       11.0437282435
H            10.0216845082        7.1436145713       10.8787498349


     kinetic energy (Ekin) =           0.01620724 Ry
     temperature           =         426.48676508 K 
     Ekin + Etot (const)   =         -12.13966109 Ry

     Linear momentum :    0.0000000000    0.0000000000   -0.0000000000

     Writing config-only to output data dir /home/pizza/codes/QEdev/q-e/tempdir/SiH4.save/
     NEW-OLD atomic charge density approx. for the potential

     total cpu time spent up to now is        0.8 secs

     Self-consistent Calculation

     iteration #  1     ecut=    20.00 Ry     beta= 0.40
     Davidson diagonalization with overlap
     ethr =  1.00E-06,  avg # of iterations =  3.0

     total cpu time spent up to now is        0.8 secs

     total energy              =     -12.15709045 Ry
     estimated scf accuracy    <       0.00001890 Ry

     iteration #  2     ecut=    20.00 Ry     beta= 0.40
     Davidson diagonalization with overlap
     ethr =  2.36E-07,  avg # of iterations =  1.0

     total cpu time spent up to now is        0.8 secs

     total energy              =     -12.15709239 Ry
     estimated scf accuracy    <       0.00000405 Ry

     iteration #  3     ecut=    20.00 Ry     beta= 0.40
     Davidson diagonalization with overlap
     ethr =  5.06E-08,  avg # of iterations =  2.0

     total cpu time spent up to now is        0.8 secs

     total energy              =     -12.15709349 Ry
     estimated scf accuracy    <       0.00000071 Ry

     iteration #  4     ecut=    20.00 Ry     beta= 0.40
     Davidson diagonalization with overlap
     ethr =  8.86E-09,  avg # of iterations =  1.0

     total cpu time spent up to now is        0.8 secs

     total energy              =     -12.15709347 Ry
     estimated scf accuracy    <       0.00000051 Ry

     iteration #  5     ecut=    20.00 Ry     beta= 0.40
     Davidson diagonalization with overlap
     ethr =  6.37E-09,  avg # of iterations =  2.0

     total cpu time spent up to now is        0.8 secs

[...]

     Self-consistent Calculation

     iteration #  1     ecut=    20.00 Ry     beta= 0.40
     Davidson diagonalization with overlap
     ethr =  1.00E-06,  avg # of iterations =  3.0

     Threshold (ethr) on eigenvalues was too large:
     Diagonalizing with lowered threshold

     Davidson diagonalization with overlap
     ethr =  8.49E-08,  avg # of iterations =  2.0

     total cpu time spent up to now is       37.8 secs

     total energy              =     -12.04592394 Ry
     estimated scf accuracy    <       0.00000773 Ry

     iteration #  2     ecut=    20.00 Ry     beta= 0.40
     Davidson diagonalization with overlap
     ethr =  9.67E-08,  avg # of iterations =  1.0

     total cpu time spent up to now is       37.8 secs

     total energy              =     -12.04592518 Ry
     estimated scf accuracy    <       0.00000252 Ry

     iteration #  3     ecut=    20.00 Ry     beta= 0.40
     Davidson diagonalization with overlap
     ethr =  3.16E-08,  avg # of iterations =  2.0

     total cpu time spent up to now is       37.8 secs

     End of self-consistent calculation

          k = 0.0000 0.0000 0.0000 (   376 PWs)   bands (ev):

   -10.4060  -4.6564  -4.1663  -1.4674

     highest occupied level (ev):    -1.4674

!    total energy              =     -12.04592534 Ry
     estimated scf accuracy    <       0.00000007 Ry

     convergence has been achieved in   3 iterations

     Forces acting on atoms (cartesian axes, Ry/au):

     atom    1 type  1   force =     0.01468681    0.01772644   -0.52053978
     atom    2 type  2   force =    -0.01062343   -0.01071818   -0.04629416
     atom    3 type  2   force =    -0.01358724   -0.01462686    0.01942302
     atom    4 type  2   force =     0.00320648    0.00603253   -0.02945737
     atom    5 type  2   force =     0.00631738    0.00158606   -0.03210335

     Total force =     0.525952     Total SCF correction =     0.000131

     Entering Dynamics:    iteration =   495
                           time      =   0.0718 pico-seconds


     Velocity rescaling: T ( 440.5K) out of range, reset to  300.0

ATOMIC_POSITIONS (bohr)
Si            9.4797138594        9.4788009070        9.0470748452
H            11.2366969889       11.2654083493        7.8132923172
H             7.9685802004        7.9749049406        7.3704118662
H             6.9796402870       10.7101986695        8.9341546901
H            10.7379161257        6.9979630399        8.9343955862


     kinetic energy (Ekin) =           0.01304333 Ry
     temperature           =         343.22981294 K 
     Ekin + Etot (const)   =         -12.03288201 Ry
     Message from routine dynamics:
     Total linear momentum <> 0

     Linear momentum :    0.0000000000   -0.0000000000   -2.5517036120

     Writing config-only to output data dir /home/pizza/codes/QEdev/q-e/tempdir/SiH4.save/
     NEW-OLD atomic charge density approx. for the potential

     total cpu time spent up to now is       38.0 secs

     Self-consistent Calculation

     iteration #  1     ecut=    20.00 Ry     beta= 0.40
     Davidson diagonalization with overlap
     ethr =  1.00E-06,  avg # of iterations =  3.0

     Threshold (ethr) on eigenvalues was too large:
     Diagonalizing with lowered threshold

     Davidson diagonalization with overlap
     ethr =  6.50E-08,  avg # of iterations =  2.0

     total cpu time spent up to now is       38.0 secs

     total energy              =     -12.04543520 Ry
     estimated scf accuracy    <       0.00000592 Ry

     iteration #  2     ecut=    20.00 Ry     beta= 0.40
     Davidson diagonalization with overlap
     ethr =  7.41E-08,  avg # of iterations =  1.0

     total cpu time spent up to now is       38.0 secs

     total energy              =     -12.04543615 Ry
     estimated scf accuracy    <       0.00000193 Ry

     iteration #  3     ecut=    20.00 Ry     beta= 0.40
     Davidson diagonalization with overlap
     ethr =  2.41E-08,  avg # of iterations =  2.0

     total cpu time spent up to now is       38.0 secs

     End of self-consistent calculation

          k = 0.0000 0.0000 0.0000 (   376 PWs)   bands (ev):

   -10.4065  -4.6579  -4.1664  -1.4624

     highest occupied level (ev):    -1.4624

!    total energy              =     -12.04543627 Ry
     estimated scf accuracy    <       0.00000005 Ry

     convergence has been achieved in   3 iterations

     Forces acting on atoms (cartesian axes, Ry/au):

     atom    1 type  1   force =     0.01476854    0.01784705   -0.53337416
     atom    2 type  2   force =    -0.01067166   -0.01075254   -0.04635121
     atom    3 type  2   force =    -0.01361110   -0.01462286    0.02145146
     atom    4 type  2   force =     0.00321029    0.00598808   -0.03137948
     atom    5 type  2   force =     0.00630394    0.00154026   -0.03295361

     Total force =     0.538907     Total SCF correction =     0.000119

     Entering Dynamics:    iteration =   496
                           time      =   0.0720 pico-seconds


ATOMIC_POSITIONS (bohr)
Si            9.4798517774        9.4789417771        9.0448476862
H            11.2349311061       11.2635580355        7.8047030980
H             7.9647606791        7.9708858269        7.3746059571
H             6.9800376437       10.7116091446        8.9297067510
H            10.7392306087        6.9984655147        8.9294450816


     kinetic energy (Ekin) =           0.01501892 Ry
     temperature           =         395.21677726 K 
     Ekin + Etot (const)   =         -12.03041735 Ry
     Message from routine dynamics:
     Total linear momentum <> 0

     Linear momentum :    0.0000000000   -0.0000000000   -2.7826246062

     Writing config-only to output data dir /home/pizza/codes/QEdev/q-e/tempdir/SiH4.save/
     NEW-OLD atomic charge density approx. for the potential

     total cpu time spent up to now is       38.1 secs

     Self-consistent Calculation

     iteration #  1     ecut=    20.00 Ry     beta= 0.40
     Davidson diagonalization with overlap
     ethr =  1.00E-06,  avg # of iterations =  3.0

     Threshold (ethr) on eigenvalues was too large:
     Diagonalizing with lowered threshold

     Davidson diagonalization with overlap
     ethr =  7.17E-08,  avg # of iterations =  2.0

     total cpu time spent up to now is       38.1 secs

     total energy              =     -12.04490806 Ry
     estimated scf accuracy    <       0.00000653 Ry

     iteration #  2     ecut=    20.00 Ry     beta= 0.40
     Davidson diagonalization with overlap
     ethr =  8.16E-08,  avg # of iterations =  1.0

     total cpu time spent up to now is       38.1 secs

     total energy              =     -12.04490912 Ry
     estimated scf accuracy    <       0.00000213 Ry

     iteration #  3     ecut=    20.00 Ry     beta= 0.40
     Davidson diagonalization with overlap
     ethr =  2.66E-08,  avg # of iterations =  2.0

     total cpu time spent up to now is       38.1 secs

     End of self-consistent calculation

          k = 0.0000 0.0000 0.0000 (   376 PWs)   bands (ev):

   -10.4071  -4.6596  -4.1666  -1.4572

     highest occupied level (ev):    -1.4572

!    total energy              =     -12.04490926 Ry
     estimated scf accuracy    <       0.00000006 Ry

     convergence has been achieved in   3 iterations

     Forces acting on atoms (cartesian axes, Ry/au):

     atom    1 type  1   force =     0.01487426    0.01797964   -0.54551295
     atom    2 type  2   force =    -0.01071945   -0.01078582   -0.04640538
     atom    3 type  2   force =    -0.01365127   -0.01463412    0.02301744
     atom    4 type  2   force =     0.00320550    0.00594695   -0.03263268
     atom    5 type  2   force =     0.00629097    0.00149336   -0.03309018

     Total force =     0.551082     Total SCF correction =     0.000126

     Entering Dynamics:    iteration =   497
                           time      =   0.0721 pico-seconds


ATOMIC_POSITIONS (bohr)
Si            9.4799949248        9.4790889685        9.0424287364
H            11.2330593747       11.2616012178        7.7956556518
H             7.9608063592        7.9667222095        7.3790273323
H             6.9804666529       10.7130783424        8.9249365825
H            10.7406072115        6.9989827355        8.9241678300


     kinetic energy (Ekin) =           0.01719155 Ry
     temperature           =         452.38840877 K 
     Ekin + Etot (const)   =         -12.02771771 Ry
     Message from routine dynamics:
     Total linear momentum <> 0

     Linear momentum :    0.0000000000   -0.0000000000   -3.0183553711

     Writing config-only to output data dir /home/pizza/codes/QEdev/q-e/tempdir/SiH4.save/
     NEW-OLD atomic charge density approx. for the potential

     total cpu time spent up to now is       38.2 secs

     Self-consistent Calculation

     iteration #  1     ecut=    20.00 Ry     beta= 0.40
     Davidson diagonalization with overlap
     ethr =  1.00E-06,  avg # of iterations =  3.0

     Threshold (ethr) on eigenvalues was too large:
     Diagonalizing with lowered threshold

     Davidson diagonalization with overlap
     ethr =  7.93E-08,  avg # of iterations =  2.0

     total cpu time spent up to now is       38.2 secs

     total energy              =     -12.04434054 Ry
     estimated scf accuracy    <       0.00000723 Ry

     iteration #  2     ecut=    20.00 Ry     beta= 0.40
     Davidson diagonalization with overlap
     ethr =  9.04E-08,  avg # of iterations =  1.0

     total cpu time spent up to now is       38.2 secs

     total energy              =     -12.04434174 Ry
     estimated scf accuracy    <       0.00000236 Ry

     iteration #  3     ecut=    20.00 Ry     beta= 0.40
     Davidson diagonalization with overlap
     ethr =  2.95E-08,  avg # of iterations =  2.0

     total cpu time spent up to now is       38.2 secs

     End of self-consistent calculation

          k = 0.0000 0.0000 0.0000 (   376 PWs)   bands (ev):

   -10.4079  -4.6614  -4.1671  -1.4517

     highest occupied level (ev):    -1.4517

!    total energy              =     -12.04434189 Ry
     estimated scf accuracy    <       0.00000007 Ry

     convergence has been achieved in   3 iterations

     Forces acting on atoms (cartesian axes, Ry/au):

     atom    1 type  1   force =     0.01500748    0.01812945   -0.55688909
     atom    2 type  2   force =    -0.01076455   -0.01081637   -0.04646479
     atom    3 type  2   force =    -0.01371201   -0.01466583    0.02407689
     atom    4 type  2   force =     0.00319260    0.00590728   -0.03318314
     atom    5 type  2   force =     0.00627647    0.00144548   -0.03251277

     Total force =     0.562404     Total SCF correction =     0.000136

     Entering Dynamics:    iteration =   498
                           time      =   0.0723 pico-seconds


     Velocity rescaling: T ( 452.4K) out of range, reset to  300.0

ATOMIC_POSITIONS (bohr)
Si            9.4801167716        9.4792152060        9.0402631025
H            11.2314288582       11.2599009005        7.7878291556
H             7.9574508065        7.9631867992        7.3828655734
H             6.9808475367       10.7143330976        8.9207243865
H            10.7417902086        6.9994182015        8.9195493163


     kinetic energy (Ekin) =           0.01315864 Ry
     temperature           =         346.26428688 K 
     Ekin + Etot (const)   =         -12.03118324 Ry
     Message from routine dynamics:
     Total linear momentum <> 0

     Linear momentum :    0.0000000000   -0.0000000000   -2.6757946950

     Writing config-only to output data dir /home/pizza/codes/QEdev/q-e/tempdir/SiH4.save/
     NEW-OLD atomic charge density approx. for the potential

     total cpu time spent up to now is       38.3 secs

     Self-consistent Calculation

     iteration #  1     ecut=    20.00 Ry     beta= 0.40
     Davidson diagonalization with overlap
     ethr =  1.00E-06,  avg # of iterations =  3.0

     Threshold (ethr) on eigenvalues was too large:
     Diagonalizing with lowered threshold

     Davidson diagonalization with overlap
     ethr =  5.67E-08,  avg # of iterations =  4.0

     total cpu time spent up to now is       38.3 secs

     total energy              =     -12.04383776 Ry
     estimated scf accuracy    <       0.00000574 Ry

     iteration #  2     ecut=    20.00 Ry     beta= 0.40
     Davidson diagonalization with overlap
     ethr =  7.17E-08,  avg # of iterations =  1.0

     total cpu time spent up to now is       38.3 secs

     total energy              =     -12.04383863 Ry
     estimated scf accuracy    <       0.00000177 Ry

     iteration #  3     ecut=    20.00 Ry     beta= 0.40
     Davidson diagonalization with overlap
     ethr =  2.21E-08,  avg # of iterations =  2.0

     total cpu time spent up to now is       38.3 secs

     End of self-consistent calculation

          k = 0.0000 0.0000 0.0000 (   376 PWs)   bands (ev):

   -10.4085  -4.6630  -4.1673  -1.4469

     highest occupied level (ev):    -1.4469

!    total energy              =     -12.04383873 Ry
     estimated scf accuracy    <       0.00000004 Ry

     convergence has been achieved in   3 iterations

     Forces acting on atoms (cartesian axes, Ry/au):

     atom    1 type  1   force =     0.01515495    0.01827962   -0.56948359
     atom    2 type  2   force =    -0.01078155   -0.01082033   -0.04655481
     atom    3 type  2   force =    -0.01380763   -0.01473873    0.02637167
     atom    4 type  2   force =     0.00318428    0.00586310   -0.03498234
     atom    5 type  2   force =     0.00624995    0.00141633   -0.03339347

     Total force =     0.575156     Total SCF correction =     0.000084

     Entering Dynamics:    iteration =   499
                           time      =   0.0724 pico-seconds


ATOMIC_POSITIONS (bohr)
Si            9.4802439465        9.4793478702        9.0378972503
H            11.2296918800       11.2580937385        7.7795429567
H             7.9539589112        7.9595058524        7.3869642201
H             6.9812598635       10.7156457476        8.9161667595
H            10.7430349205        6.9998676530        8.9146010607


     kinetic energy (Ekin) =           0.01529077 Ry
     temperature           =         402.37018738 K 
     Ekin + Etot (const)   =         -12.02854797 Ry
     Message from routine dynamics:
     Total linear momentum <> 0

     Linear momentum :    0.0000000000   -0.0000000000   -2.9201100912

     Writing config-only to output data dir /home/pizza/codes/QEdev/q-e/tempdir/SiH4.save/
     NEW-OLD atomic charge density approx. for the potential

     total cpu time spent up to now is       38.5 secs

     Self-consistent Calculation

     iteration #  1     ecut=    20.00 Ry     beta= 0.40
     Davidson diagonalization with overlap
     ethr =  1.00E-06,  avg # of iterations =  3.0

     Threshold (ethr) on eigenvalues was too large:
     Diagonalizing with lowered threshold

     Davidson diagonalization with overlap
     ethr =  6.53E-08,  avg # of iterations =  2.0

     total cpu time spent up to now is       38.5 secs

     total energy              =     -12.04328909 Ry
     estimated scf accuracy    <       0.00000600 Ry

     iteration #  2     ecut=    20.00 Ry     beta= 0.40
     Davidson diagonalization with overlap
     ethr =  7.50E-08,  avg # of iterations =  1.0

     total cpu time spent up to now is       38.5 secs

     total energy              =     -12.04329012 Ry
     estimated scf accuracy    <       0.00000194 Ry

     iteration #  3     ecut=    20.00 Ry     beta= 0.40
     Davidson diagonalization with overlap
     ethr =  2.43E-08,  avg # of iterations =  2.0

     total cpu time spent up to now is       38.5 secs

     End of self-consistent calculation

          k = 0.0000 0.0000 0.0000 (   376 PWs)   bands (ev):

   -10.4094  -4.6646  -4.1682  -1.4418

     highest occupied level (ev):    -1.4418

!    total energy              =     -12.04329024 Ry
     estimated scf accuracy    <       0.00000006 Ry

     convergence has been achieved in   3 iterations

     Forces acting on atoms (cartesian axes, Ry/au):

     atom    1 type  1   force =     0.01532038    0.01844036   -0.58140743
     atom    2 type  2   force =    -0.01082375   -0.01085250   -0.04659424
     atom    3 type  2   force =    -0.01389049   -0.01479835    0.02810074
     atom    4 type  2   force =     0.00314737    0.00584597   -0.03598391
     atom    5 type  2   force =     0.00624650    0.00136452   -0.03351357

     Total force =     0.587128     Total SCF correction =     0.000131

     Entering Dynamics:    iteration =   500
                           time      =   0.0726 pico-seconds


     Velocity rescaling: T ( 402.4K) out of range, reset to  300.0

ATOMIC_POSITIONS (bohr)
Si            9.4803591447        9.4794689051        9.0356499953
H            11.2280851712       11.2564261443        7.7719279728
H             7.9508066001        7.9561813363        7.3907807614
H             6.9816469742       10.7168369084        8.9118760602
H            10.7441713736        7.0002692152        8.9099974582


     kinetic energy (Ekin) =           0.01329795 Ry
     temperature           =         349.93005470 K 
     Ekin + Etot (const)   =         -12.02999229 Ry
     Message from routine dynamics:
     Total linear momentum <> 0

     Linear momentum :    0.0000000000   -0.0000000000   -2.7534800421

     The maximum number of steps has been reached.

     End of molecular dynamics calculation

     diffusion coefficients :
     atom     1   D =       0.00001117 cm^2/s
     atom     2   D =       0.00071269 cm^2/s
     atom     3   D =       0.00032776 cm^2/s
     atom     4   D =       0.00033377 cm^2/s
     atom     5   D =       0.00033637 cm^2/s

     < D > =       0.00034435 cm^2/s

     Writing all to output data dir /home/pizza/codes/QEdev/q-e/tempdir/SiH4.save/

     init_run     :      0.15s CPU      0.15s WALL (       1 calls)
     electrons    :      4.33s CPU      4.65s WALL (     500 calls)
     update_pot   :      3.02s CPU      3.06s WALL (     499 calls)
     forces       :      1.41s CPU      1.52s WALL (     500 calls)

     Called by init_run:
     wfcinit      :      0.00s CPU      0.00s WALL (       1 calls)
     potinit      :      0.01s CPU      0.01s WALL (       1 calls)
     hinit0       :      0.14s CPU      0.14s WALL (       1 calls)

     Called by electrons:
     c_bands      :      1.57s CPU      1.67s WALL (    2240 calls)
     sum_band     :      0.43s CPU      0.46s WALL (    2240 calls)
     v_of_rho     :      2.18s CPU      2.31s WALL (    2542 calls)
     mix_rho      :      0.16s CPU      0.17s WALL (    2240 calls)

     Called by c_bands:
     init_us_2    :      0.06s CPU      0.06s WALL (    4481 calls)
     init_us_2:cp :      0.05s CPU      0.05s WALL (    4481 calls)
     regterg      :      1.42s CPU      1.51s WALL (    2240 calls)

     Called by *egterg:
     rdiaghg      :      0.17s CPU      0.19s WALL (    6012 calls)
     h_psi        :      0.99s CPU      1.05s WALL (    6710 calls)
     g_psi        :      0.01s CPU      0.01s WALL (    4469 calls)

     Called by h_psi:
     h_psi:calbec :      0.08s CPU      0.09s WALL (    6710 calls)
     vloc_psi     :      0.85s CPU      0.90s WALL (    6710 calls)
     add_vuspsi   :      0.02s CPU      0.02s WALL (    6710 calls)

     General routines
     calbec       :      0.09s CPU      0.09s WALL (    8710 calls)
     fft          :      1.21s CPU      1.26s WALL (   21533 calls)
     ffts         :      0.09s CPU      0.10s WALL (    2240 calls)
     fftw         :      0.91s CPU      0.97s WALL (   29480 calls)

     Parallel routines

     PWSCF        :     37.69s CPU     38.59s WALL


   This run was terminated on:  17:39:25  21Sep2022            

=------------------------------------------------------------------------------=
   JOB DONE.
=------------------------------------------------------------------------------=
