 ANIMSTEPS     5
 CRYSTAL 
 PRIMVEC 
  7.4084780000  0.0000000000  0.0000000000
  0.0000000000  7.4084780000  0.0000000000
  0.0000000000  0.0000000000  7.4084780000
 PRIMCOORD     1
   10  1
 H       -2.1428818680        2.3133833370        0.0000009360
 H        2.1428815030        2.3133810790       -0.0000003560
 H       -1.8241408910       -1.7441216280        1.2505559640
 H        1.8241425090       -1.7441238850        1.2505540140
 H       -1.8241467450       -1.7441246850       -1.2505531790
 H        1.8241466360       -1.7441274050       -1.2505526730
Si       -1.0818540600        1.1996017860       -0.0000009590
Si        1.0818548510        1.1996041600       -0.0000015560
Si       -1.1922132580       -1.1247611110       -0.0000010900
Si        1.1922113250       -1.1247556470       -0.0000011000
 PRIMCOORD     2
   10  1
 H       -2.1617342371        2.3365815496        0.0000019882
 H        2.1617368836        2.3365692744        0.0000026829
 H       -1.8420280932       -1.7611667087        1.2651667621
 H        1.8420285205       -1.7611605638        1.2651641374
 H       -1.8420329518       -1.7611681420       -1.2651620638
 H        1.8420318877       -1.7611658590       -1.2651649498
Si       -1.0765376347        1.2602384623       -0.0000020846
Si        1.0765416059        1.2602530558       -0.0000043576
Si       -1.2435190188       -1.1745045456       -0.0000009376
Si        1.2435130398       -1.1745205221       -0.0000011763
 PRIMCOORD     3
   10  1
 H       -2.1336994868        2.3586536628        0.0000116787
 H        2.1337004773        2.3586808067       -0.0000002188
 H       -1.8702310482       -1.7711354946        1.2349360791
 H        1.8702584850       -1.7711804959        1.2348874260
 H       -1.8702468450       -1.7711428961       -1.2348930859
 H        1.8702335191       -1.7711823483       -1.2349224078
Si       -1.0917037553        1.2089244082       -0.0000125147
Si        1.0916716832        1.2088953005       -0.0000119387
Si       -1.2011841152       -1.1252704845        0.0000154582
Si        1.2012010879       -1.1252864578       -0.0000104752
 PRIMCOORD     4
   10  1
 H       -2.1177256898        2.3028624609        0.0000047799
 H        2.1176939288        2.3028634378        0.0000038725
 H       -1.8237247297       -1.7373772331        1.2227587033
 H        1.8237568215       -1.7373814698        1.2227376660
 H       -1.8237488817       -1.7374023853       -1.2227261173
 H        1.8237403893       -1.7374021454       -1.2227526430
Si       -1.0922046429        1.1380891997       -0.0000101226
Si        1.0922169970        1.1380242650       -0.0000122700
Si       -1.1509953656       -1.0662026623       -0.0000006711
Si        1.1509911750       -1.0661174664       -0.0000031965
 PRIMCOORD     5
   10  1
 H       -2.1566159473        2.2777681094        0.0000075142
 H        2.1566194734        2.2777239919       -0.0000031106
 H       -1.7915035649       -1.7273257807        1.2480828825
 H        1.7915327801       -1.7272625076        1.2480587567
 H       -1.7915246211       -1.7273335891       -1.2480553860
 H        1.7915240002       -1.7272629859       -1.2480739539
Si       -1.0754863635        1.1985592183       -0.0000065669
Si        1.0754488316        1.1986264585       -0.0000127781
Si       -1.1696883527       -1.1217467430        0.0000084458
Si        1.1696937661       -1.1217901709       -0.0000058026
 PRIMCOORD     5
   10  1
 H       -2.1697395247        2.3017274088        0.0000052402
 H        2.1697226015        2.3017416392       -0.0000045524
 H       -1.8054504669       -1.7431668214        1.2507195572
 H        1.8054865983       -1.7431396684        1.2507246296
 H       -1.8054681423       -1.7431808643       -1.2506939413
 H        1.8054802921       -1.7431510069       -1.2507252018
Si       -1.0851672011        1.2098133788       -0.0000118208
Si        1.0851293525        1.2098936348       -0.0000168345
Si       -1.1723192136       -1.1252601619        0.0000032836
Si        1.1723257060       -1.1253215377       -0.0000003588
