 ANIMSTEPS     5
 CRYSTAL 
 PRIMVEC 
  7.4084780000  0.0000000000  0.0000000000
  0.0000000000  7.4084780000  0.0000000000
  0.0000000000  0.0000000000  7.4084780000
 PRIMCOORD     1
   10  1
 H       -2.1428818680        2.3133833370        0.0000009360
 H        2.1428815030        2.3133810790       -0.0000003560
 H       -1.8241408910       -1.7441216280        1.2505559640
 H        1.8241425090       -1.7441238850        1.2505540140
 H       -1.8241467450       -1.7441246850       -1.2505531790
 H        1.8241466360       -1.7441274050       -1.2505526730
Si       -1.0818540600        1.1996017860       -0.0000009590
Si        1.0818548510        1.1996041600       -0.0000015560
Si       -1.1922132580       -1.1247611110       -0.0000010900
Si        1.1922113250       -1.1247556470       -0.0000011000
 PRIMCOORD     2
   10  1
 H       -2.1617047985        2.3365551387        0.0000019888
 H        2.1617074820        2.3365428622        0.0000026866
 H       -1.8420513580       -1.7611736440        1.2651866504
 H        1.8420517817       -1.7611674577        1.2651840611
 H       -1.8420561910       -1.7611750571       -1.2651819657
 H        1.8420551611       -1.7611727616       -1.2651848664
Si       -1.0765529127        1.2601600918       -0.0000020823
Si        1.0765568649        1.2601747045       -0.0000043491
Si       -1.2437216447       -1.1743859432       -0.0000009458
Si        1.2437156170       -1.1744019326       -0.0000011768
 PRIMCOORD     3
   10  1
 H       -2.1331132293        2.3592855496        0.0000089907
 H        2.1331125648        2.3593244118       -0.0000002668
 H       -1.8709841248       -1.7712928464        1.2347155883
 H        1.8709995064       -1.7713300073        1.2346684420
 H       -1.8709940508       -1.7712955566       -1.2346736337
 H        1.8709830583       -1.7713314782       -1.2347102964
Si       -1.0917244006        1.2087672958       -0.0000059879
Si        1.0917154457        1.2087430786       -0.0000046006
Si       -1.2011442279       -1.1254484722        0.0000169926
Si        1.2011494601       -1.1254659741       -0.0000152271
 PRIMCOORD     4
   10  1
 H       -2.1178318046        2.3030844557        0.0000061391
 H        2.1178004205        2.3031591432        0.0000154114
 H       -1.8235279360       -1.7372947552        1.2226678814
 H        1.8235653985       -1.7372764507        1.2226709279
 H       -1.8235510831       -1.7373210472       -1.2226432043
 H        1.8235516563       -1.7372999463       -1.2226784442
Si       -1.0921437303        1.1383613210       -0.0000142675
Si        1.0921412753        1.1383916494       -0.0000204649
Si       -1.1496149883       -1.0669476151       -0.0000056126
Si        1.1496107937       -1.0669007539        0.0000016347
 PRIMCOORD     5
   10  1
 H       -2.1653589519        2.2695175297        0.0000047060
 H        2.1653393970        2.2695839593       -0.0000056530
 H       -1.7838908142       -1.7258372662        1.2518038211
 H        1.7839029048       -1.7257972122        1.2517698049
 H       -1.7839255026       -1.7258512513       -1.2517761474
 H        1.7838962859       -1.7258045602       -1.2517772018
Si       -1.0758510824        1.2000117382       -0.0000100151
Si        1.0758361215        1.2000523607       -0.0000078392
Si       -1.1758291570       -1.1179311011        0.0000086965
Si        1.1758808009       -1.1179881958       -0.0000101710
 PRIMCOORD     5
   10  1
 H       -2.1756864008        2.2986895155        0.0000042444
 H        2.1756461552        2.2987595038       -0.0000050961
 H       -1.8048328281       -1.7436390195        1.2527400842
 H        1.8048681240       -1.7436106189        1.2527285037
 H       -1.8048662640       -1.7436627354       -1.2527032580
 H        1.8048675109       -1.7436213038       -1.2527360820
Si       -1.0860711677        1.2104223334       -0.0000116919
Si        1.0860374317        1.2105137286       -0.0000196319
Si       -1.1793220212       -1.1219379866        0.0000079923
Si        1.1793594620       -1.1219574161       -0.0000050638
