 ANIMSTEPS    10
 CRYSTAL 
 PRIMVEC 
  7.4084780000  0.0000000000  0.0000000000
  0.0000000000  7.4084780000  0.0000000000
  0.0000000000  0.0000000000  7.4084780000
 PRIMCOORD     1
   10  1
 H       -2.1428818680        2.3133833370        0.0000009360
 H        2.1428815030        2.3133810790       -0.0000003560
 H       -1.8241408910       -1.7441216280        1.2505559640
 H        1.8241425090       -1.7441238850        1.2505540140
 H       -1.8241467450       -1.7441246850       -1.2505531790
 H        1.8241466360       -1.7441274050       -1.2505526730
Si       -1.0818540600        1.1996017860       -0.0000009590
Si        1.0818548510        1.1996041600       -0.0000015560
Si       -1.1922132580       -1.1247611110       -0.0000010900
Si        1.1922113250       -1.1247556470       -0.0000011000
 PRIMCOORD     2
   10  1
 H       -2.1502660365        2.3219745450        0.0000007611
 H        2.1495256999        2.3208261972       -0.0000007499
 H       -1.8309509552       -1.7508276960        1.2563755917
 H        1.8306483107       -1.7503724314        1.2557777306
 H       -1.8309566155       -1.7508305872       -1.2563731153
 H        1.8306521673       -1.7503754701       -1.2557777627
Si       -1.0769426143        1.2573828888       -0.0000002540
Si        1.0781153727        1.2499642585       -0.0000009288
Si       -1.2508007453       -1.1778323364       -0.0000006247
Si        1.2509754183       -1.1699533674       -0.0000006470
 PRIMCOORD     3
   10  1
 H       -2.1566094346        2.3542576557       -0.0000084798
 H        2.1593312205        2.3524105919        0.0000024852
 H       -1.8594227859       -1.7698326169        1.2549991522
 H        1.8598028224       -1.7681957319        1.2555820644
 H       -1.8594384800       -1.7698297451       -1.2549898425
 H        1.8598068142       -1.7681904003       -1.2555958727
Si       -1.0921947175        1.2016125813        0.0000118992
Si        1.0881662927        1.2256596653        0.0000017093
Si       -1.1788810589       -1.1169620762       -0.0000012386
Si        1.1794393291       -1.1409739227       -0.0000018758
 PRIMCOORD     4
   10  1
 H       -2.1392168494        2.3069552759       -0.0000032408
 H        2.1444651782        2.3357021597        0.0000038090
 H       -1.8215755903       -1.7411008123        1.2264619333
 H        1.8248790048       -1.7551195678        1.2346053781
 H       -1.8215942395       -1.7411001424       -1.2264612787
 H        1.8248782383       -1.7551126735       -1.2345945854
Si       -1.0898309563        1.1452411102       -0.0000019384
Si        1.0802774407        1.2266606859       -0.0000038774
Si       -1.0867231651       -1.0681574571       -0.0000054260
Si        1.0844409406       -1.1540125776       -0.0000007727
 PRIMCOORD     5
   10  1
 H       -2.1926658840        2.2140663034        0.0000018647
 H        2.1575650775        2.3422942315        0.0000058098
 H       -1.7317418035       -1.7056418910        1.2435073260
 H        1.7263195487       -1.7745294865        1.2517490717
 H       -1.7317513900       -1.7056469187       -1.2435013558
 H        1.7263226855       -1.7745316409       -1.2517532039
Si       -1.0690771267        1.1845225006       -0.0000024083
Si        1.1006517585        1.2098866812       -0.0000029874
Si       -1.1759712696       -1.0762818451        0.0000016308
Si        1.1903484054       -1.1141819335       -0.0000057466
 PRIMCOORD     6
   10  1
 H       -2.1539338820        2.2646178107       -0.0000059673
 H        2.1358408141        2.3171273853        0.0000040631
 H       -1.8022244298       -1.7258630552        1.2319661452
 H        1.8101445417       -1.7539871312        1.2341813531
 H       -1.8022560651       -1.7258785860       -1.2318430662
 H        1.8100946405       -1.7539785161       -1.2343049552
Si       -1.0966499962        1.0907131449        0.0000014685
Si        1.0904738510        1.1482641637       -0.0000167524
Si       -1.1448627778       -1.0037937024        0.0000487176
Si        1.1533733057       -1.0572655126       -0.0000310054
 PRIMCOORD     7
   10  1
 H       -2.1405579227        2.2185674643        0.0000121085
 H        2.1126335749        2.2731484933       -0.0000093207
 H       -1.7831898457       -1.7018557772        1.2272308880
 H        1.7865017687       -1.7292958559        1.2269255619
 H       -1.7832424936       -1.7018839329       -1.2271286818
 H        1.7864381724       -1.7292799935       -1.2270220993
Si       -1.0808408183        1.1355711638        0.0000042082
Si        1.0909962395        1.0890841547       -0.0000136158
Si       -1.2048998179       -1.0526802017        0.0000341086
Si        1.2161611448       -1.0014195138       -0.0000331566
 PRIMCOORD     8
   10  1
 H       -2.1345051253        2.2788419684        0.0000153457
 H        2.1364216560        2.2068762214       -0.0000166353
 H       -1.8250325583       -1.7363053716        1.2521828770
 H        1.8336924699       -1.6771125635        1.2411288211
 H       -1.8251134378       -1.7363505744       -1.2520644758
 H        1.8336203001       -1.6770802083       -1.2412451040
Si       -1.0833347867        1.2029680107        0.0000068383
Si        1.0722794738        1.1221957367       -0.0000070494
Si       -1.2624916736       -1.1421435783        0.0000336910
Si        1.2544636840       -1.0419336401       -0.0000343075
 PRIMCOORD     9
   10  1
 H       -2.1478760741        2.3291162776        0.0000105114
 H        2.1496228213        2.2323930807       -0.0000074257
 H       -1.8637231455       -1.7697978141        1.2703382014
 H        1.8645368367       -1.6929633374        1.2516434776
 H       -1.8638029693       -1.7698411842       -1.2702162749
 H        1.8644568101       -1.6929170728       -1.2517741547
Si       -1.0839094820        1.2323424966        0.0000242186
Si        1.0857625952        1.1118329564       -0.0000149976
Si       -1.3439287259       -1.1664847938        0.0000334774
Si        1.3388613355       -1.0137246079       -0.0000370324
 PRIMCOORD    10
   10  1
 H       -2.0785079321        2.4029158777        0.0000129552
 H        2.1330424631        2.2515648502       -0.0000166047
 H       -1.9642219506       -1.8094584393        1.2564733094
 H        1.9545253200       -1.6820972553        1.2486590384
 H       -1.9643190581       -1.8094934929       -1.2562924542
 H        1.9544286277       -1.6820439181       -1.2488429474
Si       -1.0854664332        1.2336918782        0.0000182418
Si        1.0682972558        1.1901511931       -0.0000113869
Si       -1.3834212732       -1.1912946367        0.0000573645
Si        1.3656429827       -1.1039800560       -0.0000575151
