 ANIMSTEPS     5
 CRYSTAL 
 PRIMVEC 
  7.4084780000  0.0000000000  0.0000000000
  0.0000000000  7.4084780000  0.0000000000
  0.0000000000  0.0000000000  7.4084780000
 PRIMCOORD     1
   10  1
 H      -30.0003461520       32.3873667180        0.0000131040
 H       30.0003410420       32.3873351060       -0.0000049840
 H      -25.5379724740      -24.4177027920       17.5077834960
 H       25.5379951260      -24.4177343900       17.5077561960
 H      -25.5380544300      -24.4177455900      -17.5077445060
 H       25.5380529040      -24.4177836700      -17.5077374220
Si      -15.1459568400       16.7944250040       -0.0000134260
Si       15.1459679140       16.7944582400       -0.0000217840
Si      -16.6909856120      -15.7466555540       -0.0000152600
Si       16.6909585500      -15.7465790580       -0.0000154000
 PRIMCOORD     2
   10  1
 H      -30.0003461520       32.3873667180        0.0000131040
 H       30.0003410420       32.3873351060       -0.0000049840
 H      -25.5379724740      -24.4177027920       17.5077834960
 H       25.5379951260      -24.4177343900       17.5077561960
 H      -25.5380544300      -24.4177455900      -17.5077445060
 H       25.5380529040      -24.4177836700      -17.5077374220
Si      -15.1459568400       16.7944250040       -0.0000134260
Si       15.1459679140       16.7944582400       -0.0000217840
Si      -16.6909856120      -15.7466555540       -0.0000152600
Si       16.6909585500      -15.7465790580       -0.0000154000
 PRIMCOORD     3
   10  1
 H      -30.0003461520       32.3873667180        0.0000131040
 H       30.0003410420       32.3873351060       -0.0000049840
 H      -25.5379724740      -24.4177027920       17.5077834960
 H       25.5379951260      -24.4177343900       17.5077561960
 H      -25.5380544300      -24.4177455900      -17.5077445060
 H       25.5380529040      -24.4177836700      -17.5077374220
Si      -15.1459568400       16.7944250040       -0.0000134260
Si       15.1459679140       16.7944582400       -0.0000217840
Si      -16.6909856120      -15.7466555540       -0.0000152600
Si       16.6909585500      -15.7465790580       -0.0000154000
 PRIMCOORD     4
   10  1
 H      -30.0003461520       32.3873667180        0.0000131040
 H       30.0003410420       32.3873351060       -0.0000049840
 H      -25.5379724740      -24.4177027920       17.5077834960
 H       25.5379951260      -24.4177343900       17.5077561960
 H      -25.5380544300      -24.4177455900      -17.5077445060
 H       25.5380529040      -24.4177836700      -17.5077374220
Si      -15.1459568400       16.7944250040       -0.0000134260
Si       15.1459679140       16.7944582400       -0.0000217840
Si      -16.6909856120      -15.7466555540       -0.0000152600
Si       16.6909585500      -15.7465790580       -0.0000154000
 PRIMCOORD     5
   10  1
 H      -30.0003461520       32.3873667180        0.0000131040
 H       30.0003410420       32.3873351060       -0.0000049840
 H      -25.5379724740      -24.4177027920       17.5077834960
 H       25.5379951260      -24.4177343900       17.5077561960
 H      -25.5380544300      -24.4177455900      -17.5077445060
 H       25.5380529040      -24.4177836700      -17.5077374220
Si      -15.1459568400       16.7944250040       -0.0000134260
Si       15.1459679140       16.7944582400       -0.0000217840
Si      -16.6909856120      -15.7466555540       -0.0000152600
Si       16.6909585500      -15.7465790580       -0.0000154000
 PRIMCOORD     5
   10  1
 H      -30.0003461520       32.3873667180        0.0000131040
 H       30.0003410420       32.3873351060       -0.0000049840
 H      -25.5379724740      -24.4177027920       17.5077834960
 H       25.5379951260      -24.4177343900       17.5077561960
 H      -25.5380544300      -24.4177455900      -17.5077445060
 H       25.5380529040      -24.4177836700      -17.5077374220
Si      -15.1459568400       16.7944250040       -0.0000134260
Si       15.1459679140       16.7944582400       -0.0000217840
Si      -16.6909856120      -15.7466555540       -0.0000152600
Si       16.6909585500      -15.7465790580       -0.0000154000
