 ANIMSTEPS    15
 CRYSTAL 
 PRIMVEC 
  7.4084780000  0.0000000000  0.0000000000
  0.0000000000  7.4084780000  0.0000000000
  0.0000000000  0.0000000000  7.4084780000
 PRIMCOORD     1
   10  1
 H       -2.1428818680        2.3133833370        0.0000009360
 H        2.1428815030        2.3133810790       -0.0000003560
 H       -1.8241408910       -1.7441216280        1.2505559640
 H        1.8241425090       -1.7441238850        1.2505540140
 H       -1.8241467450       -1.7441246850       -1.2505531790
 H        1.8241466360       -1.7441274050       -1.2505526730
Si       -1.0818540600        1.1996017860       -0.0000009590
Si        1.0818548510        1.1996041600       -0.0000015560
Si       -1.1922132580       -1.1247611110       -0.0000010900
Si        1.1922113250       -1.1247556470       -0.0000011000
 PRIMCOORD     2
   10  1
 H       -2.1514525736        2.3142498466        0.0000054641
 H        2.1517923125        2.3144330240       -0.0000169561
 H       -1.8258469814       -1.7425912164        1.2579571500
 H        1.8258908575       -1.7424202100        1.2582820119
 H       -1.8258570762       -1.7426053824       -1.2579670995
 H        1.8258989661       -1.7424672012       -1.2582626862
Si       -1.0738551429        1.2666346668        0.0000183063
Si        1.0734141085        1.2702525990        0.0000000623
Si       -1.2269934716       -1.1959160760       -0.0000045674
Si        1.2270090030       -1.1996140495       -0.0000116842
 PRIMCOORD     3
   10  1
 H       -2.1403227967        2.3866963257        0.0000029015
 H        2.1361533329        2.3907573664       -0.0000093977
 H       -1.8677137403       -1.7893918909        1.2416303762
 H        1.8678568218       -1.7931486099        1.2396223910
 H       -1.8677120781       -1.7893806057       -1.2416356064
 H        1.8678614933       -1.7931416490       -1.2396208313
Si       -1.0894794283        1.2223156919        0.0000045619
Si        1.0932996204        1.1966126747        0.0000035377
Si       -1.2081969709       -1.1282300896        0.0000006793
Si        1.2082537477       -1.1031332127        0.0000013889
 PRIMCOORD     4
   10  1
 H       -2.1274064539        2.3327164317        0.0000035223
 H        2.1484946264        2.3008516135       -0.0000045442
 H       -1.8398087515       -1.7615036825        1.2355936162
 H        1.8389709017       -1.7379547322        1.2427558209
 H       -1.8398055518       -1.7614950761       -1.2355995016
 H        1.8389723265       -1.7379519019       -1.2427551706
Si       -1.0973522091        1.1255031926        0.0000034152
Si        1.0794996841        1.2248030173        0.0000019958
Si       -1.1873121132       -1.0446959462        0.0000001988
Si        1.1857475428       -1.1403169153        0.0000006482
 PRIMCOORD     5
   10  1
 H       -2.1550007583        2.2118282348        0.0000034511
 H        2.1253989081        2.3525367871       -0.0000021281
 H       -1.8139403648       -1.6951990046        1.2223469317
 H        1.8192298168       -1.7708866691        1.2389587353
 H       -1.8139369196       -1.6951929304       -1.2223523309
 H        1.8192302698       -1.7708850560       -1.2389588321
Si       -1.0908493240        1.0459969923        0.0000023487
Si        1.0952979198        1.1898300600        0.0000016269
Si       -1.1274079395       -0.9599695810       -0.0000000638
Si        1.1419783936       -1.1081028320        0.0000002621
 PRIMCOORD     6
   10  1
 H       -2.1743762407        2.1263609756        0.0000029415
 H        2.1244018376        2.3237781867       -0.0000007486
 H       -1.7630260624       -1.6429099869        1.2306347146
 H        1.7650169184       -1.7577861761        1.2435556318
 H       -1.7630228805       -1.6429050611       -1.2306396631
 H        1.7650172241       -1.7577847937       -1.2435560967
Si       -1.0687058392        1.1188544914        0.0000020808
Si        1.0882632810        1.1904654081        0.0000014939
Si       -1.1395799159       -1.0458595902       -0.0000004204
Si        1.1660116796       -1.1122574528        0.0000000673
 PRIMCOORD     7
   10  1
 H       -2.1820502742        2.2062541410        0.0000027503
 H        2.1369579958        2.3117098479        0.0000000355
 H       -1.7834301304       -1.6916042947        1.2335219392
 H        1.7895878158       -1.7517248504        1.2318548939
 H       -1.7834273829       -1.6915999862       -1.2335267149
 H        1.7895881434       -1.7517233879       -1.2318555346
Si       -1.0801773992        1.1925260874        0.0000018235
Si        1.0947051235        1.1565493643        0.0000014203
Si       -1.0859078918       -1.1112728246       -0.0000006126
Si        1.1041540020       -1.0691580960        0.0000000004
 PRIMCOORD     8
   10  1
 H       -2.1877684468        2.2826605191        0.0000025851
 H        2.1704820132        2.2330020307        0.0000007203
 H       -1.7334525739       -1.7424527586        1.2385132965
 H        1.7410800726       -1.7103998567        1.2227853561
 H       -1.7334505069       -1.7424486901       -1.2385179455
 H        1.7410804820       -1.7103983699       -1.2227861526
Si       -1.0880613527        1.2691367545        0.0000017885
Si        1.0835296480        1.1012574081        0.0000012572
Si       -1.0391580599       -1.1794877706       -0.0000008258
Si        1.0457187265       -1.0009132655       -0.0000000787
 PRIMCOORD     9
   10  1
 H       -2.1647600604        2.3900720062        0.0000025874
 H        2.2044926409        2.1338657940        0.0000011414
 H       -1.6807559937       -1.8076494432        1.2492771311
 H        1.6965022267       -1.6565675990        1.2331349333
 H       -1.6807543723       -1.8076453101       -1.2492819561
 H        1.6965026972       -1.6565659445       -1.2331358386
Si       -1.1033952074        1.2854439032        0.0000019528
Si        1.0453700326        1.1643600475        0.0000012220
Si       -1.1338327811       -1.1955358308       -0.0000010317
Si        1.1206308195       -1.0498216222       -0.0000001406
 PRIMCOORD    10
   10  1
 H       -2.1491033232        2.4184622919        0.0000025754
 H        2.1926986630        2.2118890218        0.0000015032
 H       -1.7680739903       -1.8162760462        1.2543068186
 H        1.7691591165       -1.6934905316        1.2368887920
 H       -1.7680722596       -1.8162720369       -1.2543117950
 H        1.7691595994       -1.6934888008       -1.2368898039
Si       -1.0936641225        1.3494282698        0.0000020405
Si        1.0611220726        1.1898433379        0.0000012424
Si       -1.1628785792       -1.2737002569       -0.0000011919
Si        1.1496528253       -1.0764392480       -0.0000001803
 PRIMCOORD    11
   10  1
 H       -2.1213582914        2.5162181847        0.0000024963
 H        2.2054465182        2.2212223395        0.0000019216
 H       -1.8119753733       -1.8569009261        1.2648600222
 H        1.7992001812       -1.7040330585        1.2421469494
 H       -1.8119733275       -1.8568971993       -1.2648654599
 H        1.7992007068       -1.7040312074       -1.2421478575
Si       -1.0884872314        1.4337110361        0.0000023799
Si        1.0540009403        1.2259781314        0.0000011735
Si       -1.2206676280       -1.3649107324       -0.0000015158
Si        1.1966135072       -1.1104005668       -0.0000001085
 PRIMCOORD    12
   10  1
 H       -2.0378724337        2.6682598992        0.0000021134
 H        2.2271900634        2.2365229328        0.0000022955
 H       -1.8885039639       -1.9184225308        1.2670442839
 H        1.8410691688       -1.7204694648        1.2516544270
 H       -1.8885014931       -1.9184191300       -1.2670502517
 H        1.8410697566       -1.7204675304       -1.2516548903
Si       -1.0937320135        1.4572462790        0.0000025890
Si        1.0459974563        1.3100640239        0.0000010553
Si       -1.2829736676       -1.3998640633       -0.0000017135
Si        1.2362571287       -1.1944944145        0.0000000924
 PRIMCOORD    13
   10  1
 H       -1.9910290416        2.7166948890        0.0000012972
 H        2.2157476649        2.3349720137        0.0000026018
 H       -1.9563395308       -1.9239498793        1.2527361152
 H        1.8759656452       -1.7942085434        1.2443841173
 H       -1.9563370944       -1.9239470228       -1.2527420504
 H        1.8759662459       -1.7942066435       -1.2443842110
Si       -1.0960444118        1.3733702871        0.0000024748
Si        1.0822569832        1.2567387967        0.0000009477
Si       -1.2541003015       -1.2951086861       -0.0000015644
Si        1.2039138431       -1.1503992106        0.0000002728
 PRIMCOORD    14
   10  1
 H       -2.0112335190        2.6006394413        0.0000011478
 H        2.2250690495        2.2815277618        0.0000027127
 H       -1.9174953914       -1.8431226213        1.2504407013
 H        1.8336505417       -1.7869227244        1.2511976082
 H       -1.9174928969       -1.8431198144       -1.2504465874
 H        1.8336513284       -1.7869209824       -1.2511975518
Si       -1.0744423403        1.3168780127        0.0000023198
Si        1.0866364737        1.2837164001        0.0000009680
Si       -1.2723438446       -1.2042493954       -0.0000015830
Si        1.2140006008       -1.2184700769        0.0000002654
 PRIMCOORD    15
   10  1
 H       -2.0544546821        2.4896322912        0.0000011794
 H        2.2123055321        2.3581418444        0.0000028449
 H       -1.9273205030       -1.7695035954        1.2496812577
 H        1.8455420541       -1.8377738495        1.2622836477
 H       -1.9273180807       -1.7695006263       -1.2496870181
 H        1.8455429975       -1.8377722285       -1.2622835794
Si       -1.0510274538        1.2895219660        0.0000019804
Si        1.1041181017        1.3446266627        0.0000010594
Si       -1.3045944531       -1.1541378712       -0.0000015599
Si        1.2572064894       -1.3132785924        0.0000001888
