 ANIMSTEPS    10
 CRYSTAL 
 PRIMVEC 
  7.4084806442  0.0000000000  0.0000000000
  0.0000000000  7.4084806442  0.0000000000
  0.0000000000  0.0000000000  7.4084806442
 PRIMCOORD     1
   10  1
 H       -2.0191043824        2.6351289099       -0.2633113733
 H        2.2797056665        2.0772184560       -0.1691382538
 H       -1.9413452936       -1.7079914789        1.3180731488
 H        1.7561072281       -1.4806542743        1.4332125312
 H       -1.9548316562       -2.0063417838       -0.9590467354
 H        1.7780372781       -1.8826067153       -1.0609068540
Si       -0.9178665234        1.5237834357       -0.0941531972
Si        1.2089832543        1.0704132877       -0.3115309601
Si       -1.2781468640       -1.2087708390        0.0928809177
Si        1.0884612946       -1.2202229970        0.1139207771
 PRIMCOORD     2
   10  1
 H       -1.7569970202        2.7246498314       -0.1765628496
 H        2.2537248199        2.0818795098       -0.5031549494
 H       -1.9423342980       -1.8340469312        1.3954241384
 H        1.6379706718       -1.5825744168        1.4561216188
 H       -1.9661190050       -1.9413183295       -0.9795360157
 H        1.9495715246       -1.9123651005       -0.9115471991
Si       -0.9063691726        1.4385890111       -0.2870248499
Si        1.1686976893        1.0967770508       -0.1369349500
Si       -1.4056001196       -1.0230401629        0.1383815895
Si        0.9674549118       -1.2485944612        0.1048334680
 PRIMCOORD     3
   10  1
 H       -1.8877459108        2.5569550314       -0.4753226830
 H        2.4565973181        2.0894655463       -0.3243275135
 H       -2.0072564674       -1.3423499624        1.4275524675
 H        1.6498539024       -1.7165927830        1.4646377886
 H       -1.9913437471       -1.7958025198       -0.9955345999
 H        1.6460691700       -2.2331424845       -0.6829267383
Si       -0.8686176140        1.3337344946       -0.3113125002
Si        1.3023269075        1.0747616264       -0.3102594304
Si       -1.3418091353       -0.9480199731        0.1089862697
Si        1.0419255786       -1.2190529750        0.1985069406
 PRIMCOORD     4
   10  1
 H       -2.0683309171        2.3479483302       -0.5154098730
 H        2.4006077538        2.0361861873       -0.6501823390
 H       -2.0546492429       -1.2422272088        1.3948151179
 H        1.7042493518       -1.6526683760        1.6076003018
 H       -1.8943253956       -1.8468176256       -0.7898271354
 H        1.6915068377       -2.1747384483       -0.7482662244
Si       -1.0512281461        1.2046882602       -0.2405292132
Si        1.1487136477        1.1459646204       -0.4049532371
Si       -1.1394040901       -0.9213506189        0.1832816351
Si        1.2628602028       -1.0970291195        0.2634709685
 PRIMCOORD     5
   10  1
 H       -2.2169357346        2.2141965555       -0.7947656593
 H        2.1617157851        2.1625748874       -0.8044213518
 H       -1.3091864008       -1.2198008372        1.7927022633
 H        1.6935091379       -1.3704314187        1.6406510070
 H       -2.0315806368       -1.9954052823       -0.4594931123
 H        1.6575395977       -2.1812965944       -0.8525568825
Si       -1.2113952845        1.1898521988       -0.3408047184
Si        0.9907901698        1.1133659568       -0.5543770946
Si       -1.0698940275       -1.0765668871        0.3092264296
Si        1.3354373958       -1.0365325778        0.1638391199
 PRIMCOORD     6
   10  1
 H       -2.4703087272        1.8202985845       -0.2541307931
 H        1.7799245309        2.4174366732       -0.7738070744
 H       -1.3673568325       -1.1619823207        1.9680830441
 H        2.2938023023       -1.1883106049        1.0951661779
 H       -1.6667423542       -2.3244830114       -0.3858335043
 H        1.6427960481       -1.8589546317       -1.1831965020
Si       -1.2328581252        0.9735998797       -0.3799027593
Si        0.9517537683        1.1614800497       -0.4066449869
Si       -1.1693205552       -1.1104924503        0.4431319359
Si        1.2383099467       -0.9286361672       -0.0228655369
 PRIMCOORD     7
   10  1
 H       -2.4776656087        1.6961815099       -0.5096310273
 H        1.6687211636        2.4476459470       -0.5828932299
 H       -0.9899537355       -1.3698057903        2.1068509639
 H        2.4408931413       -1.4804027253        0.6610219817
 H       -2.0563529488       -2.2548859321       -0.1356187121
 H        1.4902134670       -1.2555630144       -1.6786067000
Si       -1.1913404631        0.9143430082       -0.1264201366
Si        0.9555051598        1.2212390827       -0.0266302749
Si       -1.1764777128       -1.2132189041        0.5814587310
Si        1.3364575393       -0.9055771805       -0.1895315948
 PRIMCOORD     8
   10  1
 H       -2.2985573335        2.2915349606        0.0378045282
 H        1.8813680316        2.2013409182        0.3161212686
 H       -1.0032411498       -1.6190484336        1.7599657254
 H        2.5467247539       -1.5860758222        0.5075701902
 H       -2.1476772510       -2.0780418303       -0.6182810825
 H        1.3044676143       -1.3575793238       -1.8818822150
Si       -1.3054021309        1.0494688724        0.1746307273
Si        0.8362050777        1.1852516096       -0.1110348040
Si       -1.2521505485       -1.2604354650        0.3377936968
Si        1.4382629384       -1.0264594851       -0.4226880341
 PRIMCOORD     9
   10  1
 H       -2.1943183614        2.2172322849        0.5927306525
 H        1.8434507440        2.4216671080       -0.0147457523
 H       -1.7771934973       -1.8656241639        1.4577454883
 H        2.3756543010       -2.0139001149        0.6069480389
 H       -2.0863228501       -1.8229790731       -1.0815898829
 H        1.8681431945       -1.1567696684       -1.8108877646
Si       -1.2504880859        1.0764740371        0.2059541808
Si        0.8922611951        1.2830004076        0.2963344481
Si       -1.2711739624       -1.3582754826        0.1074846787
Si        1.5999873245       -0.9808693335       -0.2599740865
 PRIMCOORD    10
   10  1
 H       -2.0102546671        2.4850178874        0.4453163344
 H        1.8491583850        2.3784877805        0.1530744550
 H       -1.9688584015       -2.0468335037        1.0003015829
 H        2.3894575869       -1.7631631692        0.9369718130
 H       -2.0039513601       -1.5267248921       -1.3781676013
 H        1.9135907824       -1.7289581256       -1.3692046940
Si       -1.3038843837        1.0350657422        0.5405697856
Si        0.7782248009        1.2965537481       -0.0458886991
Si       -1.1965844323       -1.2645797108       -0.0695600077
Si        1.5531016913       -1.0649097559       -0.1134129679
