 ANIMSTEPS    10
 CRYSTAL 
 PRIMVEC 
  7.4084809203  0.0000000000  0.0000000000
  0.0000000000  7.4084809203  0.0000000000
  0.0000000000  0.0000000000  7.4084809203
 PRIMCOORD     1
   10  1
 H       -2.1428818680        2.3133833370        0.0000009360
 H        2.1428815030        2.3133810790       -0.0000003560
 H       -1.8241408910       -1.7441216280        1.2505559640
 H        1.8241425090       -1.7441238850        1.2505540140
 H       -1.8241467450       -1.7441246850       -1.2505531790
 H        1.8241466360       -1.7441274050       -1.2505526730
Si       -1.0818540600        1.1996017860       -0.0000009590
Si        1.0818548510        1.1996041600       -0.0000015560
Si       -1.1922132580       -1.1247611110       -0.0000010900
Si        1.1922113250       -1.1247556470       -0.0000011000
 PRIMCOORD     2
   10  1
 H       -2.1575413936        2.3136292654        0.0000971779
 H        2.1579770614        2.3138231157       -0.0000362410
 H       -1.8278799091       -1.7470203037        1.2509294424
 H        1.8279613461       -1.7468070228        1.2512994362
 H       -1.8278777848       -1.7468581434       -1.2510711892
 H        1.8277650759       -1.7469276353       -1.2514021510
Si       -1.0751465896        1.2713802863        0.0002675685
Si        1.0747525735        1.2753441897       -0.0000243563
Si       -1.2266256582       -1.1912208871       -0.0000298474
Si        1.2266152804       -1.1953868639       -0.0000298389
 PRIMCOORD     3
   10  1
 H       -2.1405505456        2.3862556723        0.0001426988
 H        2.1362379891        2.3908657355       -0.0000112405
 H       -1.8673496275       -1.7890110184        1.2418274345
 H        1.8675214766       -1.7930827101        1.2398486735
 H       -1.8672999199       -1.7888016855       -1.2419604137
 H        1.8674031292       -1.7930665290       -1.2399686343
Si       -1.0894005727        1.2222839729        0.0001406226
Si        1.0933486123        1.1966766013        0.0000041902
Si       -1.2076635140       -1.1285028510        0.0000011406
Si        1.2077529745       -1.1036611871       -0.0000244707
 PRIMCOORD     4
   10  1
 H       -2.1278994141        2.3325706113        0.0001486191
 H        2.1490576350        2.3007484775       -0.0000039426
 H       -1.8395340041       -1.7615866227        1.2353450298
 H        1.8387001042       -1.7380975236        1.2425090019
 H       -1.8394960359       -1.7614067564       -1.2354676424
 H        1.8386197694       -1.7380454818       -1.2426335943
Si       -1.0973337804        1.1264914755        0.0000983790
Si        1.0795596919        1.2256374833        0.0000350134
Si       -1.1851705447       -1.0453649899       -0.0000016220
Si        1.1834965809       -1.1409906722       -0.0000292410
 PRIMCOORD     5
   10  1
 H       -2.1560299136        2.2117199550        0.0001348541
 H        2.1263535610        2.3530601655        0.0000153382
 H       -1.8123669923       -1.6954161214        1.2221604525
 H        1.8175414493       -1.7712927903        1.2386985299
 H       -1.8123389399       -1.6952731678       -1.2222609879
 H        1.8174813965       -1.7712133261       -1.2388370753
Si       -1.0906393845        1.0476003170        0.0000764975
Si        1.0954103240        1.1926205322        0.0000462203
Si       -1.1225709588       -0.9613816791       -0.0000016204
Si        1.1371594601       -1.1104678841       -0.0000322078
 PRIMCOORD     6
   10  1
 H       -2.1763044443        2.1255371322        0.0001143629
 H        2.1258044345        2.3260238456        0.0000316943
 H       -1.7589513841       -1.6435729292        1.2306161579
 H        1.7606974291       -1.7593472250        1.2434214762
 H       -1.7589316725       -1.6434443011       -1.2307051459
 H        1.7606486435       -1.7592519726       -1.2435624510
Si       -1.0678936976        1.1207795456        0.0000747614
Si        1.0886876402        1.1929870200        0.0000500214
Si       -1.1370118161       -1.0464186901       -0.0000071213
Si        1.1632548694       -1.1133364244       -0.0000337549
 PRIMCOORD     7
   10  1
 H       -2.1830963855        2.2066768078        0.0001090872
 H        2.1378975528        2.3133459596        0.0000440067
 H       -1.7810701541       -1.6923365556        1.2334696967
 H        1.7872737884       -1.7527187975        1.2319078131
 H       -1.7810588886       -1.6922182222       -1.2335566420
 H        1.7872285210       -1.7526149982       -1.2320513779
Si       -1.0801312708        1.1942778097        0.0000703954
Si        1.0946952576        1.1599155448        0.0000507891
Si       -1.0823812352       -1.1125189607       -0.0000125527
Si        1.1006428165       -1.0718525867       -0.0000312147
 PRIMCOORD     8
   10  1
 H       -2.1894575175        2.2832562344        0.0001050853
 H        2.1715147088        2.2355848952        0.0000544168
 H       -1.7302967356       -1.7433586957        1.2387615440
 H        1.7381287976       -1.7122215802        1.2231303605
 H       -1.7302943946       -1.7432417221       -1.2388552166
 H        1.7380888212       -1.7121195441       -1.2232667028
Si       -1.0878467828        1.2729184080        0.0000718108
Si        1.0830519137        1.1054059585        0.0000466160
Si       -1.0390845358       -1.1826090902       -0.0000197835
Si        1.0461957270       -1.0036588627       -0.0000281296
 PRIMCOORD     9
   10  1
 H       -2.1648745725        2.3937114085        0.0001062975
 H        2.2046423800        2.1370449970        0.0000568609
 H       -1.6814758487       -1.8098814110        1.2496451474
 H        1.6972879742       -1.6581673191        1.2333540265
 H       -1.6814744437       -1.8097597387       -1.2497538845
 H        1.6972503271       -1.6580664457       -1.2334807766
Si       -1.1038260482        1.2888038754        0.0000784224
Si        1.0449973448        1.1664941384        0.0000470156
Si       -1.1353489184       -1.1998074972       -0.0000242321
Si        1.1228218075       -1.0504160067       -0.0000288760
 PRIMCOORD    10
   10  1
 H       -2.1479193951        2.4232951478        0.0001072295
 H        2.1921861411        2.2131390840        0.0000654084
 H       -1.7701349442       -1.8190186756        1.2548431917
 H        1.7711976479       -1.6938892472        1.2368897219
 H       -1.7701250745       -1.8188967480       -1.2549590936
 H        1.7711599209       -1.6937904281       -1.2370160280
Si       -1.0937989826        1.3526240384        0.0000805916
Si        1.0606666329        1.1886654355        0.0000468844
Si       -1.1669815596       -1.2778433531       -0.0000291393
Si        1.1537496151       -1.0743292528       -0.0000287656
