 ANIMSTEPS    10
 CRYSTAL 
 PRIMVEC 
  7.4084780000  0.0000000000  0.0000000000
  0.0000000000  7.4084780000  0.0000000000
  0.0000000000  0.0000000000  7.4084780000
 PRIMCOORD     1
   10  1
 H       -2.1428818680        2.3133833370        0.0000009360
 H        2.1428815030        2.3133810790       -0.0000003560
 H       -1.8241408910       -1.7441216280        1.2505559640
 H        1.8241425090       -1.7441238850        1.2505540140
 H       -1.8241467450       -1.7441246850       -1.2505531790
 H        1.8241466360       -1.7441274050       -1.2505526730
Si       -1.0818540600        1.1996017860       -0.0000009590
Si        1.0818548510        1.1996041600       -0.0000015560
Si       -1.1922132580       -1.1247611110       -0.0000010900
Si        1.1922113250       -1.1247556470       -0.0000011000
 PRIMCOORD     2
   10  1
 H       -2.1514525741        2.3142498468        0.0000054640
 H        2.1517923119        2.3144330240       -0.0000169562
 H       -1.8258469816       -1.7425912165        1.2579571498
 H        1.8258908571       -1.7424202103        1.2582820108
 H       -1.8258570764       -1.7426053829       -1.2579671009
 H        1.8258989657       -1.7424672017       -1.2582626857
Si       -1.0738551418        1.2666346704        0.0000183073
Si        1.0734141088        1.2702525928        0.0000000634
Si       -1.2269934742       -1.1959160788       -0.0000045675
Si        1.2270090065       -1.1996140429       -0.0000116841
 PRIMCOORD     3
   10  1
 H       -2.1403227941        2.3866963316        0.0000029005
 H        2.1361533349        2.3907573588       -0.0000093981
 H       -1.8677137446       -1.7893918979        1.2416303708
 H        1.8678568247       -1.7931486095        1.2396223888
 H       -1.8677120779       -1.7893806066       -1.2416356130
 H        1.8678614939       -1.7931416414       -1.2396208327
Si       -1.0894794294        1.2223156888        0.0000045703
Si        1.0932996196        1.1966126751        0.0000035466
Si       -1.2081969768       -1.1282300876        0.0000006773
Si        1.2082537518       -1.1031332103        0.0000013906
 PRIMCOORD     4
   10  1
 H       -2.1274064526        2.3327164301        0.0000035240
 H        2.1484946257        2.3008516139       -0.0000045410
 H       -1.8398087576       -1.7615036851        1.2355936097
 H        1.8389709060       -1.7379547346        1.2427558202
 H       -1.8398055521       -1.7614950723       -1.2355995094
 H        1.8389723308       -1.7379518989       -1.2427551727
Si       -1.0973522104        1.1255031839        0.0000034209
Si        1.0794996832        1.2248030151        0.0000020026
Si       -1.1873121368       -1.0446959379        0.0000001965
Si        1.1857475658       -1.1403169132        0.0000006501
 PRIMCOORD     5
   10  1
 H       -2.1550007523        2.2118282323        0.0000034536
 H        2.1253988991        2.3525367925       -0.0000021241
 H       -1.8139403822       -1.6951990013        1.2223469289
 H        1.8192298350       -1.7708866705        1.2389587377
 H       -1.8139369355       -1.6951929282       -1.2223523404
 H        1.8192302912       -1.7708850575       -1.2389588344
Si       -1.0908493275        1.0459969728        0.0000023533
Si        1.0952979184        1.1898300505        0.0000016329
Si       -1.1274079876       -0.9599695628       -0.0000000686
Si        1.1419784433       -1.1081028269        0.0000002622
 PRIMCOORD     6
   10  1
 H       -2.1743762241        2.1263609727        0.0000029458
 H        2.1244018144        2.3237781899       -0.0000007416
 H       -1.7630261068       -1.6429099801        1.2306347038
 H        1.7650169617       -1.7577861760        1.2435556314
 H       -1.7630229202       -1.6429050496       -1.2306396635
 H        1.7650172724       -1.7577847914       -1.2435560969
Si       -1.0687058449        1.1188544711        0.0000020809
Si        1.0882632773        1.1904653965        0.0000014961
Si       -1.1395799391       -1.0458595780       -0.0000004222
Si        1.1660117114       -1.1122574540        0.0000000673
 PRIMCOORD     7
   10  1
 H       -2.1820502693        2.2062541316        0.0000027523
 H        2.1369579825        2.3117098519        0.0000000412
 H       -1.7834301585       -1.6916042895        1.2335219336
 H        1.7895878397       -1.7517248500        1.2318548996
 H       -1.7834274030       -1.6915999754       -1.2335267267
 H        1.7895881731       -1.7517233839       -1.2318555348
Si       -1.0801773990        1.1925260663        0.0000018257
Si        1.0947051220        1.1565493507        0.0000014252
Si       -1.0859079211       -1.1112728113       -0.0000006174
Si        1.1041540357       -1.0691580894        0.0000000022
 PRIMCOORD     8
   10  1
 H       -2.1877684355        2.2826605020        0.0000025884
 H        2.1704819990        2.2330020299        0.0000007276
 H       -1.7334526060       -1.7424527560        1.2385132789
 H        1.7410801006       -1.7103998549        1.2227853530
 H       -1.7334505284       -1.7424486742       -1.2385179484
 H        1.7410805135       -1.7103983584       -1.2227861458
Si       -1.0880613578        1.2691367028        0.0000017912
Si        1.0835296540        1.1012573861        0.0000012623
Si       -1.0391580404       -1.1794877257       -0.0000008294
Si        1.0457187032       -1.0009132507       -0.0000000767
 PRIMCOORD     9
   10  1
 H       -2.1647600815        2.3900719453        0.0000025892
 H        2.2044926386        2.1338657816        0.0000011435
 H       -1.6807559662       -1.8076494131        1.2492771231
 H        1.6965022013       -1.6565675922        1.2331349355
 H       -1.6807543435       -1.8076452788       -1.2492819578
 H        1.6965026783       -1.6565659423       -1.2331358356
Si       -1.1033952023        1.2854438586        0.0000019529
Si        1.0453700374        1.1643600297        0.0000012249
Si       -1.1338327550       -1.1955357726       -0.0000010342
Si        1.1206307949       -1.0498216153       -0.0000001405
 PRIMCOORD    10
   10  1
 H       -2.1491033386        2.4184622137        0.0000025774
 H        2.1926986544        2.2118890134        0.0000015046
 H       -1.7680739601       -1.8162760096        1.2543068095
 H        1.7691590889       -1.6934905256        1.2368887890
 H       -1.7680722293       -1.8162719991       -1.2543117810
 H        1.7691595762       -1.6934887987       -1.2368897938
Si       -1.0936641187        1.3494282296        0.0000020319
Si        1.0611220765        1.1898433334        0.0000012348
Si       -1.1628785258       -1.2737002071       -0.0000011903
Si        1.1496527786       -1.0764392490       -0.0000001811
