 ANIMSTEPS    10
 CRYSTAL 
 PRIMVEC 
  7.4084806442  0.0000000000  0.0000000000
  0.0000000000  7.4084806442  0.0000000000
  0.0000000000  0.0000000000  7.4084806442
 PRIMCOORD     1
   10  1
 H       -2.1428818680        2.3133833370        0.0000009360
 H        2.1428815030        2.3133810790       -0.0000003560
 H       -1.8241408910       -1.7441216280        1.2505559640
 H        1.8241425090       -1.7441238850        1.2505540140
 H       -1.8241467450       -1.7441246850       -1.2505531790
 H        1.8241466360       -1.7441274050       -1.2505526730
Si       -1.0818540600        1.1996017860       -0.0000009590
Si        1.0818548510        1.1996041600       -0.0000015560
Si       -1.1922132580       -1.1247611110       -0.0000010900
Si        1.1922113250       -1.1247556470       -0.0000011000
 PRIMCOORD     2
   10  1
 H       -2.1502658937        2.3219742806        0.0000007611
 H        2.1495256072        2.3208260172       -0.0000007499
 H       -1.8309506219       -1.7508273909        1.2563755460
 H        1.8306479996       -1.7503721620        1.2557777286
 H       -1.8309562821       -1.7508302821       -1.2563730695
 H        1.8306518563       -1.7503752006       -1.2557777605
Si       -1.0769431925        1.2573827994       -0.0000002540
Si        1.0781158954        1.2499641454       -0.0000009291
Si       -1.2508006946       -1.1778325838       -0.0000006247
Si        1.2509753283       -1.1699536222       -0.0000006469
 PRIMCOORD     3
   10  1
 H       -2.1566104179        2.3542594382       -0.0000084804
 H        2.1593321975        2.3524121437        0.0000024854
 H       -1.8594241051       -1.7698336939        1.2549998555
 H        1.8598041168       -1.7681966868        1.2555827058
 H       -1.8594398057       -1.7698308220       -1.2549905358
 H        1.8598081108       -1.7681913554       -1.2555965172
Si       -1.0921948562        1.2016130430        0.0000119007
Si        1.0881663605        1.2256617437        0.0000016959
Si       -1.1788802233       -1.1169621980       -0.0000012336
Si        1.1794386247       -1.1409756114       -0.0000018755
 PRIMCOORD     4
   10  1
 H       -2.1392174332        2.3069578626       -0.0000032406
 H        2.1444661484        2.3357043561        0.0000038078
 H       -1.8215776024       -1.7411023075        1.2264620925
 H        1.8248810893       -1.7551208017        1.2346056819
 H       -1.8215962564       -1.7411016400       -1.2264614304
 H        1.8248803276       -1.7551139098       -1.2345948886
Si       -1.0898310113        1.1452436552       -0.0000019402
Si        1.0802771130        1.2266659472       -0.0000038824
Si       -1.0867214540       -1.0681597251       -0.0000054256
Si        1.0844390809       -1.1540174360       -0.0000007734
 PRIMCOORD     5
   10  1
 H       -2.1926696246        2.2140650653        0.0000018654
 H        2.1575676155        2.3423018317        0.0000058091
 H       -1.7317390987       -1.7056421678        1.2435077668
 H        1.7263172287       -1.7745342482        1.2517506392
 H       -1.7317486877       -1.7056471991       -1.2435017943
 H        1.7263203664       -1.7745364058       -1.2517547701
Si       -1.0690768767        1.1845197526       -0.0000024096
Si        1.1006522338        1.2098992471       -0.0000029883
Si       -1.1759735399       -1.0762766807        0.0000016308
Si        1.1903503851       -1.1141931942       -0.0000057480
 PRIMCOORD     6
   10  1
 H       -2.1539371269        2.2646108447       -0.0000059679
 H        2.1358405667        2.3171466623        0.0000040616
 H       -1.8022262684       -1.7258585048        1.2319658853
 H        1.8101473643       -1.7539988912        1.2341845698
 H       -1.8022578952       -1.7258740306       -1.2318427902
 H        1.8100974589       -1.7539902859       -1.2343081912
Si       -1.0966504191        1.0906968267        0.0000014740
Si        1.0904732895        1.1482901343       -0.0000167543
Si       -1.1448639276       -1.0037752554        0.0000487274
Si        1.1533769597       -1.0572914991       -0.0000310135
 PRIMCOORD     7
   10  1
 H       -2.1405594456        2.2185505384        0.0000121114
 H        2.1126314335        2.2731764121       -0.0000093214
 H       -1.7831912935       -1.7018454036        1.2272268079
 H        1.7865047465       -1.7293121639        1.2269292570
 H       -1.7832439367       -1.7018735632       -1.2271245977
 H        1.7864411543       -1.7292963193       -1.2270257909
Si       -1.0808413150        1.1355570446        0.0000042231
Si        1.0909960077        1.0891069718       -0.0000136400
Si       -1.2048970450       -1.0526634458        0.0000341122
Si        1.2161596957       -1.0014440699       -0.0000331608
 PRIMCOORD     8
   10  1
 H       -2.1345182923        2.2788182605        0.0000153757
 H        2.1364036926        2.2069020268       -0.0000166440
 H       -1.8250268808       -1.7362895779        1.2521852568
 H        1.8336829400       -1.6771343555        1.2411260389
 H       -1.8251077644       -1.7363348298       -1.2520667275
 H        1.8336106478       -1.6771020123       -1.2412424820
Si       -1.0833282958        1.2029713799        0.0000068545
Si        1.0722984726        1.1221326093       -0.0000070491
Si       -1.2625007753       -1.1421432773        0.0000337402
Si        1.2544862575       -1.0418642228       -0.0000343623
 PRIMCOORD     9
   10  1
 H       -2.1478731013        2.3291144505        0.0000105409
 H        2.1496099334        2.2323873423       -0.0000074395
 H       -1.8637259547       -1.7697989992        1.2703437301
 H        1.8645365836       -1.6929604329        1.2516397437
 H       -1.8638057805       -1.7698424060       -1.2702216813
 H        1.8644564153       -1.6929141534       -1.2517705844
Si       -1.0838993793        1.2323567767        0.0000242583
Si        1.0857547290        1.1118985279       -0.0000150093
Si       -1.3439492214       -1.1665029463        0.0000335400
Si        1.3388957779       -1.0137821586       -0.0000370975
 PRIMCOORD    10
   10  1
 H       -2.0785230817        2.4029293134        0.0000099866
 H        2.1330341893        2.2516390724       -0.0000124833
 H       -1.9642491561       -1.8094578596        1.2564676644
 H        1.9545472402       -1.6821338644        1.2486890591
 H       -1.9643390446       -1.8094904936       -1.2563116345
 H        1.9544553372       -1.6820841098       -1.2488516909
Si       -1.0854722502        1.2337074849        0.0000141638
Si        1.0682966733        1.1902089640       -0.0000036787
Si       -1.3834434131       -1.1913288301        0.0000475675
Si        1.3656935077       -1.1040336762       -0.0000489530
