 ANIMSTEPS    10
 CRYSTAL 
 PRIMVEC 
  7.4084809512  0.0000000000  0.0000000000
  0.0000000000  7.4084809512  0.0000000000
  0.0000000000  0.0000000000  7.4084809512
 PRIMCOORD     1
   10  1
 H       -2.0191043824        2.6351289099       -0.2633113733
 H        2.2797056665        2.0772184560       -0.1691382538
 H       -1.9413452936       -1.7079914789        1.3180731488
 H        1.7561072281       -1.4806542743        1.4332125312
 H       -1.9548316562       -2.0063417838       -0.9590467354
 H        1.7780372781       -1.8826067153       -1.0609068540
Si       -0.9178665234        1.5237834357       -0.0941531972
Si        1.2089832543        1.0704132877       -0.3115309601
Si       -1.2781468640       -1.2087708390        0.0928809177
Si        1.0884612946       -1.2202229970        0.1139207771
 PRIMCOORD     2
   10  1
 H       -1.7569973130        2.7246496709       -0.1765630230
 H        2.2537250440        2.0818794276       -0.5031549451
 H       -1.9423343079       -1.8340470103        1.3954242531
 H        1.6379707022       -1.5825740785        1.4561217363
 H       -1.9661188905       -1.9413186699       -0.9795359508
 H        1.9495716297       -1.9123648312       -0.9115471783
Si       -0.9063692499        1.4385889862       -0.2870248265
Si        1.1686976620        1.0967771888       -0.1369352000
Si       -1.4056002076       -1.0230402167        0.1383816064
Si        0.9674549331       -1.2485944659        0.1048335288
 PRIMCOORD     3
   10  1
 H       -1.8877473567        2.5569542504       -0.4753214106
 H        2.4565944542        2.0894688475       -0.3243264782
 H       -2.0072558046       -1.3423503077        1.4275531832
 H        1.6498530661       -1.7165931610        1.4646372454
 H       -1.9913437794       -1.7958018325       -0.9955346701
 H        1.6460705136       -2.2331448066       -0.6829270612
Si       -0.8686177185        1.3337343497       -0.3113132407
Si        1.3023268077        1.0747623845       -0.3102589244
Si       -1.3418075608       -0.9480202910        0.1089866142
Si        1.0419273804       -1.2190534323        0.1985047433
 PRIMCOORD     4
   10  1
 H       -2.0683094002        2.3479643795       -0.5153954287
 H        2.4006134816        2.0361850837       -0.6501759615
 H       -2.0546608722       -1.2421835686        1.3948372572
 H        1.7042842911       -1.6526668573        1.6075835994
 H       -1.8943527159       -1.8468261452       -0.7897799449
 H        1.6914810776       -2.1747571957       -0.7482296131
Si       -1.0512509766        1.2046794132       -0.2404462700
Si        1.1487017106        1.1459343428       -0.4051704815
Si       -1.1393883225       -0.9213715212        0.1833079104
Si        1.2628817284       -1.0970019302        0.2634689336
 PRIMCOORD     5
   10  1
 H       -2.2163849519        2.2150310859       -0.7956755961
 H        2.1640063829        2.1603551343       -0.8035401783
 H       -1.3091454053       -1.2197395499        1.7918180086
 H        1.6892128503       -1.3690815323        1.6425858797
 H       -2.0314859120       -1.9954229599       -0.4604787562
 H        1.6583943140       -2.1812231882       -0.8506874081
Si       -1.2113091800        1.1899050117       -0.3417565000
Si        0.9909329043        1.1130029342       -0.5552584595
Si       -1.0697400019       -1.0764794925        0.3083951544
Si        1.3355190016       -1.0363914423        0.1645978565
 PRIMCOORD     6
   10  1
 H       -2.4466549331        1.8626117850       -0.2730605630
 H        1.7846564162        2.3952034356       -0.7885995463
 H       -1.3813094100       -1.1562367987        1.9716888765
 H        2.2883179767       -1.1796436844        1.1153809959
 H       -1.6476641385       -2.3217629240       -0.3926074389
 H        1.6336368530       -1.8792330952       -1.1679343845
Si       -1.2358189756        0.9712383449       -0.3876089211
Si        0.9467109064        1.1514288329       -0.4115714595
Si       -1.1745513487       -1.1072629370        0.4483393108
Si        1.2326766558       -0.9363869581       -0.0140268689
 PRIMCOORD     7
   10  1
 H       -2.5991973289        1.6102865700       -0.3810762517
 H        1.5621714898        2.4913706681       -0.4537215295
 H       -0.9517599173       -1.4379097725        2.1039236008
 H        2.5423395409       -1.3640993847        0.5181528784
 H       -1.9213284938       -2.3087646705       -0.1608503788
 H        1.4757001880       -1.0781921074       -1.7421138882
Si       -1.2432308489        0.8512208620       -0.0923258809
Si        0.8919377634        1.1907533534       -0.0380300458
Si       -1.1224453227       -1.2474301513        0.5855452715
Si        1.3658129316       -0.9072793660       -0.2395037748
 PRIMCOORD     8
   10  1
 H       -2.4280330468        1.9788018001        0.4678533215
 H        1.5171974056        2.5241741891        0.1795856080
 H       -0.7424905598       -1.9036432761        1.6650974363
 H        2.5027465441       -1.4359995812        0.3314588192
 H       -1.9352408843       -2.2434104310       -0.5672955840
 H        1.4378822716       -1.1165667560       -2.0443943948
Si       -1.3684707289        0.9020345280        0.2648848468
Si        0.6769350307        1.2928757080        0.0239146245
Si       -1.1106582789       -1.3912749652        0.3371521362
Si        1.4501322488       -0.8070352147       -0.5582568127
 PRIMCOORD     9
   10  1
 H       -2.3195911858        1.9860931427        0.8003243128
 H        1.4980145657        2.5761962095       -0.2053685616
 H       -1.5495130642       -2.1741997053        1.4633187528
 H        2.6121561347       -1.6998029668        0.3491746746
 H       -1.9086705535       -1.9235688624       -1.0131571056
 H        1.7634449628       -0.9540962240       -1.8922699761
Si       -1.4050418090        0.8541982305        0.4218133464
Si        0.7160833487        1.3878205936        0.3868965318
Si       -1.0680998457       -1.5398148552        0.1592058836
Si        1.6612174484       -0.7128695617       -0.3699378577
 PRIMCOORD    10
   10  1
 H       -2.2433201372        2.2957464429        0.5555783078
 H        1.9979500859        2.2476147629        0.4547786677
 H       -1.8562692736       -1.9089094110        1.0699426419
 H        2.2924426564       -1.7437866904        0.8555205103
 H       -2.1132230470       -1.6295941557       -1.3731283561
 H        2.0127207194       -1.6628259503       -1.4736393713
Si       -1.2975604142        1.1282582898        0.2919139935
Si        0.8497016858        1.3596401538        0.0938601347
Si       -1.1897303923       -1.2467253004       -0.1416501563
Si        1.5472881188       -1.0394621406       -0.2331763713
