 ANIMSTEPS    10
 CRYSTAL 
 PRIMVEC 
  7.4084806442  0.0000000000  0.0000000000
  0.0000000000  7.4084806442  0.0000000000
  0.0000000000  0.0000000000  7.4084806442
 PRIMCOORD     1
   10  1
 H       -2.1428818680        2.3133833370        0.0000009360
 H        2.1428815030        2.3133810790       -0.0000003560
 H       -1.8241408910       -1.7441216280        1.2505559640
 H        1.8241425090       -1.7441238850        1.2505540140
 H       -1.8241467450       -1.7441246850       -1.2505531790
 H        1.8241466360       -1.7441274050       -1.2505526730
Si       -1.0818540600        1.1996017860       -0.0000009590
Si        1.0818548510        1.1996041600       -0.0000015560
Si       -1.1922132580       -1.1247611110       -0.0000010900
Si        1.1922113250       -1.1247556470       -0.0000011000
 PRIMCOORD     2
   10  1
 H       -2.1514527357        2.3142499994        0.0000054641
 H        2.1517924744        2.3144331773       -0.0000169562
 H       -1.8258470644       -1.7425913086        1.2579573415
 H        1.8258909402       -1.7424203020        1.2582822034
 H       -1.8258571593       -1.7426054750       -1.2579672925
 H        1.8258990487       -1.7424672935       -1.2582628783
Si       -1.0738552525        1.2666346601        0.0000183074
Si        1.0734142185        1.2702525868        0.0000000634
Si       -1.2269935954       -1.1959160374       -0.0000045675
Si        1.2270091275       -1.1996140061       -0.0000116842
 PRIMCOORD     3
   10  1
 H       -2.1403211011        2.3866962570        0.0000029005
 H        2.1361545235        2.3907589153       -0.0000093981
 H       -1.8677122429       -1.7893939808        1.2416317283
 H        1.8678556790       -1.7931496375        1.2396265138
 H       -1.8677105762       -1.7893826895       -1.2416369707
 H        1.8678603484       -1.7931426693       -1.2396249577
Si       -1.0894806792        1.2222936517        0.0000045704
Si        1.0932969267        1.1966241457        0.0000035465
Si       -1.2082329768       -1.1282055408        0.0000006773
Si        1.2082901007       -1.1031424508        0.0000013906
 PRIMCOORD     4
   10  1
 H       -2.1273883023        2.3326921131        0.0000035242
 H        2.1484613693        2.3008808152       -0.0000045408
 H       -1.8398220880       -1.7614993972        1.2356030196
 H        1.8389863183       -1.7379774230        1.2427726847
 H       -1.8398188823       -1.7614907846       -1.2356089192
 H        1.8389877431       -1.7379745872       -1.2427720374
Si       -1.0973481019        1.1253637086        0.0000034205
Si        1.0794977206        1.2247070994        0.0000020026
Si       -1.1876039558       -1.0445410208        0.0000001967
Si        1.1860481810       -1.1402045224        0.0000006503
 PRIMCOORD     5
   10  1
 H       -2.1548887906        2.2117854636        0.0000034534
 H        2.1252372296        2.3524885371       -0.0000021229
 H       -1.8141408382       -1.6951424187        1.2223753887
 H        1.8194475663       -1.7708737256        1.2389775058
 H       -1.8141373907       -1.6951363468       -1.2223808003
 H        1.8194480224       -1.7708721125       -1.2389776024
Si       -1.0908650774        1.0457579818        0.0000023525
Si        1.0952984332        1.1893372268        0.0000016323
Si       -1.1281402454       -0.9597344677       -0.0000000688
Si        1.1427410927       -1.1076541369        0.0000002627
 PRIMCOORD     6
   10  1
 H       -2.1740976100        2.1264789456        0.0000029457
 H        2.1242050787        2.3233474594       -0.0000007398
 H       -1.7636243994       -1.6428323091        1.2306307971
 H        1.7656584877       -1.7575295519        1.2435511504
 H       -1.7636212111       -1.6428273826       -1.2306357577
 H        1.7656587985       -1.7575281676       -1.2435516140
Si       -1.0688335182        1.1185663238        0.0000020797
Si        1.0881906911        1.1900379081        0.0000014947
Si       -1.1399935976       -1.0457448755       -0.0000004231
Si        1.1664572823       -1.1120123492        0.0000000681
 PRIMCOORD     7
   10  1
 H       -2.1818546475        2.2062454380        0.0000027514
 H        2.1368206934        2.3113656037        0.0000000427
 H       -1.7837947475       -1.6915249000        1.2335529507
 H        1.7899530197       -1.7515214500        1.2318535763
 H       -1.7837919906       -1.6915205890       -1.2335577445
 H        1.7899533542       -1.7515199849       -1.2318542091
Si       -1.0801928973        1.1923042963        0.0000018246
Si        1.0946892547        1.1558567488        0.0000014239
Si       -1.0866461983       -1.1111496361       -0.0000006182
Si        1.1048641612       -1.0685795258        0.0000000032
 PRIMCOORD     8
   10  1
 H       -2.1873826524        2.2827665540        0.0000025871
 H        2.1703059691        2.2324046239        0.0000007287
 H       -1.7340693141       -1.7424308799        1.2384895043
 H        1.7416645708       -1.7100031140        1.2227174364
 H       -1.7340672352       -1.7424268012       -1.2384941750
 H        1.7416649854       -1.7100016189       -1.2227182258
Si       -1.0881149471        1.2685369417        0.0000017894
Si        1.0835908733        1.1002858213        0.0000012613
Si       -1.0394595597       -1.1790032700       -0.0000008297
Si        1.0458673118       -1.0001722559       -0.0000000757
 PRIMCOORD     9
   10  1
 H       -2.1648559878        2.3892802865        0.0000025871
 H        2.2043689274        2.1331857957        0.0000011396
 H       -1.6808962497       -1.8071585893        1.2492460349
 H        1.6966795029       -1.6561759631        1.2330515607
 H       -1.6808946248       -1.8071544540       -1.2492508687
 H        1.6966799811       -1.6561743146       -1.2330524560
Si       -1.1033059087        1.2848488845        0.0000019495
Si        1.0454446499        1.1639129172        0.0000012255
Si       -1.1335691062       -1.1948781057       -0.0000010325
Si        1.1203488181       -1.0497304562       -0.0000001391
 PRIMCOORD    10
   10  1
 H       -2.1495455019        2.4175501576        0.0000025765
 H        2.1929078153        2.2116304812        0.0000014963
 H       -1.7676341948       -1.8159951444        1.2541991042
 H        1.7688275694       -1.6933721639        1.2368938661
 H       -1.7676324651       -1.8159911307       -1.2542040726
 H        1.7688280583       -1.6933704404       -1.2368948660
Si       -1.0937059511        1.3489466355        0.0000020290
Si        1.0611619939        1.1902356943        0.0000012350
Si       -1.1621471801       -1.2729418630       -0.0000011871
Si        1.1489398581       -1.0767362251       -0.0000001804
