 ANIMSTEPS    10
 CRYSTAL 
 PRIMVEC 
  7.4084809512  0.0000000000  0.0000000000
  0.0000000000  7.4084809512  0.0000000000
  0.0000000000  0.0000000000  7.4084809512
 PRIMCOORD     1
   10  1
 H       -2.1428818680        2.3133833370        0.0000009360
 H        2.1428815030        2.3133810790       -0.0000003560
 H       -1.8241408910       -1.7441216280        1.2505559640
 H        1.8241425090       -1.7441238850        1.2505540140
 H       -1.8241467450       -1.7441246850       -1.2505531790
 H        1.8241466360       -1.7441274050       -1.2505526730
Si       -1.0818540600        1.1996017860       -0.0000009590
Si        1.0818548510        1.1996041600       -0.0000015560
Si       -1.1922132580       -1.1247611110       -0.0000010900
Si        1.1922113250       -1.1247556470       -0.0000011000
 PRIMCOORD     2
   10  1
 H       -2.1514527538        2.3142500171        0.0000054641
 H        2.1517924925        2.3144331950       -0.0000169562
 H       -1.8258470738       -1.7425913195        1.2579573631
 H        1.8258909496       -1.7424203128        1.2582822251
 H       -1.8258571687       -1.7426054858       -1.2579673142
 H        1.8258990582       -1.7424673043       -1.2582629001
Si       -1.0738552655        1.2666346590        0.0000183075
Si        1.0734142314        1.2702525863        0.0000000634
Si       -1.2269936096       -1.1959160324       -0.0000045675
Si        1.2270091416       -1.1996140017       -0.0000116842
 PRIMCOORD     3
   10  1
 H       -2.1403211945        2.3866963077        0.0000029005
 H        2.1361546122        2.3907589647       -0.0000093981
 H       -1.8677122721       -1.7893940205        1.2416317843
 H        1.8678557076       -1.7931496790        1.2396265651
 H       -1.8677106054       -1.7893827291       -1.2416370266
 H        1.8678603770       -1.7931427108       -1.2396250090
Si       -1.0894807189        1.2222936630        0.0000045704
Si        1.0932969728        1.1966241039        0.0000035465
Si       -1.2082331174       -1.1282055212        0.0000006773
Si        1.2082902407       -1.1031423778        0.0000013906
 PRIMCOORD     4
   10  1
 H       -2.1273883368        2.3326921944        0.0000035242
 H        2.1484614689        2.3008808459       -0.0000045408
 H       -1.8398221926       -1.7614994715        1.2356031355
 H        1.8389864221       -1.7379774403        1.2427728445
 H       -1.8398189870       -1.7614908589       -1.2356090352
 H        1.8389878470       -1.7379746044       -1.2427721972
Si       -1.0973481145        1.1253635613        0.0000034205
Si        1.0794976579        1.2247074022        0.0000020026
Si       -1.1876050597       -1.0445408486        0.0000001967
Si        1.1860492966       -1.1402047791        0.0000006503
 PRIMCOORD     5
   10  1
 H       -2.1548885873        2.2117855503        0.0000034534
 H        2.1252368748        2.3524892304       -0.0000021229
 H       -1.8141417125       -1.6951424375        1.2223755135
 H        1.8194485467       -1.7708740501        1.2389778073
 H       -1.8141382650       -1.6951363656       -1.2223809251
 H        1.8194490028       -1.7708724370       -1.2389779039
Si       -1.0908651513        1.0457569423        0.0000023525
Si        1.0952983302        1.1893376991        0.0000016323
Si       -1.1281430263       -0.9597333415       -0.0000000688
Si        1.1427439899       -1.1076547894        0.0000002627
 PRIMCOORD     6
   10  1
 H       -2.1740971035        2.1264786348        0.0000029457
 H        2.1242038301        2.3233489262       -0.0000007398
 H       -1.7636268310       -1.6428316798        1.2306307409
 H        1.7656611910       -1.7575302237        1.2435513429
 H       -1.7636236427       -1.6428267533       -1.2306357015
 H        1.7656615018       -1.7575288394       -1.2435518066
Si       -1.0688338033        1.1185651811        0.0000020797
Si        1.0881907135        1.1900379485        0.0000014947
Si       -1.1399950128       -1.0457441593       -0.0000004231
Si        1.1664591589       -1.1120130342        0.0000000681
 PRIMCOORD     7
   10  1
 H       -2.1818543447        2.2062447391        0.0000027514
 H        2.1368197287        2.3113667591        0.0000000427
 H       -1.7837962312       -1.6915243409        1.2335529271
 H        1.7899547149       -1.7515218259        1.2318537296
 H       -1.7837934742       -1.6915200299       -1.2335577209
 H        1.7899550494       -1.7515203609       -1.2318543624
Si       -1.0801930132        1.1923027696        0.0000018246
Si        1.0946893320        1.1558566066        0.0000014239
Si       -1.0866476914       -1.1111485470       -0.0000006182
Si        1.1048659317       -1.0685797689        0.0000000032
 PRIMCOORD     8
   10  1
 H       -2.1873822969        2.2827650805        0.0000025871
 H        2.1703051450        2.2324054817        0.0000007287
 H       -1.7340707096       -1.7424301421        1.2384891049
 H        1.7416660654       -1.7100032505        1.2227172833
 H       -1.7340686308       -1.7424260634       -1.2384937757
 H        1.7416664800       -1.7100017553       -1.2227180727
Si       -1.0881152308        1.2685333057        0.0000017894
Si        1.0835913969        1.1002845935        0.0000012613
Si       -1.0394581463       -1.1789998960       -0.0000008297
Si        1.0458659293       -1.0001713531       -0.0000000757
 PRIMCOORD     9
   10  1
 H       -2.1648573991        2.3892755319        0.0000025871
 H        2.2043686439        2.1331853083        0.0000011396
 H       -1.6808943735       -1.8071562864        1.2492456343
 H        1.6966780698       -1.6561757459        1.2330514565
 H       -1.6808927485       -1.8071521511       -1.2492504681
 H        1.6966785480       -1.6561740974       -1.2330523518
Si       -1.1033055717        1.2848464187        0.0000019495
Si        1.0454450284        1.1639124495        0.0000012255
Si       -1.1335667319       -1.1948746589       -0.0000010325
Si        1.1203465367       -1.0497307677       -0.0000001391
 PRIMCOORD    10
   10  1
 H       -2.1495473315        2.4175457751        0.0000025765
 H        2.1929079118        2.2116306688        0.0000014963
 H       -1.7676317498       -1.8159929697        1.2541986872
 H        1.7688255692       -1.6933723901        1.2368937815
 H       -1.7676300201       -1.8159889560       -1.2542036555
 H        1.7688260581       -1.6933706665       -1.2368947814
Si       -1.0937060050        1.3489443124        0.0000020290
Si        1.0611623515        1.1902360072        0.0000012350
Si       -1.1621433382       -1.2729389169       -0.0000011871
Si        1.1489365559       -1.0767368634       -0.0000001805
