 ANIMSTEPS    10
 CRYSTAL 
 PRIMVEC 
  7.4084780000  0.0000000000  0.0000000000
  0.0000000000  7.4084780000  0.0000000000
  0.0000000000  0.0000000000  7.4084780000
 PRIMCOORD     1
   10  1
 H       -2.0191043824        2.6351289099       -0.2633113733
 H        2.2797056665        2.0772184560       -0.1691382538
 H       -1.9413452936       -1.7079914789        1.3180731488
 H        1.7561072281       -1.4806542743        1.4332125312
 H       -1.9548316562       -2.0063417838       -0.9590467354
 H        1.7780372781       -1.8826067153       -1.0609068540
Si       -0.9178665234        1.5237834357       -0.0941531972
Si        1.2089832543        1.0704132877       -0.3115309601
Si       -1.2781468640       -1.2087708390        0.0928809177
Si        1.0884612946       -1.2202229970        0.1139207771
 PRIMCOORD     2
   10  1
 H       -1.7570121229        2.7246598693       -0.1765515191
 H        2.2537473445        2.0818726893       -0.5031383308
 H       -1.9423217167       -1.8340275809        1.3954145751
 H        1.6379291551       -1.5826577641        1.4561335533
 H       -1.9660974925       -1.9413184426       -0.9795476723
 H        1.9495844023       -1.9123265562       -0.9115762350
Si       -0.9063431937        1.4386137872       -0.2870206186
Si        1.1687104561        1.0967570023       -0.1369162565
Si       -1.4056222222       -1.0230076453        0.1383691952
Si        0.9674253918       -1.2486093580        0.1048333098
 PRIMCOORD     3
   10  1
 H       -1.8878303124        2.5569613333       -0.4751726406
 H        2.4558840152        2.0900985457       -0.3235445188
 H       -2.0073887100       -1.3425109015        1.4273524886
 H        1.6498908138       -1.7171525075        1.4645000920
 H       -1.9914511794       -1.7952605135       -0.9959149637
 H        1.6463642934       -2.2334712477       -0.6831838286
Si       -0.8685590168        1.3338546905       -0.3110021217
Si        1.3023115462        1.0746939752       -0.3102372426
Si       -1.3414672806       -0.9480337648        0.1088778308
Si        1.0422458326       -1.2192236086        0.1983249056
 PRIMCOORD     4
   10  1
 H       -2.0668416965        2.3523870997       -0.5130487922
 H        2.4058631288        2.0381847513       -0.6479672444
 H       -2.0720233904       -1.2456850403        1.3758171561
 H        1.6958684688       -1.6663851172        1.6089259867
 H       -1.8890483964       -1.8399328067       -0.8001154473
 H        1.6849191800       -2.1750103913       -0.7436608087
Si       -1.0555672807        1.2031803189       -0.2343786794
Si        1.1471188610        1.1502475598       -0.3955545191
Si       -1.1264395236       -0.9252875636        0.1812510367
Si        1.2761506509       -1.0917428096        0.2687313127
 PRIMCOORD     5
   10  1
 H       -2.1500387660        2.2166384554       -0.9106858009
 H        2.2825278955        2.0422031466       -0.7893852782
 H       -1.5253265716       -1.0256706944        1.7262634719
 H        1.6294729914       -1.3922717947        1.7481053873
 H       -2.0019745286       -1.9818877035       -0.5280913197
 H        1.6856872722       -2.2069355090       -0.7465428660
Si       -1.1709680781        1.2052567617       -0.4017390187
Si        1.0331993357        1.0708904548       -0.5358830339
Si       -1.0958238274       -1.0541791001        0.2893071895
Si        1.3132442790       -1.0740880158        0.2486512697
 PRIMCOORD     6
   10  1
 H       -2.0169760481        2.2150123373       -0.9362489570
 H        2.1085896639        1.9928661509       -0.9397177644
 H       -1.6341344491       -0.8886464187        1.8879059671
 H        1.8754824600       -1.0323299213        1.5656031404
 H       -1.8523034058       -2.1747656195       -0.4144407127
 H        1.6793016650       -2.2684274057       -0.5133150287
Si       -1.0708377947        1.0517469219       -0.6462820312
Si        1.1191741930        0.9238005519       -0.5280769341
Si       -1.3100594140       -0.9232624393        0.3603954984
Si        1.1017631317       -1.0960381564        0.2641768233
 PRIMCOORD     7
   10  1
 H       -2.0644180740        1.9655252944       -1.3073760488
 H        1.9674588233        1.7491729019       -1.4155447603
 H       -1.5713749389       -0.9376028579        2.0240273814
 H        1.8431777247       -0.8364655377        1.8176164003
 H       -1.8181830730       -2.0523971591       -0.2876638183
 H        1.8922318878       -2.0445494327       -0.3241643291
Si       -1.1003764037        0.8527719688       -0.7722759755
Si        1.0300986191        0.8459770603       -0.5641336019
Si       -1.2830864885       -0.8129491150        0.4873670738
Si        1.1044719252       -0.9295271221        0.4421476794
 PRIMCOORD     8
   10  1
 H       -2.2144781843        1.5075594890       -1.7407599649
 H        2.1252511722        1.5421032669       -1.4933584403
 H       -1.9169896327       -0.5636503207        1.7068882136
 H        1.7736763846       -0.1199990121        1.9937036474
 H       -1.6086724696       -2.2157979291       -0.0283192226
 H        1.8858161702       -2.0384411446        0.4347164828
Si       -1.1831399230        0.5624531327       -1.0949051216
Si        0.9582556440        0.7800092996       -0.9157430062
Si       -1.0897323011       -0.9395750551        0.5409241914
Si        1.2700131419       -0.7147057257        0.6968532213
 PRIMCOORD     9
   10  1
 H       -2.3080405940        1.1758570648       -1.8944850181
 H        2.0510116353        1.3022332741       -1.8963775834
 H       -1.6630031269       -0.7022152374        1.7602279531
 H        1.2016252723        0.4345277372        2.0517135758
 H       -1.3466957368       -2.4666936000        0.0108405541
 H        1.9800876468       -1.7577512346        1.0753060358
Si       -1.1102683987        0.6092772336       -1.1964146226
Si        1.0328476060        0.6661820695       -1.0235142752
Si       -0.9785682538       -1.0099142455        0.4414442171
Si        1.1410039517       -0.4515470607        0.7712591645
 PRIMCOORD    10
   10  1
 H       -2.1727936881        0.9456447337       -2.1887460220
 H        2.0135554522        1.4603389233       -1.8915445683
 H       -1.8882112527       -0.7483001632        1.6865499836
 H        1.3495404631        0.3736525085        2.0621674797
 H       -1.1496896101       -2.5030013519        0.1345999109
 H        2.0134963764       -1.5612272748        0.9959294019
Si       -1.1190395868        0.6828303705       -1.1627021009
Si        1.0963061977        0.7836156286       -0.8651576503
Si       -1.0628984722       -1.0872945028        0.4660369807
Si        0.9197341224       -0.5463028710        0.8628665857
