 ANIMSTEPS    15
 CRYSTAL 
 PRIMVEC 
  7.4084780000  0.0000000000  0.0000000000
  0.0000000000  7.4084780000  0.0000000000
  0.0000000000  0.0000000000  7.4084780000
 PRIMCOORD     1
   10  1
 H       -2.1428818680        2.3133833370        0.0000009360
 H        2.1428815030        2.3133810790       -0.0000003560
 H       -1.8241408910       -1.7441216280        1.2505559640
 H        1.8241425090       -1.7441238850        1.2505540140
 H       -1.8241467450       -1.7441246850       -1.2505531790
 H        1.8241466360       -1.7441274050       -1.2505526730
Si       -1.0818540600        1.1996017860       -0.0000009590
Si        1.0818548510        1.1996041600       -0.0000015560
Si       -1.1922132580       -1.1247611110       -0.0000010900
Si        1.1922113250       -1.1247556470       -0.0000011000
 PRIMCOORD     2
   10  1
 H       -2.1468577747        2.3178124740        0.0000013412
 H        2.1464704605        2.3172167084        0.0000001241
 H       -1.8277207307       -1.7477691460        1.2531219033
 H        1.8275659630       -1.7475351987        1.2528140395
 H       -1.8277262081       -1.7477719678       -1.2531182421
 H        1.8275689308       -1.7475390486       -1.2528128066
Si       -1.0792274226        1.2453577301       -0.0000016950
Si        1.0799386436        1.2393695868       -0.0000024368
Si       -1.2393523608       -1.1677066797       -0.0000009651
Si        1.2393405012       -1.1614784575       -0.0000012615
 PRIMCOORD     3
   10  1
 H       -2.1534479496        2.3645919906        0.0000053703
 H        2.1559573770        2.3590284886       -0.0000223756
 H       -1.8709085876       -1.7762885662        1.2517513668
 H        1.8708510909       -1.7727595600        1.2514019452
 H       -1.8709614498       -1.7763045464       -1.2516491475
 H        1.8708281769       -1.7727023440       -1.2515707737
Si       -1.0900737192        1.2148997923        0.0000533189
Si        1.0871548252        1.2314501731        0.0000467287
Si       -1.1933366636       -1.1282325162        0.0000369094
Si        1.1939369018       -1.1437269107       -0.0000533414
 PRIMCOORD     4
   10  1
 H       -2.1364471777        2.3176464848        0.0000180236
 H        2.1408343473        2.3379301532       -0.0000120335
 H       -1.8316842585       -1.7470567697        1.2282951025
 H        1.8342255383       -1.7569349929        1.2345309431
 H       -1.8317420162       -1.7470605182       -1.2282114258
 H        1.8341723712       -1.7568640070       -1.2346646210
Si       -1.0882678815        1.1588604944        0.0000285670
Si        1.0805515535        1.2282428791        0.0000262930
Si       -1.1046275501       -1.0810915990        0.0000225241
Si        1.1029850758       -1.1537161237       -0.0000333720
 PRIMCOORD     5
   10  1
 H       -2.1847406013        2.2207428986        0.0000326351
 H        2.1568266605        2.3449685140       -0.0000162153
 H       -1.7350123182       -1.7065524819        1.2376531183
 H        1.7310933448       -1.7718154533        1.2486838547
 H       -1.7350941323       -1.7065572549       -1.2375643509
 H        1.7310115820       -1.7717667416       -1.2488294751
Si       -1.0709499777        1.1783111109        0.0000458642
Si        1.0967766244        1.2184754590        0.0000148117
Si       -1.1594414588       -1.0756968469        0.0000250127
Si        1.1695302788       -1.1301532029       -0.0000452544
 PRIMCOORD     6
   10  1
 H       -2.1530650408        2.2743395345        0.0000470428
 H        2.1362902854        2.3287247265        0.0000004939
 H       -1.8143433813       -1.7283860495        1.2314771680
 H        1.8233093114       -1.7598995179        1.2342804781
 H       -1.8144246583       -1.7283804023       -1.2313662101
 H        1.8232203091       -1.7598418221       -1.2344431867
Si       -1.0949314769        1.1013309950        0.0000257572
Si        1.0853724402        1.1742628024       -0.0000117898
Si       -1.1510682622       -1.0164770488        0.0000336414
Si        1.1596404755       -1.0857172169       -0.0000433939
 PRIMCOORD     7
   10  1
 H       -2.1523677471        2.1863324942        0.0000474760
 H        2.1201057403        2.2890322792       -0.0000090789
 H       -1.7752717568       -1.6817716847        1.2320045873
 H        1.7778544288       -1.7337136362        1.2401603558
 H       -1.7753522974       -1.6817743838       -1.2318991476
 H        1.7777598919       -1.7336570271       -1.2403200767
Si       -1.0790846887        1.1107170689        0.0000263092
Si        1.0919398869        1.1079896157       -0.0000006522
Si       -1.1889493169       -1.0338631415        0.0000348084
Si        1.2033658610       -1.0293355835       -0.0000445804
 PRIMCOORD     8
   10  1
 H       -2.1416195486        2.2537035259        0.0000527151
 H        2.1305505643        2.2205412184       -0.0000050058
 H       -1.8163555543       -1.7227735783        1.2446882980
 H        1.8271130943       -1.6898178811        1.2347525747
 H       -1.8164408788       -1.7227764948       -1.2445825373
 H        1.8270165751       -1.6897537195       -1.2349315719
Si       -1.0869397901        1.1817612780        0.0000389996
Si        1.0781994300        1.1004351817        0.0000030025
Si       -1.2476129370       -1.1153676888        0.0000322595
Si        1.2460890471       -1.0159958404       -0.0000487333
 PRIMCOORD     9
   10  1
 H       -2.1152546828        2.3514850363        0.0000582537
 H        2.1412633801        2.2193346467        0.0000014090
 H       -1.8830396728       -1.7859979846        1.2482474555
 H        1.8847336034       -1.6753761103        1.2360655006
 H       -1.8831267398       -1.7860023559       -1.2481452721
 H        1.8846599080       -1.6753311095       -1.2362325318
Si       -1.0895291641        1.2211373851        0.0000241461
Si        1.0752222413        1.1261372840        0.0000021633
Si       -1.3269581113       -1.1639829032        0.0000294498
Si        1.3120292400       -1.0314478875       -0.0000505731
 PRIMCOORD    10
   10  1
 H       -2.0842837954        2.3986067358        0.0000642513
 H        2.1256867944        2.2676928006       -0.0000057962
 H       -1.9650448171       -1.8022467277        1.2545172066
 H        1.9555712423       -1.6928209064        1.2452772836
 H       -1.9651513469       -1.8022554646       -1.2543646299
 H        1.9554656519       -1.6926657451       -1.2455701489
Si       -1.0833684837        1.2386377531        0.0000487985
Si        1.0750340584        1.1833599838        0.0000657980
Si       -1.3805432194       -1.1970117096        0.0000507792
Si        1.3666339176       -1.1013407190       -0.0000835413
 PRIMCOORD    11
   10  1
 H       -2.0946206439        2.4163437952        0.0000748396
 H        2.1439906081        2.3204227414        0.0000027221
 H       -1.9900614598       -1.8093527288        1.2668757958
 H        1.9870748715       -1.7252598187        1.2707252975
 H       -1.9901717685       -1.8093566647       -1.2667181662
 H        1.9869524507       -1.7250950287       -1.2710259667
Si       -1.0988276547        1.2180924287        0.0000378825
Si        1.0634809633        1.2759080230        0.0000615193
Si       -1.4132488174       -1.1675840989        0.0000526751
Si        1.4054314526       -1.1941626475       -0.0000865978
 PRIMCOORD    12
   10  1
 H       -2.1213549090        2.3627160386        0.0000900799
 H        2.0831525229        2.4605280385        0.0000090899
 H       -2.0288263289       -1.7584863334        1.2509361409
 H        2.0512628393       -1.8159615349        1.2602930231
 H       -2.0289326226       -1.7584720936       -1.2507832618
 H        2.0511247596       -1.8158085005       -1.2606037300
Si       -1.0937851762        1.1753962283        0.0000295746
Si        1.0823378946        1.2904900699        0.0000628251
Si       -1.3665526837       -1.0910177689        0.0000512786
Si        1.3715737059       -1.2494281430       -0.0000850193
 PRIMCOORD    13
   10  1
 H       -2.1390930722        2.2660114722        0.0000353210
 H        2.0432076166        2.4951355161        0.0000372036
 H       -1.9672391468       -1.6982997713        1.2494806996
 H        2.0023492225       -1.8284969918        1.2654880177
 H       -1.9672992201       -1.6983010728       -1.2494112755
 H        2.0022186599       -1.8284317041       -1.2656117225
Si       -1.0849306408        1.1180338786       -0.0000066755
Si        1.0838900953        1.2822084306       -0.0000067747
Si       -1.2754293666       -1.0497054549        0.0000133954
Si        1.3023258543       -1.2581983016       -0.0000181880
 PRIMCOORD    14
   10  1
 H       -2.1843513861        2.1837450116        0.0000286969
 H        2.0479757504        2.5110680093        0.0000221629
 H       -1.8736480377       -1.6780309215        1.2405896907
 H        1.9153842612       -1.8308177674        1.2618025642
 H       -1.8736911404       -1.6780452124       -1.2405211742
 H        1.9153216560       -1.8307834129       -1.2619204099
Si       -1.0722024648        1.1412698312        0.0000143195
Si        1.0795773005        1.3371485086        0.0000034038
Si       -1.1719724774       -1.0748669797        0.0000151621
Si        1.2176065403       -1.2807310659       -0.0000344151
 PRIMCOORD    15
   10  1
 H       -2.2310979382        2.1757244601        0.0000213919
 H        2.0704503539        2.5698130099        0.0000037604
 H       -1.8029686680       -1.7077323529        1.2338725792
 H        1.8538711083       -1.8493951058        1.2576010741
 H       -1.8030162810       -1.7077379468       -1.2338321717
 H        1.8538184521       -1.8493592554       -1.2576935381
Si       -1.0660553292        1.1748659831        0.0000090980
Si        1.0857262467        1.4286384551        0.0000356912
Si       -1.1327153091       -1.0826679797        0.0000083393
Si        1.1719873665       -1.3521932666       -0.0000262233
 PRIMCOORD    15
   10  1
 H       -2.2624873363        2.1385571062        0.0000222484
 H        2.0037417607        2.7126748599        0.0000120045
 H       -1.7737275344       -1.7063555699        1.2318607876
 H        1.8460421605       -1.9118140826        1.2591852818
 H       -1.7737677848       -1.7063408589       -1.2318047516
 H        1.8459962966       -1.9117688251       -1.2592916891
Si       -1.0492310403        1.1890939664        0.0000130915
Si        1.1062593627        1.4436547211        0.0000150851
Si       -1.1169930011       -1.0745603023        0.0000183341
Si        1.1741671184       -1.3731850138       -0.0000303914
