 ANIMSTEPS    15
 CRYSTAL 
 PRIMVEC 
  7.4084780000  0.0000000000  0.0000000000
  0.0000000000  7.4084780000  0.0000000000
  0.0000000000  0.0000000000  7.4084780000
 PRIMCOORD     1
   10  1
 H       -2.1428818680        2.3133833370        0.0000009360
 H        2.1428815030        2.3133810790       -0.0000003560
 H       -1.8241408910       -1.7441216280        1.2505559640
 H        1.8241425090       -1.7441238850        1.2505540140
 H       -1.8241467450       -1.7441246850       -1.2505531790
 H        1.8241466360       -1.7441274050       -1.2505526730
Si       -1.0818540600        1.1996017860       -0.0000009590
Si        1.0818548510        1.1996041600       -0.0000015560
Si       -1.1922132580       -1.1247611110       -0.0000010900
Si        1.1922113250       -1.1247556470       -0.0000011000
 PRIMCOORD     2
   10  1
 H       -2.1507392928        2.3140695252        0.0000118888
 H        2.1510683297        2.3142463804       -0.0000185044
 H       -1.8256690953       -1.7426672769        1.2572771225
 H        1.8257119084       -1.7424972163        1.2575970823
 H       -1.8256746971       -1.7426772789       -1.2572893354
 H        1.8257110016       -1.7425437084       -1.2575814582
Si       -1.0741472684        1.2665987589        0.0000148453
Si        1.0736999853        1.2704726066        0.0000056286
Si       -1.2271629214       -1.1955451697       -0.0000023939
Si        1.2272020520       -1.1995006199       -0.0000148745
 PRIMCOORD     3
   10  1
 H       -2.1474009569        2.3813250671        0.0000078286
 H        2.1437673001        2.3852747504       -0.0000080125
 H       -1.8661117202       -1.7877201700        1.2428783410
 H        1.8662832217       -1.7912530598        1.2412050232
 H       -1.8661069250       -1.7877085969       -1.2428875137
 H        1.8662852639       -1.7912509328       -1.2412061275
Si       -1.0895673083        1.2236221049        0.0000053094
Si        1.0930940572        1.1981586291        0.0000056943
Si       -1.2057563161       -1.1275811459       -0.0000003262
Si        1.2055133855       -1.1029106451       -0.0000002157
 PRIMCOORD     4
   10  1
 H       -2.1270894187        2.3346936421        0.0000075720
 H        2.1438316322        2.3085776388       -0.0000042368
 H       -1.8397482706       -1.7611757147        1.2361203595
 H        1.8389846181       -1.7411031118        1.2419666420
 H       -1.8397431945       -1.7611645666       -1.2361297017
 H        1.8389851118       -1.7411000937       -1.2419678884
Si       -1.0956191772        1.1333172042        0.0000045543
Si        1.0800710998        1.2354106318        0.0000030878
Si       -1.1756939158       -1.0543853435       -0.0000003555
Si        1.1760215168       -1.1531142856       -0.0000000323
 PRIMCOORD     5
   10  1
 H       -2.1572724448        2.2204644454        0.0000065851
 H        2.1315871026        2.3623435694       -0.0000016752
 H       -1.8084029085       -1.7019133449        1.2216391942
 H        1.8142819404       -1.7735598083        1.2407726287
 H       -1.8083982632       -1.7019044521       -1.2216476093
 H        1.8142820193       -1.7735570590       -1.2407746641
Si       -1.0903414538        1.0561617570        0.0000036542
Si        1.0925044012        1.2272983820        0.0000026727
Si       -1.1047515884       -0.9700334471       -0.0000004393
Si        1.1165111974       -1.1453440415       -0.0000003461
 PRIMCOORD     6
   10  1
 H       -2.1839598803        2.1224686634        0.0000054312
 H        2.1238296649        2.3661463952       -0.0000000908
 H       -1.7476000557       -1.6469967980        1.2286091293
 H        1.7504322403       -1.7789064705        1.2447585075
 H       -1.7475959119       -1.6469889905       -1.2286167625
 H        1.7504322877       -1.7789035199       -1.2447610752
Si       -1.0633576251        1.1304819877        0.0000034842
Si        1.0917323323        1.2199500097        0.0000026817
Si       -1.1290952061       -1.0498804585       -0.0000007879
Si        1.1551821559       -1.1374148176       -0.0000005166
 PRIMCOORD     7
   10  1
 H       -2.1937119086        2.1976086001        0.0000051225
 H        2.1348857021        2.3511548087        0.0000008226
 H       -1.7740298228       -1.6907971366        1.2328429130
 H        1.7820314153       -1.7708637012        1.2347837511
 H       -1.7740261533       -1.6907900076       -1.2328503470
 H        1.7820314394       -1.7708604337       -1.2347865498
Si       -1.0777389614        1.1962169321        0.0000031835
Si        1.0968478907        1.2090741276        0.0000026740
Si       -1.0562257660       -1.1126545688       -0.0000010217
Si        1.0799361666       -1.1181326196       -0.0000005472
 PRIMCOORD     8
   10  1
 H       -2.2104258145        2.2581514110        0.0000048013
 H        2.1670264031        2.3005968112        0.0000017579
 H       -1.7157682850       -1.7350205669        1.2380144132
 H        1.7267009098       -1.7439301667        1.2275947194
 H       -1.7157654308       -1.7350137488       -1.2380216799
 H        1.7267009795       -1.7439267644       -1.2275977245
Si       -1.0822940558        1.2866526283        0.0000031936
Si        1.0856995928        1.1762703259        0.0000024486
Si       -1.0229917452       -1.1962843102       -0.0000013391
Si        1.0411174482       -1.0675396184       -0.0000005895
 PRIMCOORD     9
   10  1
 H       -2.1940986750        2.3769604311        0.0000049126
 H        2.1965704616        2.2194850528        0.0000023633
 H       -1.6795792521       -1.8054012585        1.2506557220
 H        1.6987040384       -1.7017605759        1.2349943652
 H       -1.6795768863       -1.8053943831       -1.2506634244
 H        1.6987041266       -1.7017571081       -1.2349973795
Si       -1.1007912599        1.3097627111        0.0000035059
Si        1.0520860172        1.2010377653        0.0000022367
Si       -1.1309071796       -1.2229525001       -0.0000016880
Si        1.1388886110       -1.0700241336       -0.0000006128
 PRIMCOORD    10
   10  1
 H       -2.1602134614        2.4355435080        0.0000048975
 H        2.1848368847        2.2449919404        0.0000029939
 H       -1.7713163596       -1.8330680653        1.2571762973
 H        1.7796896185       -1.7072635757        1.2364902696
 H       -1.7713138396       -1.8330614820       -1.2571844157
 H        1.7796897244       -1.7072600388       -1.2364933253
Si       -1.0968439801        1.3766037747        0.0000037855
Si        1.0605570215        1.1840695804        0.0000021580
Si       -1.1645950526       -1.3029876291       -0.0000020503
Si        1.1595094464       -1.0576120116       -0.0000006095
 PRIMCOORD    11
   10  1
 H       -2.1172866940        2.5411809679        0.0000047313
 H        2.2007979063        2.2137240390        0.0000035116
 H       -1.8114647521       -1.8852959812        1.2671914790
 H        1.8060950214       -1.6883659178        1.2425908619
 H       -1.8114616813       -1.8852897371       -1.2672004923
 H        1.8060952297       -1.6883622074       -1.2425935184
Si       -1.0979800324        1.4140286380        0.0000042941
Si        1.0448166941        1.2268079726        0.0000020749
Si       -1.2542712561       -1.3575415990       -0.0000025260
Si        1.2346595665       -1.0909301739       -0.0000004152
 PRIMCOORD    12
   10  1
 H       -2.0498443581        2.6324278852        0.0000041412
 H        2.2069858433        2.2552309814        0.0000040721
 H       -1.9049233098       -1.9244488163        1.2644525680
 H        1.8714360544       -1.7108539621        1.2531076557
 H       -1.9049196195       -1.9244428115       -1.2644625540
 H        1.8714363872       -1.7108501084       -1.2531096000
Si       -1.1006491986        1.3860757586        0.0000045823
Si        1.0453058248        1.3073840413        0.0000020245
Si       -1.3212614960       -1.3347790552       -0.0000027583
Si        1.2864338743       -1.1757879119       -0.0000001304
 PRIMCOORD    13
   10  1
 H       -2.0326970800        2.6052385301        0.0000033488
 H        2.1799142111        2.3681282334        0.0000046918
 H       -1.9683362863       -1.8942630629        1.2519099197
 H        1.9216608740       -1.7832194623        1.2538865322
 H       -1.9683327290       -1.8942574735       -1.2519202509
 H        1.9216613108       -1.7832157241       -1.2538880524
Si       -1.0982881064        1.2796978145        0.0000045526
Si        1.0786362435        1.2867278353        0.0000019085
Si       -1.3240932606       -1.2039352667       -0.0000026877
Si        1.2898748248       -1.1809454228        0.0000000385
 PRIMCOORD    14
   10  1
 H       -2.0679377775        2.4536920514        0.0000032103
 H        2.1447281312        2.3857579622        0.0000048638
 H       -1.9553285603       -1.7912298996        1.2492256578
 H        1.9226479661       -1.8055779667        1.2594863733
 H       -1.9553252908       -1.7912238427       -1.2492355524
 H        1.9226486676       -1.8055743576       -1.2594878517
Si       -1.0773200969        1.2155846472        0.0000037137
Si        1.0896395106        1.2743101485        0.0000021655
Si       -1.3592740037       -1.1130537102       -0.0000025371
Si        1.3355214557       -1.2227290316       -0.0000000422
 PRIMCOORD    15
   10  1
 H       -2.0812790954        2.3647748227        0.0000031657
 H        2.1123009615        2.4183934616        0.0000048209
 H       -1.9809887623       -1.7266669388        1.2473046603
 H        1.9599604033       -1.8362054099        1.2603761192
 H       -1.9809859770       -1.7266607349       -1.2473140175
 H        1.9599612032       -1.8362017677       -1.2603777133
Si       -1.0649170938        1.1589745994        0.0000029602
Si        1.1082575691        1.2294059715        0.0000024108
Si       -1.4127321777       -1.0242129996       -0.0000023139
Si        1.3804229709       -1.2216450034       -0.0000000915
 PRIMCOORD    15
   10  1
 H       -2.0737822005        2.3064747859        0.0000030443
 H        2.0860188634        2.4093078685        0.0000045424
 H       -2.0183298799       -1.6755185303        1.2484245359
 H        2.0040116349       -1.8343082351        1.2585746006
 H       -2.0183272150       -1.6755124919       -1.2484331016
 H        2.0040125085       -1.8343045992       -1.2585763316
Si       -1.0601191162        1.1507131270        0.0000024402
Si        1.1073008093        1.2179135313        0.0000025746
Si       -1.4118390013       -1.0318487959       -0.0000020804
Si        1.3810535989       -1.2329606592       -0.0000002234
