 ANIMSTEPS    10
 CRYSTAL 
 PRIMVEC 
  7.4084809203  0.0000000000  0.0000000000
  0.0000000000  7.4084809203  0.0000000000
  0.0000000000  0.0000000000  7.4084809203
 PRIMCOORD     1
   10  1
 H       -2.0191043824        2.6351289099       -0.2633113733
 H        2.2797056665        2.0772184560       -0.1691382538
 H       -1.9413452936       -1.7079914789        1.3180731488
 H        1.7561072281       -1.4806542743        1.4332125312
 H       -1.9548316562       -2.0063417838       -0.9590467354
 H        1.7780372781       -1.8826067153       -1.0609068540
Si       -0.9178665234        1.5237834357       -0.0941531972
Si        1.2089832543        1.0704132877       -0.3115309601
Si       -1.2781468640       -1.2087708390        0.0928809177
Si        1.0884612946       -1.2202229970        0.1139207771
 PRIMCOORD     2
   10  1
 H       -1.7570906247        2.7246368429       -0.1764873074
 H        2.2537250904        2.0819621107       -0.5029181402
 H       -1.9421705515       -1.8339722375        1.3955404353
 H        1.6379959836       -1.5825533011        1.4559828595
 H       -1.9661574496       -1.9414265966       -0.9794758991
 H        1.9495938724       -1.9123304394       -0.9117453339
Si       -0.9064412207        1.4385624658       -0.2870376853
Si        1.1686553707        1.0967754355       -0.1369634987
Si       -1.4055851383       -1.0230836814        0.1383801079
Si        0.9674746698       -1.2486145979        0.1047244631
 PRIMCOORD     3
   10  1
 H       -1.8877437734        2.5567695949       -0.4755511845
 H        2.4567986836        2.0893490042       -0.3243504631
 H       -2.0073306264       -1.3421521986        1.4277562365
 H        1.6498587367       -1.7176016586        1.4643252863
 H       -1.9914038756       -1.7954201662       -0.9955182089
 H        1.6457664991       -2.2328412443       -0.6830505717
Si       -0.8683251186        1.3338835919       -0.3110455517
Si        1.3025647721        1.0747322809       -0.3104049120
Si       -1.3419476517       -0.9478101406        0.1090985017
Si        1.0417623561       -1.2189530625        0.1987408685
 PRIMCOORD     4
   10  1
 H       -2.0711607033        2.3432232694       -0.5122189196
 H        2.4043752188        2.0385526782       -0.6489386657
 H       -2.0531134675       -1.2408161192        1.3986747843
 H        1.7069414084       -1.6579325611        1.5998590366
 H       -1.9029631188       -1.8464682119       -0.7862264756
 H        1.6928566028       -2.1694230874       -0.7528373045
Si       -1.0535928341        1.1977009666       -0.2516601287
Si        1.1468355547        1.1540122828       -0.3914502363
Si       -1.1369732296       -0.9261713903        0.1845453854
Si        1.2667945706       -1.0927218259        0.2602525251
 PRIMCOORD     5
   10  1
 H       -2.2106649814        2.1579815216       -0.8932145134
 H        2.1740716894        2.1381818533       -0.8353549535
 H       -1.4476831374       -1.1052395848        1.7994697974
 H        1.7347063649       -1.3126566973        1.6908244976
 H       -1.9862380949       -2.0636408654       -0.4463337859
 H        1.6921149432       -2.1859824286       -0.7927770349
Si       -1.1998008079        1.1764685459       -0.4104926207
Si        0.9987668337        1.1021286525       -0.5528358617
Si       -1.0787677248       -1.0664255551        0.3251039268
Si        1.3234949172       -1.0408594412        0.2156105492
 PRIMCOORD     6
   10  1
 H       -2.4584567707        1.7510034518       -0.6554791577
 H        1.6761519182        2.4070338320       -0.9714438077
 H       -1.3712649047       -1.1341559056        2.0591898704
 H        2.2708058430       -1.0295991860        1.2439524148
 H       -1.5748322052       -2.3499875312       -0.2779727801
 H        1.6293549889       -1.8892538801       -1.0454128028
Si       -1.2431648496        0.9003802017       -0.4395575367
Si        0.9382813719        1.1644417161       -0.4317021877
Si       -1.1236917097       -1.1026736466        0.5341537235
Si        1.2568163199       -0.9172330509        0.0842722651
 PRIMCOORD     7
   10  1
 H       -2.6233064352        1.5100590633       -0.4555088897
 H        1.3534597514        2.4658114234       -0.8678497798
 H       -0.9471681760       -1.2592248434        2.1875785430
 H        2.4719910754       -1.0234772943        0.7989320415
 H       -1.7595408864       -2.3786609658        0.0047498896
 H        1.7137594627       -1.4035553635       -1.4626975533
Si       -1.3074797553        0.6771118388       -0.2918612269
Si        0.7919159518        1.1795545785       -0.2944961097
Si       -0.9958036745       -1.1702264352        0.6196658792
Si        1.3021726879       -0.7974360007       -0.1385127929
 PRIMCOORD     8
   10  1
 H       -2.6374927129        1.7932539627       -0.2175924220
 H        1.7334569056        2.3398824840       -0.3769552841
 H       -0.7014919612       -1.2851889859        2.1802099587
 H        2.5432914364       -1.4100805486        0.3481597472
 H       -1.6808244516       -2.2871943739        0.1145660536
 H        0.9747659862       -1.3159169511       -1.8300279830
Si       -1.4631733546        0.7580170557       -0.1242602571
Si        0.6885062501        1.2612631361       -0.2593059527
Si       -0.8023375599       -1.1992532861        0.6747124123
Si        1.3452994639       -0.8548264919       -0.4095062719
 PRIMCOORD     9
   10  1
 H       -2.4537336802        2.0029544865        0.2224767407
 H        1.6227412355        2.3708084598       -0.8949412647
 H       -0.8089095042       -1.6894667738        2.1677377451
 H        2.4909249599       -1.5337011343        0.4262717922
 H       -1.8011432802       -2.1465314864       -0.2198750658
 H        1.2412913010       -1.4007070816       -1.7308446100
Si       -1.3234390574        1.0553126885        0.0561083612
Si        0.8047639264        1.2519283105       -0.3657459217
Si       -1.0177887080       -1.2474473322        0.7240043631
Si        1.2452928093       -0.8631941361       -0.2851921391
 PRIMCOORD    10
   10  1
 H       -2.3653251860        2.2269671707        0.1344145249
 H        1.5748116811        2.4008032218       -0.7779241237
 H       -1.0651403168       -1.4366140272        1.9267422178
 H        2.1934420888       -1.3369582042        0.9966109196
 H       -1.9488715192       -2.2431420231       -0.2145574158
 H        1.8910952994       -1.7977626526       -1.3071067220
Si       -1.3275930907        1.1777702790       -0.3566347664
Si        0.8966451101        1.0460001904       -0.6024470059
Si       -1.1786197496       -1.2251851928        0.4848673667
Si        1.3295556849       -1.0119227610       -0.1839649943
