 ANIMSTEPS    15
 CRYSTAL 
 PRIMVEC 
  7.4084780000  0.0000000000  0.0000000000
  0.0000000000  7.4084780000  0.0000000000
  0.0000000000  0.0000000000  7.4084780000
 PRIMCOORD     1
   10  1
 H       -2.1428818680        2.3133833370        0.0000009360
 H        2.1428815030        2.3133810790       -0.0000003560
 H       -1.8241408910       -1.7441216280        1.2505559640
 H        1.8241425090       -1.7441238850        1.2505540140
 H       -1.8241467450       -1.7441246850       -1.2505531790
 H        1.8241466360       -1.7441274050       -1.2505526730
Si       -1.0818540600        1.1996017860       -0.0000009590
Si        1.0818548510        1.1996041600       -0.0000015560
Si       -1.1922132580       -1.1247611110       -0.0000010900
Si        1.1922113250       -1.1247556470       -0.0000011000
 PRIMCOORD     2
   10  1
 H       -2.1470252507        2.3178777470        0.0000008614
 H        2.1466374256        2.3172811050       -0.0000007047
 H       -1.8277783317       -1.7478975376        1.2529404124
 H        1.8276222526       -1.7476642769        1.2526322629
 H       -1.8277839044       -1.7479007056       -1.2529374224
 H        1.8276259720       -1.7476681766       -1.2526306260
Si       -1.0791964259        1.2455321675       -0.0000011537
Si        1.0799103947        1.2395273737       -0.0000021573
Si       -1.2391775923       -1.1676868498       -0.0000003234
Si        1.2391654622       -1.1614448457       -0.0000011482
 PRIMCOORD     3
   10  1
 H       -2.1530914984        2.3654529432        0.0000018428
 H        2.1557606931        2.3597218795       -0.0000205955
 H       -1.8717642663       -1.7768148238        1.2510074633
 H        1.8717220568       -1.7731904245        1.2507080628
 H       -1.8718097178       -1.7768376556       -1.2509048217
 H        1.8716839025       -1.7731375394       -1.2508692487
Si       -1.0903099382        1.2152873674        0.0000425844
Si        1.0872487261        1.2323833229        0.0000468614
Si       -1.1927947982       -1.1284257155        0.0000366251
Si        1.1933548426       -1.1444833533       -0.0000487728
 PRIMCOORD     4
   10  1
 H       -2.1363847559        2.3180413184        0.0000156606
 H        2.1408022257        2.3388393440       -0.0000095357
 H       -1.8317412491       -1.7472152277        1.2280023132
 H        1.8343078762       -1.7573485518        1.2343721763
 H       -1.8317896876       -1.7472232996       -1.2279281467
 H        1.8342488388       -1.7572867858       -1.2344898554
Si       -1.0881057248        1.1599549662        0.0000198100
Si        1.0803812747        1.2297224754        0.0000237594
Si       -1.1036665720       -1.0822211453        0.0000196137
Si        1.1019477760       -1.1553070928       -0.0000257943
 PRIMCOORD     5
   10  1
 H       -2.1833846145        2.2218315774        0.0000404612
 H        2.1560993275        2.3455848908       -0.0000050496
 H       -1.7353389298       -1.7071690765        1.2371206195
 H        1.7313427514       -1.7718020189        1.2487036565
 H       -1.7354104438       -1.7071716411       -1.2370328084
 H        1.7312607636       -1.7717665914       -1.2488408524
Si       -1.0707062855        1.1774782722        0.0000320639
Si        1.0964810551        1.2197111009       -0.0000131370
Si       -1.1589748258       -1.0747061954        0.0000266231
Si        1.1686312038       -1.1320343170       -0.0000315758
 PRIMCOORD     6
   10  1
 H       -2.1582753317        2.2671494138        0.0000474715
 H        2.1385067556        2.3328495476       -0.0000061759
 H       -1.8055941811       -1.7258978665        1.2347840152
 H        1.8124534733       -1.7642448552        1.2380816337
 H       -1.8056693395       -1.7258988902       -1.2346839772
 H        1.8123666540       -1.7642005867       -1.2382309042
Si       -1.0924006938        1.1009597182        0.0000233616
Si        1.0882799347        1.1788365770       -0.0000039367
Si       -1.1491569235       -1.0118554486        0.0000285089
Si        1.1594896540       -1.0877416084       -0.0000399959
 PRIMCOORD     7
   10  1
 H       -2.1465451124        2.1944673766        0.0000472242
 H        2.1178160264        2.2956341874       -0.0000108315
 H       -1.7768896510       -1.6863112537        1.2263780379
 H        1.7803956297       -1.7401825599        1.2351979088
 H       -1.7769660470       -1.6863173200       -1.2262807682
 H        1.7803092030       -1.7401334708       -1.2353474435
Si       -1.0803948692        1.1137300659        0.0000287052
Si        1.0900323761        1.1157169768       -0.0000012604
Si       -1.1892881573       -1.0323541278        0.0000295869
Si        1.2015306038       -1.0342938734       -0.0000411585
 PRIMCOORD     8
   10  1
 H       -2.1394980591        2.2542462352        0.0000562244
 H        2.1278653815        2.2251203677       -0.0000066396
 H       -1.8166991600       -1.7210912642        1.2457318390
 H        1.8256353628       -1.6925639393        1.2362820437
 H       -1.8167746650       -1.7210868130       -1.2456398241
 H        1.8255462622       -1.6925098857       -1.2364437082
Si       -1.0866114166        1.1744671923        0.0000365105
Si        1.0821676701        1.0777476052       -0.0000019897
Si       -1.2506933687       -1.1086194084        0.0000299419
Si        1.2490619950       -0.9957540889       -0.0000443970
 PRIMCOORD     9
   10  1
 H       -2.1077658386        2.3469853400        0.0000678905
 H        2.1438236838        2.1969558578        0.0000010536
 H       -1.8790031388       -1.7827875861        1.2472439660
 H        1.8821187374       -1.6604253390        1.2356711741
 H       -1.8790868400       -1.7827791930       -1.2471501409
 H        1.8820228766       -1.6603581985       -1.2358556609
Si       -1.0913609690        1.2043491184        0.0000412459
Si        1.0678746692        1.1487615105        0.0000025368
Si       -1.3045680362       -1.1499970930        0.0000303133
Si        1.2859448575       -1.0607484162       -0.0000523773
 PRIMCOORD    10
   10  1
 H       -2.1173144374        2.3648036389        0.0000706513
 H        2.1314109293        2.2928670766       -0.0000041412
 H       -1.9340942227       -1.7822124682        1.2528823009
 H        1.9301680706       -1.7205753794        1.2458614250
 H       -1.9342076754       -1.7822194534       -1.2527385035
 H        1.9300946017       -1.7205071703       -1.2460647872
Si       -1.0820035092        1.2464423644        0.0000073309
Si        1.0845585232        1.1630014717        0.0000071580
Si       -1.3712322559       -1.1844695843        0.0000447544
Si        1.3626199778       -1.0771744949       -0.0000661875
 PRIMCOORD    11
   10  1
 H       -2.0603328770        2.4375037583        0.0000559609
 H        2.1218675686        2.3049611148       -0.0000508429
 H       -2.0204238454       -1.8145044454        1.2567004463
 H        2.0049425794       -1.7135964205        1.2527310240
 H       -2.0206454599       -1.8145306674       -1.2563461192
 H        2.0048002825       -1.7133011714       -1.2532855535
Si       -1.0898526924        1.2315847489        0.0001181313
Si        1.0682329841        1.2345692692        0.0001287973
Si       -1.4303720635       -1.1975428871        0.0001204727
Si        1.4217835255       -1.1551872983       -0.0001723160
 PRIMCOORD    12
   10  1
 H       -2.0882255187        2.4068256274        0.0001313380
 H        2.0885275244        2.4209686045       -0.0000117752
 H       -2.0620591641       -1.7793432064        1.2545352753
 H        2.0661017659       -1.7926122314        1.2577148381
 H       -2.0622995697       -1.7793606160       -1.2541755465
 H        2.0658322509       -1.7923164918       -1.2582878780
Si       -1.0916528990        1.1893782307        0.0000378748
Si        1.0816623390        1.2726530415        0.0000913913
Si       -1.4173642849       -1.1192854740        0.0001187091
Si        1.4194775581       -1.2269514836       -0.0001542258
 PRIMCOORD    13
   10  1
 H       -2.1090305872        2.3141739027        0.0001350340
 H        2.0494292332        2.4708742238        0.0000039669
 H       -2.0252172675       -1.7148771676        1.2519828934
 H        2.0529337929       -1.8197725288        1.2647993081
 H       -2.0254764695       -1.7148929997       -1.2516269121
 H        2.0526595445       -1.8195342548       -1.2653329728
Si       -1.0917754080        1.1191152879        0.0000290539
Si        1.0826741470        1.2654221395        0.0000441946
Si       -1.3488343414       -1.0487021004        0.0001051420
Si        1.3626373580       -1.2518505016       -0.0001397069
 PRIMCOORD    14
   10  1
 H       -2.1528623008        2.2111051716        0.0001853760
 H        2.0310958574        2.4910889888        0.0000199942
 H       -1.9426441446       -1.6682883289        1.2455702150
 H        1.9805975193       -1.8280949000        1.2626333809
 H       -1.9428204384       -1.6682366875       -1.2454161548
 H        1.9804008482       -1.8279346070       -1.2630486104
Si       -1.0740040291        1.1352025591        0.0000954756
Si        1.0851952412        1.2658487506        0.0000273227
Si       -1.2403346966       -1.0733642069        0.0000434920
Si        1.2753761454       -1.2373707389       -0.0001104902
 PRIMCOORD    15
   10  1
 H       -2.1845862393        2.2148482938        0.0002007122
 H        2.0803753685        2.4751139624        0.0000298107
 H       -1.8531500894       -1.7109702803        1.2390282246
 H        1.8930046422       -1.8096002247        1.2573180419
 H       -1.8533090164       -1.7109081049       -1.2388863973
 H        1.8928309998       -1.8094491510       -1.2577394619
Si       -1.0850865294        1.1129736784        0.0000838585
Si        1.0726406705        1.3550988676        0.0000486383
Si       -1.2129953490       -1.0384809797        0.0000475827
Si        1.2502755445       -1.2786700607       -0.0001310086
