 ANIMSTEPS    15
 CRYSTAL 
 PRIMVEC 
  7.4084780000  0.0000000000  0.0000000000
  0.0000000000  7.4084780000  0.0000000000
  0.0000000000  0.0000000000  7.4084780000
 PRIMCOORD     1
   10  1
 H       -2.1428818680        2.3133833370        0.0000009360
 H        2.1428815030        2.3133810790       -0.0000003560
 H       -1.8241408910       -1.7441216280        1.2505559640
 H        1.8241425090       -1.7441238850        1.2505540140
 H       -1.8241467450       -1.7441246850       -1.2505531790
 H        1.8241466360       -1.7441274050       -1.2505526730
Si       -1.0818540600        1.1996017860       -0.0000009590
Si        1.0818548510        1.1996041600       -0.0000015560
Si       -1.1922132580       -1.1247611110       -0.0000010900
Si        1.1922113250       -1.1247556470       -0.0000011000
 PRIMCOORD     2
   10  1
 H       -2.1470248556        2.3178777170        0.0000008623
 H        2.1466370279        2.3172810718       -0.0000007042
 H       -1.8277782947       -1.7478971165        1.2529407455
 H        1.8276222114       -1.7476638530        1.2526325921
 H       -1.8277838666       -1.7479002844       -1.2529377561
 H        1.8276259320       -1.7476677521       -1.2526309546
Si       -1.0791966966        1.2455325809       -0.0000011548
Si        1.0799106766        1.2395276818       -0.0000021571
Si       -1.2391757057       -1.1676880812       -0.0000003236
Si        1.2391635734       -1.1614459634       -0.0000011486
 PRIMCOORD     3
   10  1
 H       -2.1530920654        2.3654531671        0.0000018439
 H        2.1557612929        2.3597220179       -0.0000205948
 H       -1.8717630181       -1.7768149241        1.2510073759
 H        1.8717208130       -1.7731904817        1.2507079697
 H       -1.8718084675       -1.7768377561       -1.2509047370
 H        1.8716826561       -1.7731376001       -1.2508691513
Si       -1.0903099276        1.2152877985        0.0000425806
Si        1.0872486745        1.2323840930        0.0000468603
Si       -1.1927928460       -1.1284261774        0.0000366244
Si        1.1933528902       -1.1444841361       -0.0000487707
 PRIMCOORD     4
   10  1
 H       -2.1363852969        2.3180412986        0.0000156609
 H        2.1408027831        2.3388396288       -0.0000095354
 H       -1.8317398320       -1.7472153217        1.2280021679
 H        1.8343064639       -1.7573487933        1.2343721010
 H       -1.8317882682       -1.7472233948       -1.2279280039
 H        1.8342474267       -1.7572870302       -1.2344897760
Si       -1.0881056466        1.1599557672        0.0000198086
Si        1.0803812493        1.2297233553        0.0000237581
Si       -1.1036645397       -1.0822217310        0.0000196132
Si        1.1019456625       -1.1553077779       -0.0000257933
 PRIMCOORD     5
   10  1
 H       -2.1833853488        2.2218315246        0.0000404608
 H        2.1561001802        2.3455855179       -0.0000050492
 H       -1.7353370739       -1.7071693716        1.2371205465
 H        1.7313408754       -1.7718024746        1.2487036994
 H       -1.7354085859       -1.7071719343       -1.2370327393
 H        1.7312588908       -1.7717670485       -1.2488408923
Si       -1.0707063064        1.1774776586        0.0000320648
Si        1.0964811420        1.2197130990       -0.0000131366
Si       -1.1589733411       -1.0747050734        0.0000266221
Si        1.1686295697       -1.1320358968       -0.0000315753
 PRIMCOORD     6
   10  1
 H       -2.1582766463        2.2671473428        0.0000474697
 H        2.1385073185        2.3328527873       -0.0000061758
 H       -1.8055924385       -1.7258966119        1.2347839551
 H        1.8124517072       -1.7642470860        1.2380821458
 H       -1.8056675956       -1.7258976329       -1.2346839189
 H        1.8123648902       -1.7642028172       -1.2382314146
Si       -1.0924007157        1.1009567396        0.0000233623
Si        1.0882802557        1.1788407832       -0.0000039353
Si       -1.1491563537       -1.0118519139        0.0000285087
Si        1.1594895803       -1.0877455899       -0.0000399958
 PRIMCOORD     7
   10  1
 H       -2.1465461093        2.1944633948        0.0000472211
 H        2.1178157457        2.2956398416       -0.0000108307
 H       -1.7768891682       -1.6863089347        1.2263777116
 H        1.7803951337       -1.7401861510        1.2351989176
 H       -1.7769655561       -1.6863149975       -1.2262804508
 H        1.7803087084       -1.7401370624       -1.2353484469
Si       -1.0803942134        1.1137302722        0.0000287056
Si        1.0900323106        1.1157250350       -0.0000012542
Si       -1.1892891034       -1.0323533868        0.0000295841
Si        1.2015322541       -1.0343020102       -0.0000411563
 PRIMCOORD     8
   10  1
 H       -2.1394992762        2.2542439408        0.0000562249
 H        2.1278630361        2.2251289370       -0.0000066367
 H       -1.8167011714       -1.7210898666        1.2457309862
 H        1.8256368971       -1.6925697577        1.2362815817
 H       -1.8167766657       -1.7210854096       -1.2456389825
 H        1.8255478005       -1.6925156976       -1.2364432381
Si       -1.0866125482        1.1744541399        0.0000365080
Si        1.0821717587        1.0777275311       -0.0000019900
Si       -1.2506970248       -1.1086048659        0.0000299396
Si        1.2490671959       -0.9957329504       -0.0000443920
 PRIMCOORD     9
   10  1
 H       -2.1077276236        2.3469800693        0.0000679030
 H        2.1438102953        2.1969108228        0.0000010553
 H       -1.8790133490       -1.7827859285        1.2472358035
 H        1.8821279487       -1.6603908138        1.2356650270
 H       -1.8790970470       -1.7827775266       -1.2471419981
 H        1.8820320853       -1.6603236772       -1.2358495197
Si       -1.0913577549        1.2043234236        0.0000412539
Si        1.0678597122        1.1487480235        0.0000025456
Si       -1.3045535489       -1.1499797411        0.0000303075
Si        1.2859192839       -1.0607486509       -0.0000523769
 PRIMCOORD    10
   10  1
 H       -2.1173244806        2.3647812732        0.0000757231
 H        2.1314176027        2.2928547563       -0.0000010437
 H       -1.9340692677       -1.7821989338        1.2528825703
 H        1.9301457569       -1.7205717128        1.2458595753
 H       -1.9341825068       -1.7822084380       -1.2527334490
 H        1.9300720154       -1.7205056194       -1.2460592018
Si       -1.0820054759        1.2464347693       -0.0000029328
Si        1.0845615424        1.1629910578       -0.0000027385
Si       -1.3712020938       -1.1844558861        0.0000466936
Si        1.3625869095       -1.0771652655       -0.0000651955
 PRIMCOORD    11
   10  1
 H       -2.0603356722        2.4375057666        0.0000552842
 H        2.1218786764        2.3049409694       -0.0000513955
 H       -2.0204001629       -1.8145050052        1.2567026001
 H        2.0049225109       -1.7135769402        1.2527297368
 H       -2.0206224876       -1.8145391950       -1.2563494399
 H        2.0047877240       -1.7132904157       -1.2532761041
Si       -1.0898540871        1.2316128272        0.0001144280
Si        1.0682320404        1.2345452809        0.0001289006
Si       -1.4303797760       -1.1975782696        0.0001177096
Si        1.4217712360       -1.1551590174       -0.0001717187
 PRIMCOORD    12
   10  1
 H       -2.0881665416        2.4070941804        0.0001283675
 H        2.0886369441        2.4209225150        0.0001076690
 H       -2.0618836522       -1.7793438317        1.2546055969
 H        2.0659316777       -1.7927484140        1.2576100615
 H       -2.0623275031       -1.7793608424       -1.2541700082
 H        2.0656165912       -1.7923327904       -1.2583874389
Si       -1.0916325892        1.1895019099        0.0000466124
Si        1.0817591112        1.2725432352        0.0001765754
Si       -1.4171653952       -1.1193349733        0.0001027673
Si        1.4192313592       -1.2269849877       -0.0002202019
 PRIMCOORD    13
   10  1
 H       -2.1089835177        2.3143340172        0.0001619089
 H        2.0496929440        2.4707568090        0.0001171682
 H       -2.0249960876       -1.7149230468        1.2519695608
 H        2.0526438967       -1.8198899301        1.2646971477
 H       -2.0253853552       -1.7149427600       -1.2515391949
 H        2.0523089713       -1.8195111769       -1.2654521494
Si       -1.0917875421        1.1191217071        0.0000437355
Si        1.0826789101        1.2656189572        0.0000962729
Si       -1.3486217212       -1.0486211788        0.0001090621
Si        1.3624495038       -1.2519873969       -0.0002035108
 PRIMCOORD    14
   10  1
 H       -2.1529731932        2.2110112616        0.0002317673
 H        2.0311749576        2.4913467309        0.0001132134
 H       -1.9424356541       -1.6681378195        1.2455855135
 H        1.9804435425       -1.8284538148        1.2625167874
 H       -1.9427067358       -1.6680817454       -1.2453619910
 H        1.9801685067       -1.8281602044       -1.2631531454
Si       -1.0739200796        1.1354191457        0.0001238369
Si        1.0852583913        1.2661326780        0.0000613136
Si       -1.2402689641       -1.0733831457        0.0000514639
Si        1.2752592307       -1.2377370853       -0.0001687585
 PRIMCOORD    15
   10  1
 H       -2.1846478142        2.2150083503        0.0002523669
 H        2.0804318473        2.4754932114        0.0001112234
 H       -1.8530883945       -1.7109996024        1.2390461274
 H        1.8929648268       -1.8099535934        1.2572231310
 H       -1.8533309222       -1.7109206178       -1.2388536834
 H        1.8927120145       -1.8096813667       -1.2578541826
Si       -1.0849990829        1.1134089415        0.0001181651
Si        1.0727205159        1.3555058399        0.0000928235
Si       -1.2125960633       -1.0387937088        0.0000550626
Si        1.2498330747       -1.2791114531       -0.0001910329
