 ANIMSTEPS    10
 CRYSTAL 
 PRIMVEC 
  7.4084809203  0.0000000000  0.0000000000
  0.0000000000  7.4084809203  0.0000000000
  0.0000000000  0.0000000000  7.4084809203
 PRIMCOORD     1
   10  1
 H       -2.1428818680        2.3133833370        0.0000009360
 H        2.1428815030        2.3133810790       -0.0000003560
 H       -1.8241408910       -1.7441216280        1.2505559640
 H        1.8241425090       -1.7441238850        1.2505540140
 H       -1.8241467450       -1.7441246850       -1.2505531790
 H        1.8241466360       -1.7441274050       -1.2505526730
Si       -1.0818540600        1.1996017860       -0.0000009590
Si        1.0818548510        1.1996041600       -0.0000015560
Si       -1.1922132580       -1.1247611110       -0.0000010900
Si        1.1922113250       -1.1247556470       -0.0000011000
 PRIMCOORD     2
   10  1
 H       -2.1502891349        2.3219794029        0.0000009336
 H        2.1495516021        2.3208356465       -0.0000003224
 H       -1.8309641711       -1.7508451852        1.2563597407
 H        1.8306613774       -1.7503910796        1.2557627480
 H       -1.8309698020       -1.7508481760       -1.2563571425
 H        1.8306653031       -1.7503944043       -1.2557613688
Si       -1.0769192354        1.2573570569       -0.0000011393
Si        1.0780898381        1.2499500653       -0.0000017390
Si       -1.2508837156       -1.1777765414       -0.0000006315
Si        1.2510579404       -1.1699107841       -0.0000010779
 PRIMCOORD     3
   10  1
 H       -2.1566179610        2.3541783051        0.0000008058
 H        2.1593775471        2.3523953533       -0.0000003777
 H       -1.8594800327       -1.7698044246        1.2549983985
 H        1.8598425478       -1.7681851195        1.2556281411
 H       -1.8594846878       -1.7698070413       -1.2549955970
 H        1.8598458590       -1.7681880887       -1.2556268110
Si       -1.0922209126        1.2015026774       -0.0000013491
Si        1.0881695814        1.2258173636       -0.0000019234
Si       -1.1789717712       -1.1168306065       -0.0000004102
Si        1.1795398320       -1.1411224178       -0.0000008760
 PRIMCOORD     4
   10  1
 H       -2.1391319904        2.3068478628        0.0000005546
 H        2.1443829491        2.3356993047       -0.0000005429
 H       -1.8216753473       -1.7410663275        1.2264069953
 H        1.8250113598       -1.7551560208        1.2345770329
 H       -1.8216790605       -1.7410686526       -1.2264041914
 H        1.8250139151       -1.7551586587       -1.2345757297
Si       -1.0898564443        1.1449487846       -0.0000012990
Si        1.0802276891        1.2265350178       -0.0000019145
Si       -1.0869272471       -1.0677533744       -0.0000002345
Si        1.0846341786       -1.1538719350       -0.0000006697
 PRIMCOORD     5
   10  1
 H       -2.1926694914        2.2138440144        0.0000000273
 H        2.1574439110        2.3422515353       -0.0000009382
 H       -1.7319240178       -1.7054827289        1.2435527298
 H        1.7264087181       -1.7744931725        1.2517220327
 H       -1.7319264278       -1.7054850312       -1.2435500306
 H        1.7264099584       -1.7744955811       -1.2517207406
Si       -1.0689826821        1.1849515906       -0.0000011685
Si        1.1007482210        1.2095422372       -0.0000018209
Si       -1.1758349601       -1.0768454749        0.0000001900
Si        1.1903267728       -1.1138313880       -0.0000002800
 PRIMCOORD     6
   10  1
 H       -2.1537039615        2.2653352269       -0.0000004684
 H        2.1357086315        2.3163846086       -0.0000013245
 H       -1.8023623086       -1.7262684054        1.2319493595
 H        1.8102570107       -1.7533749538        1.2341184693
 H       -1.8023641754       -1.7262706623       -1.2319465022
 H        1.8102577542       -1.7533771832       -1.2341171778
Si       -1.0965980662        1.0919918812       -0.0000010180
Si        1.0904255244        1.1470530423       -0.0000014976
Si       -1.1445499662       -1.0052368760        0.0000003094
Si        1.1529295591       -1.0562806772       -0.0000001486
 PRIMCOORD     7
   10  1
 H       -2.1403904146        2.2196959029       -0.0000005815
 H        2.1125937130        2.2718294109       -0.0000014132
 H       -1.7830755660       -1.7025326386        1.2272621216
 H        1.7863410356       -1.7284589020        1.2266630557
 H       -1.7830772743       -1.7025348314       -1.2272592521
 H        1.7863416244       -1.7284610351       -1.2266617556
Si       -1.0809654133        1.1357028234       -0.0000010485
Si        1.0910525003        1.0870310156       -0.0000014352
Si       -1.2045841263       -1.0529448481        0.0000004336
Si        1.2157639232       -0.9993708965       -0.0000001237
 PRIMCOORD     8
   10  1
 H       -2.1333031422        2.2797181441       -0.0000009373
 H        2.1381752617        2.2041574401       -0.0000016949
 H       -1.8250955727       -1.7369328345        1.2517680041
 H        1.8341780745       -1.6746987173        1.2414653098
 H       -1.8250970090       -1.7369350597       -1.2517649184
 H        1.8341783881       -1.6747007526       -1.2414639917
Si       -1.0840404700        1.2019846892       -0.0000011413
Si        1.0703068851        1.1275045014       -0.0000013645
Si       -1.2602543150       -1.1417929030        0.0000006778
Si        1.2509519015       -1.0483485067        0.0000000574
 PRIMCOORD     9
   10  1
 H       -2.1485916953        2.3283976650       -0.0000010282
 H        2.1510146825        2.2323991341       -0.0000017773
 H       -1.8627610458       -1.7691661048        1.2694625128
 H        1.8639200075       -1.6928535106        1.2517836727
 H       -1.8627624350       -1.7691683859       -1.2694593243
 H        1.8639202645       -1.6928555788       -1.2517823149
Si       -1.0849246061        1.2306698791       -0.0000011960
Si        1.0864236259        1.1053165188       -0.0000013433
Si       -1.3399065766       -1.1646160001        0.0000007522
Si        1.3336677805       -1.0081676157        0.0000000473
 PRIMCOORD    10
   10  1
 H       -2.0776036115        2.4017310981       -0.0000013200
 H        2.1337063159        2.2437296666       -0.0000019969
 H       -1.9600971561       -1.8082570278        1.2569702639
 H        1.9500446936       -1.6774681602        1.2484058436
 H       -1.9600983308       -1.8082592961       -1.2569668821
 H        1.9500447994       -1.6774701969       -1.2484044066
Si       -1.0852604950        1.2330771503       -0.0000012167
Si        1.0684876059        1.1824901732       -0.0000013608
Si       -1.3811055651       -1.1922756722        0.0000008658
Si        1.3618817457       -1.0973417340        0.0000002109
