 ANIMSTEPS    10
 CRYSTAL 
 PRIMVEC 
  7.4084780000  0.0000000000  0.0000000000
  0.0000000000  7.4084780000  0.0000000000
  0.0000000000  0.0000000000  7.4084780000
 PRIMCOORD     1
   10  1
 H       -2.0191043824        2.6351289099       -0.2633113733
 H        2.2797056665        2.0772184560       -0.1691382538
 H       -1.9413452936       -1.7079914789        1.3180731488
 H        1.7561072281       -1.4806542743        1.4332125312
 H       -1.9548316562       -2.0063417838       -0.9590467354
 H        1.7780372781       -1.8826067153       -1.0609068540
Si       -0.9178665234        1.5237834357       -0.0941531972
Si        1.2089832543        1.0704132877       -0.3115309601
Si       -1.2781468640       -1.2087708390        0.0928809177
Si        1.0884612946       -1.2202229970        0.1139207771
 PRIMCOORD     2
   10  1
 H       -1.7570496658        2.7246909967       -0.1765666938
 H        2.2537818120        2.0818450173       -0.5031233141
 H       -1.9422884728       -1.8339962289        1.3954469516
 H        1.6380572568       -1.5828498226        1.4560628528
 H       -1.9660456138       -1.9413777040       -0.9795005175
 H        1.9495498160       -1.9122910358       -0.9115906915
Si       -0.9064256668        1.4386415628       -0.2870537655
Si        1.1686286452        1.0968256159       -0.1369049032
Si       -1.4056290366       -1.0229870000        0.1383807915
Si        0.9674209279       -1.2485454005        0.1048492906
 PRIMCOORD     3
   10  1
 H       -1.8883920633        2.5566106187       -0.4746526296
 H        2.4558695789        2.0901262236       -0.3236178927
 H       -2.0072319844       -1.3425571166        1.4273157306
 H        1.6503236549       -1.7170797496        1.4643247050
 H       -1.9915101628       -1.7952549264       -0.9957656870
 H        1.6463150723       -2.2333154139       -0.6833842798
Si       -0.8685522727        1.3338910358       -0.3110519844
Si        1.3023097458        1.0747114444       -0.3103475152
Si       -1.3414236918       -0.9479985177        0.1088631583
Si        1.0422921250       -1.2191775973        0.1983163958
 PRIMCOORD     4
   10  1
 H       -2.0684733510        2.3513170599       -0.5126733103
 H        2.4035334851        2.0398737589       -0.6500321938
 H       -2.0705023873       -1.2481206073        1.3768091680
 H        1.6983584102       -1.6635954787        1.6085997990
 H       -1.8872270299       -1.8420877983       -0.7995380784
 H        1.6860516900       -2.1742531545       -0.7433979117
Si       -1.0575378465        1.2019688565       -0.2342502311
Si        1.1450732106        1.1516299609       -0.3956430389
Si       -1.1260541330       -0.9264786270        0.1818947532
Si        1.2767779538       -1.0902979694        0.2682310449
 PRIMCOORD     5
   10  1
 H       -2.1560850632        2.2149725168       -0.9045448823
 H        2.2741103330        2.0540002840       -0.7724413494
 H       -1.5133621434       -1.0274802404        1.7269594237
 H        1.6293270537       -1.3871298650        1.7473834610
 H       -2.0078525874       -2.0001497716       -0.5334056406
 H        1.7154919230       -2.1867489951       -0.7579232048
Si       -1.1762835515        1.1957183191       -0.4036462338
Si        1.0289897410        1.0738736150       -0.5310536854
Si       -1.0999578995       -1.0653185140        0.2809408247
Si        1.3056221964       -1.0717813479        0.2477312880
 PRIMCOORD     6
   10  1
 H       -2.0370541582        2.1985724325       -0.9535388524
 H        2.0823801371        1.9103539934       -1.1199621168
 H       -1.6819115163       -0.9599446629        1.8916072621
 H        1.9621526350       -0.8963492231        1.5960790227
 H       -1.7712716153       -2.1907401841       -0.4630345783
 H        1.6478855205       -2.2122708526       -0.4842602040
Si       -1.1149964340        1.0287191054       -0.6113250392
Si        1.0811752733        0.9379541216       -0.4893267505
Si       -1.3042676137       -0.9590757730        0.3926870016
Si        1.1359077736       -1.0572629562        0.3410742557
 PRIMCOORD     7
   10  1
 H       -2.0655337927        1.9494670906       -1.3160103970
 H        1.9357471211        1.6346850875       -1.5682503389
 H       -1.7102943955       -0.9403159594        1.9989542070
 H        1.8684934526       -0.4605236065        1.7471771448
 H       -1.8371167692       -2.1689433240       -0.2591331589
 H        2.0807323234       -2.0170577885       -0.0032612197
Si       -1.1190158181        0.8174350295       -0.7660531286
Si        1.0436089698        0.7561252900       -0.6886903200
Si       -1.3465298899       -0.8625310176        0.4505695151
Si        1.1499088005       -0.9083848006        0.5046976971
 PRIMCOORD     8
   10  1
 H       -2.2543826190        1.3714924035       -1.9149913311
 H        2.0902872022        1.5615320835       -1.5017174368
 H       -1.9224080641       -0.6396343599        1.7340645600
 H        1.6017378820       -0.1084862576        2.1360504957
 H       -1.4606337572       -2.3456900893        0.0109850129
 H        2.1018272023       -1.8538386182        0.3821453811
Si       -1.3002166026        0.4523030632       -1.0940988775
Si        0.8306793786        0.9082563143       -0.9047329126
Si       -1.0640403108       -0.9930232415        0.5737236450
Si        1.3771496906       -0.5529552969        0.6785714642
 PRIMCOORD     9
   10  1
 H       -2.5299966457        1.0225240005       -1.7836757985
 H        1.8242537172        1.5631082836       -1.7309215113
 H       -1.7966373686       -1.0929675293        1.7758985385
 H        1.3314266560        0.5775418876        2.0453869035
 H       -0.8887034529       -2.4753888211       -0.2419610444
 H        2.0889804498       -1.6540681949        1.0906871597
Si       -1.2153583382        0.6370253167       -1.1471050681
Si        0.9085848997        0.6266586352       -1.1049369457
Si       -1.1257606986       -1.0872827277        0.3823520304
Si        1.4032107833       -0.3171948496        0.8142757368
 PRIMCOORD    10
   10  1
 H       -2.4004360490        0.8632811988       -2.0172952520
 H        1.6967359846        1.8284985829       -1.8737915104
 H       -2.0974093840       -1.2093146905        1.7129185490
 H        1.3420401467        0.3044737955        2.2967480036
 H       -0.9778441499       -2.5320674964       -0.3078160809
 H        2.5986151023       -1.1824069085        0.9428923484
Si       -1.2337223985        0.5711987951       -1.0861805244
Si        0.9733188509        0.7682397715       -0.9622168985
Si       -1.2732829156       -1.2394575719        0.4424739969
Si        1.3719848144       -0.3724894755        0.9522673692
