 ANIMSTEPS    10
 CRYSTAL 
 PRIMVEC 
  7.4084809512  0.0000000000  0.0000000000
  0.0000000000  7.4084809512  0.0000000000
  0.0000000000  0.0000000000  7.4084809512
 PRIMCOORD     1
   10  1
 H       -2.1428818680        2.3133833370        0.0000009360
 H        2.1428815030        2.3133810790       -0.0000003560
 H       -1.8241408910       -1.7441216280        1.2505559640
 H        1.8241425090       -1.7441238850        1.2505540140
 H       -1.8241467450       -1.7441246850       -1.2505531790
 H        1.8241466360       -1.7441274050       -1.2505526730
Si       -1.0818540600        1.1996017860       -0.0000009590
Si        1.0818548510        1.1996041600       -0.0000015560
Si       -1.1922132580       -1.1247611110       -0.0000010900
Si        1.1922113250       -1.1247556470       -0.0000011000
 PRIMCOORD     2
   10  1
 H       -2.1502686157        2.3219753108        0.0000011355
 H        2.1495304189        2.3208319358       -0.0000005601
 H       -1.8309533410       -1.7508308856        1.2563676224
 H        1.8306502427       -1.7503769543        1.2557703274
 H       -1.8309592205       -1.7508336506       -1.2563647434
 H        1.8306535702       -1.7503801432       -1.2557705131
Si       -1.0769442579        1.2573856130       -0.0000007456
Si        1.0781160501        1.2499662063       -0.0000008675
Si       -1.2508004347       -1.1778298718       -0.0000005322
Si        1.2509755899       -1.1699515594       -0.0000011224
 PRIMCOORD     3
   10  1
 H       -2.1566171678        2.3542429439       -0.0000030239
 H        2.1593527700        2.3524039280        0.0000005128
 H       -1.8594452374       -1.7698411065        1.2549950842
 H        1.8598163775       -1.7681852166        1.2555882487
 H       -1.8594576944       -1.7698344469       -1.2549878866
 H        1.8598190023       -1.7681831669       -1.2555954124
Si       -1.0921988399        1.2016130964        0.0000057009
Si        1.0881666795        1.2256686283       -0.0000018200
Si       -1.1788781574       -1.1169604926        0.0000023537
Si        1.1794422694       -1.1409681661       -0.0000037564
 PRIMCOORD     4
   10  1
 H       -2.1392232379        2.3069821179        0.0000067250
 H        2.1444683349        2.3356678221        0.0000052363
 H       -1.8215745501       -1.7411111794        1.2264905281
 H        1.8248558766       -1.7551136008        1.2346157812
 H       -1.8215834192       -1.7411006349       -1.2264985963
 H        1.8248559944       -1.7551182786       -1.2346179377
Si       -1.0898032348        1.1453611534        0.0000052473
Si        1.0802841724        1.2265986862       -0.0000021057
Si       -1.0866569587       -1.0682386628       -0.0000021918
Si        1.0843770244       -1.1539714222       -0.0000026855
 PRIMCOORD     5
   10  1
 H       -2.1925906364        2.2141927573        0.0000126691
 H        2.1576274631        2.3421669113        0.0000058142
 H       -1.7317092851       -1.7057072138        1.2434846731
 H        1.7262776367       -1.7744613932        1.2517309295
 H       -1.7317150270       -1.7057037692       -1.2434921138
 H        1.7262765945       -1.7744626581       -1.2517366148
Si       -1.0691235461        1.1844703900        0.0000022852
Si        1.1006289119        1.2097911917       -0.0000029484
Si       -1.1759550654       -1.0762266311        0.0000000023
Si        1.1902829557       -1.1141035840       -0.0000046954
 PRIMCOORD     6
   10  1
 H       -2.1538657164        2.2646610342        0.0000080834
 H        2.1358145415        2.3169865103        0.0000052855
 H       -1.8022094274       -1.7258625688        1.2319439787
 H        1.8101236380       -1.7539174935        1.2341622418
 H       -1.8022257798       -1.7258629256       -1.2318570172
 H        1.8100763327       -1.7539047378       -1.2342824063
Si       -1.0966590582        1.0907348703        0.0000172484
Si        1.0904639751        1.1480529651       -0.0000034288
Si       -1.1448587462       -1.0038138545        0.0000391003
Si        1.1533402428       -1.0571177987       -0.0000330848
 PRIMCOORD     7
   10  1
 H       -2.1404957767        2.2186933701        0.0000148768
 H        2.1126297627        2.2729937183       -0.0000011237
 H       -1.7831736173       -1.7019017729        1.2272353441
 H        1.7864749634       -1.7292388674        1.2269057608
 H       -1.7832046912       -1.7019101012       -1.2271670767
 H        1.7864159264       -1.7292170720       -1.2270052263
Si       -1.0808238700        1.1357822986        0.0000162508
Si        1.0909511254        1.0891003528        0.0000054930
Si       -1.2049911296       -1.0528567016        0.0000238094
Si        1.2162173090       -1.0014892236       -0.0000281073
 PRIMCOORD     8
   10  1
 H       -2.1345834831        2.2789208479        0.0000241400
 H        2.1362976359        2.2071963415        0.0000028897
 H       -1.8250219272       -1.7363556747        1.2522282357
 H        1.8335487102       -1.6774251218        1.2410946564
 H       -1.8250774863       -1.7363723181       -1.2521482154
 H        1.8334827899       -1.6773797968       -1.2412039142
Si       -1.0832209118        1.2030598109        0.0000104863
Si        1.0724481678        1.1221813270       -0.0000024712
Si       -1.2626855328       -1.1421079501        0.0000221427
Si        1.2548120396       -1.0417614648       -0.0000279489
 PRIMCOORD     9
   10  1
 H       -2.1477858088        2.3291846423        0.0000173884
 H        2.1495418837        2.2326159939        0.0000134667
 H       -1.8637925554       -1.7698545288        1.2703638310
 H        1.8645451121       -1.6931595992        1.2516806792
 H       -1.8638488132       -1.7698694844       -1.2702897567
 H        1.8644683269       -1.6931037724       -1.2518086190
Si       -1.0838779878        1.2323647427        0.0000285748
Si        1.0857633405        1.1123381593        0.0000055365
Si       -1.3442712908       -1.1664085093        0.0000216534
Si        1.3392577949       -1.0141516431       -0.0000327533
 PRIMCOORD    10
   10  1
 H       -2.0784975148        2.4029206427        0.0000205399
 H        2.1328980426        2.2521451548        0.0000107067
 H       -1.9645966557       -1.8093941355        1.2564306814
 H        1.9548656557       -1.6824719683        1.2487528620
 H       -1.9646638353       -1.8094009703       -1.2563249000
 H        1.9547820450       -1.6824067895       -1.2489126186
Si       -1.0854624884        1.2336067672        0.0000256591
Si        1.0683366723        1.1905538121        0.0000109370
Si       -1.3838379966       -1.1911708903        0.0000311104
Si        1.3661760773       -1.1044256220       -0.0000449768
