
     Program PHONON v.6.beta (svn rev. 13009) starts on 23Sep2016 at 11:59:17 

     This program is part of the open-source Quantum ESPRESSO suite
     for quantum simulation of materials; please cite
         "P. Giannozzi et al., J. Phys.:Condens. Matter 21 395502 (2009);
          URL http://www.quantum-espresso.org", 
     in publications or presentations arising from this work. More details at
     http://www.quantum-espresso.org/quote

           HOST :    @host@
           ARCH :    x86_64
             CC :    cc
            CPP :    cpp
            F90 :    mpif90
            F77 :    gfortran
         DFLAGS :    -D__GFORTRAN -D__STD_F95 -D__FFTW -D__MPI
      BLAS LIBS :    
    LAPACK LIBS :    $(TOPDIR)/LAPACK/liblapack.a $(TOPDIR)/LAPACK/libblas.a
       FFT LIBS :    
      MASS LIBS :    

     Parallel version (MPI), running on     2 processors
     R & G space division:  proc/nbgrp/npool/nimage =       2

     Reading data from directory:
     /home/pietro/trunk/espresso/tempdir/nickel.save

   Info: using nr1, nr2, nr3 values from input

   Info: using nr1, nr2, nr3 values from input

     IMPORTANT: XC functional enforced from input :
     Exchange-correlation      =  SLA  PW   PBE  PBE ( 1  4  3  4 0 0)
     Any further DFT definition will be discarded
     Please, verify this is what you really want

               file Ni.pbe-nd-rrkjus.UPF: wavefunction(s)  4S renormalized

     Parallelization info
     --------------------
     sticks:   dense  smooth     PW     G-vecs:    dense   smooth      PW
     Min         225      81     30                 3210      705     165
     Max         226      82     31                 3213      706     166
     Sum         451     163     61                 6423     1411     331


     Check: negative/imaginary core charge=   -0.000020    0.000000

     Calculation of q =    0.0000000   0.0000000   1.0000000

   Info: using nr1, nr2, nr3 values from input

   Info: using nr1, nr2, nr3 values from input

     Parallelization info
     --------------------
     sticks:   dense  smooth     PW     G-vecs:    dense   smooth      PW
     Min         225      81     42                 3210      705     264
     Max         226      82     43                 3213      706     267
     Sum         451     163     85                 6423     1411     531



     bravais-lattice index     =            2
     lattice parameter (alat)  =       6.6500  a.u.
     unit-cell volume          =      73.5199 (a.u.)^3
     number of atoms/cell      =            1
     number of atomic types    =            1
     number of electrons       =        10.00
     number of Kohn-Sham states=           18
     kinetic-energy cutoff     =      27.0000  Ry
     charge density cutoff     =     300.0000  Ry
     Exchange-correlation      =  SLA  PW   PBE  PBE ( 1  4  3  4 0 0)
     Noncollinear calculation without spin-orbit


     celldm(1)=   6.650000  celldm(2)=   0.000000  celldm(3)=   0.000000
     celldm(4)=   0.000000  celldm(5)=   0.000000  celldm(6)=   0.000000

     crystal axes: (cart. coord. in units of alat)
               a(1) = (  -0.500000   0.000000   0.500000 )  
               a(2) = (   0.000000   0.500000   0.500000 )  
               a(3) = (  -0.500000   0.500000   0.000000 )  

     reciprocal axes: (cart. coord. in units 2 pi/alat)
               b(1) = ( -1.000000 -1.000000  1.000000 )  
               b(2) = (  1.000000  1.000000  1.000000 )  
               b(3) = ( -1.000000  1.000000 -1.000000 )  


     PseudoPot. # 1 for Ni read from file:
     /home/pietro/trunk/espresso/pseudo/Ni.pbe-nd-rrkjus.UPF
     MD5 check sum: 8081f0a005c9a5470caab1a58e82ecb2
     Pseudo is Ultrasoft + core correction, Zval = 10.0
     Generated by new atomic code, or converted to UPF format
     Using radial grid of 1203 points,  6 beta functions with: 
                l(1) =   0
                l(2) =   0
                l(3) =   1
                l(4) =   1
                l(5) =   2
                l(6) =   2
     Q(r) pseudized with 0 coefficients 


     atomic species   valence    mass     pseudopotential
        Ni            10.00    58.69340     Ni( 1.00)

     16 Sym. Ops., with inversion, found



   Cartesian axes

     site n.     atom                  positions (alat units)
         1           Ni  tau(   1) = (   0.0000000   0.0000000   0.0000000  )

     number of k points=   216  Marzari-Vanderbilt smearing, width (Ry)=  0.0200

     Number of k-points >= 100: set verbosity='high' to print them.

     Dense  grid:     6423 G-vectors     FFT dimensions: (  27,  27,  27)

     Smooth grid:     1411 G-vectors     FFT dimensions: (  15,  15,  15)

     Estimated max dynamical RAM per process >       3.06Mb

     Estimated total allocated dynamical RAM >       6.11Mb

     Check: negative/imaginary core charge=   -0.000020    0.000000

     The potential is recalculated from file :
     /home/pietro/trunk/espresso/tempdir/_ph0/nickel.save/charge-density.dat

     Starting wfc are   12 atomic +    6 random wfc

     Band Structure Calculation
     Davidson diagonalization with overlap

     ethr =  1.00E-10,  avg # of iterations = 14.1

     total cpu time spent up to now is       11.6 secs

     End of band structure calculation

     Number of k-points >= 100: set verbosity='high' to print the bands.

     the Fermi energy is    14.2603 ev

     Writing output data file nickel.save

     Fixed quantization axis for GGA:     0.000000    1.000000    0.000000

                                                                                

     bravais-lattice index     =            2
     lattice parameter (alat)  =       6.6500  a.u.
     unit-cell volume          =      73.5199 (a.u.)^3
     number of atoms/cell      =            1
     number of atomic types    =            1
     kinetic-energy cut-off    =      27.0000  Ry
     charge density cut-off    =     300.0000  Ry
     convergence threshold     =      1.0E-16
     beta                      =       0.7000
     number of iterations used =            4
     Exchange-correlation      =  SLA  PW   PBE  PBE ( 1  4  3  4 0 0)
     Noncollinear calculation without spin-orbit

     celldm(1)=    6.65000  celldm(2)=    0.00000  celldm(3)=    0.00000
     celldm(4)=    0.00000  celldm(5)=    0.00000  celldm(6)=    0.00000

     crystal axes: (cart. coord. in units of alat)
               a(1) = ( -0.5000  0.0000  0.5000 )  
               a(2) = (  0.0000  0.5000  0.5000 )  
               a(3) = ( -0.5000  0.5000  0.0000 )  

     reciprocal axes: (cart. coord. in units 2 pi/alat)
               b(1) = ( -1.0000 -1.0000  1.0000 )  
               b(2) = (  1.0000  1.0000  1.0000 )  
               b(3) = ( -1.0000  1.0000 -1.0000 )  


     Atoms inside the unit cell: 

     Cartesian axes

     site n.  atom      mass           positions (alat units)
        1     Ni  58.6934   tau(    1) = (    0.00000    0.00000    0.00000  )

     Computing dynamical matrix for 
                    q = (   0.0000000   0.0000000   1.0000000 )

      8 Sym.Ops. (no q -> -q+G )


     G cutoff =  336.0507  (   3213 G-vectors)     FFT grid: ( 27, 27, 27)
     G cutoff =  120.9783  (    705 G-vectors)  smooth grid: ( 15, 15, 15)

     number of k points=   216  Marzari-Vanderbilt smearing, width (Ry)=  0.0200

     PseudoPot. # 1 for Ni read from file:
     /home/pietro/trunk/espresso/pseudo/Ni.pbe-nd-rrkjus.UPF
     MD5 check sum: 8081f0a005c9a5470caab1a58e82ecb2
     Pseudo is Ultrasoft + core correction, Zval = 10.0
     Generated by new atomic code, or converted to UPF format
     Using radial grid of 1203 points,  6 beta functions with: 
                l(1) =   0
                l(2) =   0
                l(3) =   1
                l(4) =   1
                l(5) =   2
                l(6) =   2
     Q(r) pseudized with 0 coefficients 


     Mode symmetry, D_2h (mmm)  point group:


     Atomic displacements:
     There are   3 irreducible representations

     Representation     1      1 modes -B_1u  To be done

     Representation     2      1 modes -B_2u  To be done

     Representation     3      1 modes -B_3u  To be done



     Alpha used in Ewald sum =   2.8000
     PHONON       :    15.04s CPU        15.37s WALL



     Representation #  1 mode #   1

     Self-consistent Calculation

      iter #   1 total cpu time :    17.0 secs   av.it.:   4.9
      thresh= 1.000E-02 alpha_mix =  0.700 |ddv_scf|^2 =  5.476E-05

      iter #   2 total cpu time :    19.0 secs   av.it.:   7.7
      thresh= 7.400E-04 alpha_mix =  0.700 |ddv_scf|^2 =  3.185E-05

      iter #   3 total cpu time :    20.8 secs   av.it.:   7.2
      thresh= 5.643E-04 alpha_mix =  0.700 |ddv_scf|^2 =  4.082E-09

      iter #   4 total cpu time :    22.7 secs   av.it.:   7.3
      thresh= 6.389E-06 alpha_mix =  0.700 |ddv_scf|^2 =  3.666E-11

      iter #   5 total cpu time :    24.5 secs   av.it.:   6.6
      thresh= 6.055E-07 alpha_mix =  0.700 |ddv_scf|^2 =  1.176E-12

      iter #   6 total cpu time :    26.3 secs   av.it.:   7.1
      thresh= 1.085E-07 alpha_mix =  0.700 |ddv_scf|^2 =  5.548E-15

      iter #   7 total cpu time :    28.2 secs   av.it.:   7.3
      thresh= 7.448E-09 alpha_mix =  0.700 |ddv_scf|^2 =  7.637E-17

      iter #   8 total cpu time :    30.0 secs   av.it.:   7.2
      thresh= 8.739E-10 alpha_mix =  0.700 |ddv_scf|^2 =  1.260E-17

     End of self-consistent calculation

     Convergence has been achieved 


     Representation #  2 mode #   2

     Self-consistent Calculation

      iter #   1 total cpu time :    31.7 secs   av.it.:   4.3
      thresh= 1.000E-02 alpha_mix =  0.700 |ddv_scf|^2 =  6.625E-06

      iter #   2 total cpu time :    33.7 secs   av.it.:   7.9
      thresh= 2.574E-04 alpha_mix =  0.700 |ddv_scf|^2 =  2.584E-07

      iter #   3 total cpu time :    35.6 secs   av.it.:   7.7
      thresh= 5.083E-05 alpha_mix =  0.700 |ddv_scf|^2 =  1.503E-09

      iter #   4 total cpu time :    37.4 secs   av.it.:   7.1
      thresh= 3.877E-06 alpha_mix =  0.700 |ddv_scf|^2 =  2.603E-12

      iter #   5 total cpu time :    39.3 secs   av.it.:   7.2
      thresh= 1.613E-07 alpha_mix =  0.700 |ddv_scf|^2 =  5.865E-14

      iter #   6 total cpu time :    41.2 secs   av.it.:   7.4
      thresh= 2.422E-08 alpha_mix =  0.700 |ddv_scf|^2 =  2.506E-15

      iter #   7 total cpu time :    43.2 secs   av.it.:   8.0
      thresh= 5.006E-09 alpha_mix =  0.700 |ddv_scf|^2 =  5.893E-17

      iter #   8 total cpu time :    45.2 secs   av.it.:   7.9
      thresh= 7.676E-10 alpha_mix =  0.700 |ddv_scf|^2 =  2.678E-18

     End of self-consistent calculation

     Convergence has been achieved 


     Representation #  3 mode #   3

     Self-consistent Calculation

      iter #   1 total cpu time :    46.9 secs   av.it.:   4.3
      thresh= 1.000E-02 alpha_mix =  0.700 |ddv_scf|^2 =  6.625E-06

      iter #   2 total cpu time :    48.8 secs   av.it.:   7.9
      thresh= 2.574E-04 alpha_mix =  0.700 |ddv_scf|^2 =  2.584E-07

      iter #   3 total cpu time :    50.8 secs   av.it.:   7.7
      thresh= 5.083E-05 alpha_mix =  0.700 |ddv_scf|^2 =  1.503E-09

      iter #   4 total cpu time :    52.6 secs   av.it.:   7.1
      thresh= 3.877E-06 alpha_mix =  0.700 |ddv_scf|^2 =  2.603E-12

      iter #   5 total cpu time :    54.4 secs   av.it.:   7.2
      thresh= 1.613E-07 alpha_mix =  0.700 |ddv_scf|^2 =  5.865E-14

      iter #   6 total cpu time :    56.3 secs   av.it.:   7.4
      thresh= 2.422E-08 alpha_mix =  0.700 |ddv_scf|^2 =  2.505E-15

      iter #   7 total cpu time :    58.3 secs   av.it.:   8.0
      thresh= 5.005E-09 alpha_mix =  0.700 |ddv_scf|^2 =  5.891E-17

      iter #   8 total cpu time :    60.3 secs   av.it.:   7.9
      thresh= 7.675E-10 alpha_mix =  0.700 |ddv_scf|^2 =  2.594E-18

     End of self-consistent calculation

     Convergence has been achieved 

     Number of q in the star =    2
     List of q in the star:
          1   0.000000000   0.000000000   1.000000000
          2   1.000000000   0.000000000   0.000000000

     Diagonalizing the dynamical matrix

     q = (    0.000000000   0.000000000   1.000000000 ) 

 **************************************************************************
     freq (    1) =       6.382303 [THz] =     212.890700 [cm-1]
     freq (    2) =       6.382353 [THz] =     212.892393 [cm-1]
     freq (    3) =       8.906618 [THz] =     297.092811 [cm-1]
 **************************************************************************

     Mode symmetry, D_2h (mmm)  [C_2h (2/m) ] magnetic point group:

     freq (  1 -  1) =        212.9  [cm-1]   --> B_2u               
     freq (  2 -  2) =        212.9  [cm-1]   --> B_3u               
     freq (  3 -  3) =        297.1  [cm-1]   --> B_1u               

     init_run     :      0.30s CPU      0.31s WALL (       1 calls)
     electrons    :     11.06s CPU     11.33s WALL (       1 calls)

     Called by init_run:
     wfcinit      :      0.00s CPU      0.00s WALL (       1 calls)
     potinit      :      0.03s CPU      0.03s WALL (       1 calls)

     Called by electrons:
     c_bands      :     11.05s CPU     11.32s WALL (       1 calls)
     v_of_rho     :      0.05s CPU      0.05s WALL (       2 calls)
     newd         :      0.03s CPU      0.03s WALL (       2 calls)

     Called by c_bands:
     init_us_2    :      0.16s CPU      0.16s WALL (    3564 calls)
     cegterg      :     10.42s CPU     10.64s WALL (     224 calls)

     Called by sum_band:

     Called by *egterg:
     h_psi        :     29.82s CPU     31.16s WALL (   26135 calls)
     s_psi        :      3.35s CPU      3.19s WALL (   51375 calls)
     g_psi        :      0.05s CPU      0.03s WALL (    3047 calls)
     cdiaghg      :      3.51s CPU      3.53s WALL (    3263 calls)

     Called by h_psi:
     h_psi:pot    :     29.74s CPU     31.03s WALL (   26135 calls)
     h_psi:calbec :      1.56s CPU      1.71s WALL (   26135 calls)
     vloc_psi     :     26.65s CPU     27.61s WALL (   26135 calls)
     add_vuspsi   :      1.48s CPU      1.66s WALL (   26135 calls)

     General routines
     calbec       :      3.83s CPU      4.07s WALL (   57099 calls)
     fft          :      0.31s CPU      0.31s WALL (    1264 calls)
     ffts         :      0.02s CPU      0.02s WALL (     548 calls)
     fftw         :     26.11s CPU     27.25s WALL ( 1249336 calls)
     interpolate  :      0.04s CPU      0.06s WALL (     212 calls)
     davcio       :      0.24s CPU      0.30s WALL (   14046 calls)

     Parallel routines
     fft_scatter  :      5.61s CPU      5.86s WALL ( 1251148 calls)

     PHONON       :  0m58.26s CPU     1m 0.40s WALL

     INITIALIZATION: 
     phq_setup    :      0.13s CPU      0.13s WALL (       1 calls)
     phq_init     :      2.64s CPU      2.68s WALL (       1 calls)

     phq_init     :      2.64s CPU      2.68s WALL (       1 calls)
     set_drhoc    :      0.20s CPU      0.21s WALL (       3 calls)
     init_vloc    :      0.01s CPU      0.01s WALL (       2 calls)
     init_us_1    :      0.64s CPU      0.64s WALL (       2 calls)
     newd         :      0.03s CPU      0.03s WALL (       2 calls)
     dvanqq       :      0.12s CPU      0.12s WALL (       1 calls)
     drho         :      1.91s CPU      1.94s WALL (       1 calls)

     DYNAMICAL MATRIX:
     dynmat0      :      0.42s CPU      0.41s WALL (       1 calls)
     phqscf       :     43.22s CPU     45.02s WALL (       1 calls)
     dynmatrix    :      0.00s CPU      0.00s WALL (       1 calls)

     phqscf       :     43.22s CPU     45.02s WALL (       1 calls)
     solve_linter :     42.91s CPU     44.70s WALL (       3 calls)
     drhodv       :      0.30s CPU      0.31s WALL (       3 calls)

     dynmat0      :      0.42s CPU      0.41s WALL (       1 calls)
     dynmat_us    :      0.26s CPU      0.26s WALL (       1 calls)
     d2ionq       :      0.00s CPU      0.00s WALL (       1 calls)
     dynmatcc     :      0.16s CPU      0.16s WALL (       1 calls)

     dynmat_us    :      0.26s CPU      0.26s WALL (       1 calls)
     addusdynmat  :      0.00s CPU      0.00s WALL (       1 calls)

     phqscf       :     43.22s CPU     45.02s WALL (       1 calls)
     solve_linter :     42.91s CPU     44.70s WALL (       3 calls)

     solve_linter :     42.91s CPU     44.70s WALL (       3 calls)
     dvqpsi_us    :      1.12s CPU      1.15s WALL (     324 calls)
     ortho        :      1.11s CPU      1.02s WALL (    2592 calls)
     cgsolve      :     31.85s CPU     33.00s WALL (    2592 calls)
     incdrhoscf   :      3.43s CPU      3.80s WALL (    2592 calls)
     addusddens   :      0.61s CPU      0.62s WALL (      27 calls)
     vpsifft      :      2.45s CPU      2.63s WALL (    2268 calls)
     dv_of_drho   :      0.35s CPU      0.36s WALL (      24 calls)
     mix_pot      :      0.07s CPU      0.08s WALL (      24 calls)
     psymdvscf    :      0.18s CPU      0.17s WALL (      24 calls)
     newdq        :      0.53s CPU      0.53s WALL (      24 calls)
     adddvscf     :      0.38s CPU      0.41s WALL (    2268 calls)
     drhodvus     :      0.00s CPU      0.00s WALL (       3 calls)

     dvqpsi_us    :      1.12s CPU      1.15s WALL (     324 calls)
     dvqpsi_us_on :      0.58s CPU      0.57s WALL (     324 calls)

     cgsolve      :     31.85s CPU     33.00s WALL (    2592 calls)
     ch_psi       :     31.19s CPU     32.38s WALL (   22648 calls)

     ch_psi       :     31.19s CPU     32.38s WALL (   22648 calls)
     last         :      4.46s CPU      4.55s WALL (   22648 calls)

     add_vuspsi   :      1.48s CPU      1.66s WALL (   26135 calls)

     incdrhoscf   :      3.43s CPU      3.80s WALL (    2592 calls)

     drhodvus     :      0.00s CPU      0.00s WALL (       3 calls)

      General routines
     calbec       :      3.83s CPU      4.07s WALL (   57099 calls)
     fft          :      0.31s CPU      0.31s WALL (    1264 calls)
     ffts         :      0.02s CPU      0.02s WALL (     548 calls)
     fftw         :     26.11s CPU     27.25s WALL ( 1249336 calls)
     davcio       :      0.24s CPU      0.30s WALL (   14046 calls)
     write_rec    :      0.04s CPU      0.04s WALL (      27 calls)


     PHONON       :  0m58.26s CPU     1m 0.40s WALL


   This run was terminated on:  12: 0:17  23Sep2016            

=------------------------------------------------------------------------------=
   JOB DONE.
=------------------------------------------------------------------------------=
