
     Program PWSCF v.5.0.2 (svn rev. 9400) starts on  6Dec2012 at 16:12:21 

     This program is part of the open-source Quantum ESPRESSO suite
     for quantum simulation of materials; please cite
         "P. Giannozzi et al., J. Phys.:Condens. Matter 21 395502 (2009);
          URL http://www.quantum-espresso.org", 
     in publications or presentations arising from this work. More details at
     http://www.quantum-espresso.org/quote.php

     Serial version

     Current dimensions of program PWSCF are:
     Max number of different atomic species (ntypx) = 10
     Max number of k-points (npk) =  40000
     Max angular momentum in pseudopotentials (lmaxx) =  3
     Waiting for input...
     Reading input from standard input
               file Ni.pbe-nd-rrkjus.UPF: wavefunction(s)  4S renormalized

     Fixed quantization axis for GGA:     0.000000    1.000000    0.000000

   Info: using nr1, nr2, nr3 values from input
 
     G-vector sticks info
     --------------------
     sticks:   dense  smooth     PW     G-vecs:    dense   smooth      PW
     Sum         451     163     61                 6423     1411     331
 
     Generating pointlists ...
     new r_m :   0.2917 (alat units)  1.9397 (a.u.) for type    1


     bravais-lattice index     =            2
     lattice parameter (alat)  =       6.6500  a.u.
     unit-cell volume          =      73.5199 (a.u.)^3
     number of atoms/cell      =            1
     number of atomic types    =            1
     number of electrons       =        10.00
     number of Kohn-Sham states=           18
     kinetic-energy cutoff     =      27.0000  Ry
     charge density cutoff     =     300.0000  Ry
     convergence threshold     =      1.0E-12
     mixing beta               =       0.7000
     number of iterations used =            8  plain     mixing
     Exchange-correlation      =  SLA  PW   PBE  PBE ( 1 4 3 4 0)
     EXX-fraction              =        0.00
     Noncollinear calculation without spin-orbit


     celldm(1)=   6.650000  celldm(2)=   0.000000  celldm(3)=   0.000000
     celldm(4)=   0.000000  celldm(5)=   0.000000  celldm(6)=   0.000000

     crystal axes: (cart. coord. in units of alat)
               a(1) = (  -0.500000   0.000000   0.500000 )  
               a(2) = (   0.000000   0.500000   0.500000 )  
               a(3) = (  -0.500000   0.500000   0.000000 )  

     reciprocal axes: (cart. coord. in units 2 pi/alat)
               b(1) = ( -1.000000 -1.000000  1.000000 )  
               b(2) = (  1.000000  1.000000  1.000000 )  
               b(3) = ( -1.000000  1.000000 -1.000000 )  


     PseudoPot. # 1 for Ni read from file:
     /home/giannozz/trunk/espresso/pseudo/Ni.pbe-nd-rrkjus.UPF
     MD5 check sum: 8081f0a005c9a5470caab1a58e82ecb2
     Pseudo is Ultrasoft + core correction, Zval = 10.0
     Generated by new atomic code, or converted to UPF format
     Using radial grid of 1203 points,  6 beta functions with: 
                l(1) =   0
                l(2) =   0
                l(3) =   1
                l(4) =   1
                l(5) =   2
                l(6) =   2
     Q(r) pseudized with 0 coefficients 


     atomic species   valence    mass     pseudopotential
        Ni            10.00    58.69340     Ni( 1.00)

     16 Sym. Ops., with inversion, found



   Cartesian axes

     site n.     atom                  positions (alat units)
         1           Ni  tau(   1) = (   0.0000000   0.0000000   0.0000000  )

     number of k points=    20  Methfessel-Paxton smearing, width (Ry)=  0.0200
                       cart. coord. in units 2pi/alat
        k(    1) = (  -0.1250000   0.1250000   0.1250000), wk =   0.0312500
        k(    2) = (  -0.3750000   0.3750000  -0.1250000), wk =   0.0625000
        k(    3) = (   0.3750000  -0.3750000   0.6250000), wk =   0.0625000
        k(    4) = (   0.1250000  -0.1250000   0.3750000), wk =   0.0625000
        k(    5) = (  -0.1250000   0.6250000   0.1250000), wk =   0.0312500
        k(    6) = (   0.6250000  -0.1250000   0.8750000), wk =   0.0625000
        k(    7) = (   0.3750000   0.1250000   0.6250000), wk =   0.0625000
        k(    8) = (  -0.1250000  -0.8750000   0.1250000), wk =   0.0312500
        k(    9) = (  -0.3750000   0.3750000   0.3750000), wk =   0.0312500
        k(   10) = (   0.3750000  -0.3750000   1.1250000), wk =   0.0625000
        k(   11) = (   0.3750000  -0.1250000  -0.3750000), wk =   0.0312500
        k(   12) = (  -0.3750000   0.6250000   0.3750000), wk =   0.0312500
        k(   13) = (  -0.1250000   0.3750000   0.1250000), wk =   0.0312500
        k(   14) = (   0.6250000   0.1250000  -0.1250000), wk =   0.0625000
        k(   15) = (  -0.1250000   0.8750000   0.6250000), wk =   0.0625000
        k(   16) = (   0.8750000   0.6250000  -0.1250000), wk =   0.0625000
        k(   17) = (   0.1250000   0.6250000   0.3750000), wk =   0.0625000
        k(   18) = (   0.6250000   0.3750000   0.1250000), wk =   0.0625000
        k(   19) = (  -0.8750000   0.1250000  -0.1250000), wk =   0.0625000
        k(   20) = (  -0.3750000   1.1250000   0.3750000), wk =   0.0312500

     Dense  grid:     6423 G-vectors     FFT dimensions: (  27,  27,  27)

     Smooth grid:     1411 G-vectors     FFT dimensions: (  15,  15,  15)

     Largest allocated arrays     est. size (Mb)     dimensions
        Kohn-Sham Wavefunctions         0.10 Mb     (    358,   18)
        NL pseudopotentials             0.05 Mb     (    179,   18)
        Each V/rho on FFT grid          0.30 Mb     (  19683)
        Each G-vector array             0.05 Mb     (   6423)
        G-vector shells                 0.00 Mb     (    115)
     Largest temporary arrays     est. size (Mb)     dimensions
        Auxiliary wavefunctions         0.39 Mb     (    358,   72)
        Each subspace H/S matrix        0.08 Mb     (  72,  72)
        Each <psi_i|beta_j> matrix      0.01 Mb     (     18,   2,   18)
        Arrays for rho mixing           2.40 Mb     (  19683,   8)

     Check: negative/imaginary core charge=   -0.000020    0.000000

     Initial potential from superposition of free atoms

     starting charge    9.99954, renormalised to   10.00000

 ==============================================================================
     atom number    1 relative position :    0.0000   0.0000   0.0000
     charge :     8.914567
     magnetization :          0.000000    4.457284    0.000000
     magnetization/charge:    0.000000    0.500000    0.000000
     polar coord.: r, theta, phi [deg] :     4.457284   90.000000   90.000000

 ==============================================================================
     Starting wfc are   12 randomized atomic wfcs

     total cpu time spent up to now is        1.1 secs

     per-process dynamical memory:    17.1 Mb

     Self-consistent Calculation

     iteration #  1     ecut=    27.00 Ry     beta=0.70
     Davidson diagonalization with overlap
     ethr =  1.00E-02,  avg # of iterations =  4.6

 ==============================================================================
     atom number    1 relative position :    0.0000   0.0000   0.0000
     charge :     8.526114
     magnetization :          0.000000    2.473004    0.000000
     magnetization/charge:    0.000000    0.290051    0.000000
     polar coord.: r, theta, phi [deg] :     2.473004   90.000000   90.000000

 ==============================================================================

     total cpu time spent up to now is        1.8 secs

     total energy              =     -85.61976875 Ry
     Harris-Foulkes estimate   =     -85.78370169 Ry
     estimated scf accuracy    <       0.59971802 Ry

     total magnetization       =     0.00     1.62     0.00 Bohr mag/cell
     absolute magnetization    =     1.64 Bohr mag/cell

     iteration #  2     ecut=    27.00 Ry     beta=0.70
     Davidson diagonalization with overlap
     ethr =  6.00E-03,  avg # of iterations =  2.0

 ==============================================================================
     atom number    1 relative position :    0.0000   0.0000   0.0000
     charge :     8.728386
     magnetization :          0.000000    1.915008    0.000000
     magnetization/charge:    0.000000    0.219400    0.000000
     polar coord.: r, theta, phi [deg] :     1.915008   90.000000   90.000000

 ==============================================================================

     total cpu time spent up to now is        2.4 secs

     total energy              =     -85.74815624 Ry
     Harris-Foulkes estimate   =     -86.04363284 Ry
     estimated scf accuracy    <       0.80818068 Ry

     total magnetization       =     0.00     0.69     0.00 Bohr mag/cell
     absolute magnetization    =     0.75 Bohr mag/cell

     iteration #  3     ecut=    27.00 Ry     beta=0.70
     Davidson diagonalization with overlap
     ethr =  6.00E-03,  avg # of iterations =  1.1

 ==============================================================================
     atom number    1 relative position :    0.0000   0.0000   0.0000
     charge :     8.734672
     magnetization :          0.000000    0.685571    0.000000
     magnetization/charge:    0.000000    0.078488    0.000000
     polar coord.: r, theta, phi [deg] :     0.685571   90.000000   90.000000

 ==============================================================================

     total cpu time spent up to now is        2.8 secs

     total energy              =     -85.88839494 Ry
     Harris-Foulkes estimate   =     -85.86946715 Ry
     estimated scf accuracy    <       0.02469975 Ry

     total magnetization       =     0.00     0.86     0.00 Bohr mag/cell
     absolute magnetization    =     1.01 Bohr mag/cell

     iteration #  4     ecut=    27.00 Ry     beta=0.70
     Davidson diagonalization with overlap
     ethr =  2.47E-04,  avg # of iterations =  1.5

 ==============================================================================
     atom number    1 relative position :    0.0000   0.0000   0.0000
     charge :     8.735772
     magnetization :          0.000000    0.728669    0.000000
     magnetization/charge:    0.000000    0.083412    0.000000
     polar coord.: r, theta, phi [deg] :     0.728669   90.000000   90.000000

 ==============================================================================

     total cpu time spent up to now is        3.3 secs

     total energy              =     -85.89653344 Ry
     Harris-Foulkes estimate   =     -85.89640673 Ry
     estimated scf accuracy    <       0.00054177 Ry

     total magnetization       =     0.00     0.69     0.00 Bohr mag/cell
     absolute magnetization    =     0.82 Bohr mag/cell

     iteration #  5     ecut=    27.00 Ry     beta=0.70
     Davidson diagonalization with overlap
     ethr =  5.42E-06,  avg # of iterations =  2.8

 ==============================================================================
     atom number    1 relative position :    0.0000   0.0000   0.0000
     charge :     8.739437
     magnetization :          0.000000    0.733385    0.000000
     magnetization/charge:    0.000000    0.083917    0.000000
     polar coord.: r, theta, phi [deg] :     0.733385   90.000000   90.000000

 ==============================================================================

     total cpu time spent up to now is        3.9 secs

     total energy              =     -85.89674715 Ry
     Harris-Foulkes estimate   =     -85.89669690 Ry
     estimated scf accuracy    <       0.00002095 Ry

     total magnetization       =     0.00     0.69     0.00 Bohr mag/cell
     absolute magnetization    =     0.80 Bohr mag/cell

     iteration #  6     ecut=    27.00 Ry     beta=0.70
     Davidson diagonalization with overlap
     ethr =  2.09E-07,  avg # of iterations =  2.0

 ==============================================================================
     atom number    1 relative position :    0.0000   0.0000   0.0000
     charge :     8.739150
     magnetization :          0.000000    0.729293    0.000000
     magnetization/charge:    0.000000    0.083451    0.000000
     polar coord.: r, theta, phi [deg] :     0.729293   90.000000   90.000000

 ==============================================================================

     total cpu time spent up to now is        4.4 secs

     total energy              =     -85.89676737 Ry
     Harris-Foulkes estimate   =     -85.89676402 Ry
     estimated scf accuracy    <       0.00000491 Ry

     total magnetization       =     0.00     0.69     0.00 Bohr mag/cell
     absolute magnetization    =     0.79 Bohr mag/cell

     iteration #  7     ecut=    27.00 Ry     beta=0.70
     Davidson diagonalization with overlap
     ethr =  4.91E-08,  avg # of iterations =  1.9

 ==============================================================================
     atom number    1 relative position :    0.0000   0.0000   0.0000
     charge :     8.738981
     magnetization :          0.000000    0.733772    0.000000
     magnetization/charge:    0.000000    0.083965    0.000000
     polar coord.: r, theta, phi [deg] :     0.733772   90.000000   90.000000

 ==============================================================================

     total cpu time spent up to now is        4.9 secs

     total energy              =     -85.89676953 Ry
     Harris-Foulkes estimate   =     -85.89676882 Ry
     estimated scf accuracy    <       0.00000107 Ry

     total magnetization       =     0.00     0.69     0.00 Bohr mag/cell
     absolute magnetization    =     0.79 Bohr mag/cell

     iteration #  8     ecut=    27.00 Ry     beta=0.70
     Davidson diagonalization with overlap
     ethr =  1.07E-08,  avg # of iterations =  2.2

 ==============================================================================
     atom number    1 relative position :    0.0000   0.0000   0.0000
     charge :     8.739177
     magnetization :          0.000000    0.730310    0.000000
     magnetization/charge:    0.000000    0.083567    0.000000
     polar coord.: r, theta, phi [deg] :     0.730310   90.000000   90.000000

 ==============================================================================

     total cpu time spent up to now is        5.4 secs

     total energy              =     -85.89676966 Ry
     Harris-Foulkes estimate   =     -85.89676977 Ry
     estimated scf accuracy    <       0.00000005 Ry

     total magnetization       =     0.00     0.69     0.00 Bohr mag/cell
     absolute magnetization    =     0.79 Bohr mag/cell

     iteration #  9     ecut=    27.00 Ry     beta=0.70
     Davidson diagonalization with overlap
     ethr =  4.75E-10,  avg # of iterations =  2.2

 ==============================================================================
     atom number    1 relative position :    0.0000   0.0000   0.0000
     charge :     8.739026
     magnetization :          0.000000    0.733000    0.000000
     magnetization/charge:    0.000000    0.083877    0.000000
     polar coord.: r, theta, phi [deg] :     0.733000   90.000000   90.000000

 ==============================================================================

     total cpu time spent up to now is        5.9 secs

     total energy              =     -85.89676981 Ry
     Harris-Foulkes estimate   =     -85.89676970 Ry
     estimated scf accuracy    <       0.00000021 Ry

     total magnetization       =     0.00     0.69     0.00 Bohr mag/cell
     absolute magnetization    =     0.79 Bohr mag/cell

     iteration # 10     ecut=    27.00 Ry     beta=0.70
     Davidson diagonalization with overlap
     ethr =  4.75E-10,  avg # of iterations =  2.0

 ==============================================================================
     atom number    1 relative position :    0.0000   0.0000   0.0000
     charge :     8.739047
     magnetization :          0.000000    0.732641    0.000000
     magnetization/charge:    0.000000    0.083835    0.000000
     polar coord.: r, theta, phi [deg] :     0.732641   90.000000   90.000000

 ==============================================================================

     total cpu time spent up to now is        6.5 secs

     total energy              =     -85.89676983 Ry
     Harris-Foulkes estimate   =     -85.89676983 Ry
     estimated scf accuracy    <          4.0E-09 Ry

     total magnetization       =     0.00     0.69     0.00 Bohr mag/cell
     absolute magnetization    =     0.79 Bohr mag/cell

     iteration # 11     ecut=    27.00 Ry     beta=0.70
     Davidson diagonalization with overlap
     ethr =  4.00E-11,  avg # of iterations =  1.1

 ==============================================================================
     atom number    1 relative position :    0.0000   0.0000   0.0000
     charge :     8.739046
     magnetization :          0.000000    0.732678    0.000000
     magnetization/charge:    0.000000    0.083840    0.000000
     polar coord.: r, theta, phi [deg] :     0.732678   90.000000   90.000000

 ==============================================================================

     total cpu time spent up to now is        6.9 secs

     total energy              =     -85.89676983 Ry
     Harris-Foulkes estimate   =     -85.89676983 Ry
     estimated scf accuracy    <          9.5E-11 Ry

     total magnetization       =     0.00     0.69     0.00 Bohr mag/cell
     absolute magnetization    =     0.79 Bohr mag/cell

     iteration # 12     ecut=    27.00 Ry     beta=0.70
     Davidson diagonalization with overlap
     ethr =  9.48E-13,  avg # of iterations =  1.4

 ==============================================================================
     atom number    1 relative position :    0.0000   0.0000   0.0000
     charge :     8.739045
     magnetization :          0.000000    0.732691    0.000000
     magnetization/charge:    0.000000    0.083841    0.000000
     polar coord.: r, theta, phi [deg] :     0.732691   90.000000   90.000000

 ==============================================================================

     total cpu time spent up to now is        7.4 secs

     total energy              =     -85.89676983 Ry
     Harris-Foulkes estimate   =     -85.89676983 Ry
     estimated scf accuracy    <          6.4E-12 Ry

     total magnetization       =     0.00     0.69     0.00 Bohr mag/cell
     absolute magnetization    =     0.79 Bohr mag/cell

     iteration # 13     ecut=    27.00 Ry     beta=0.70
     Davidson diagonalization with overlap
     ethr =  1.00E-13,  avg # of iterations =  1.1

 ==============================================================================
     atom number    1 relative position :    0.0000   0.0000   0.0000
     charge :     8.739045
     magnetization :          0.000000    0.732691    0.000000
     magnetization/charge:    0.000000    0.083841    0.000000
     polar coord.: r, theta, phi [deg] :     0.732691   90.000000   90.000000

 ==============================================================================

     total cpu time spent up to now is        7.8 secs

     End of self-consistent calculation

          k =-0.1250 0.1250 0.1250 (   172 PWs)   bands (ev):

     5.8245   5.8691  11.5861  11.8445  11.8445  12.4414  12.7266  12.7266
    12.8767  12.8767  13.5943  13.5943  35.2154  35.2396  38.9858  39.1149
    41.0571  41.0571

          k =-0.3750 0.3750-0.1250 (   171 PWs)   bands (ev):

     8.5760   8.6214  11.2604  11.8472  11.9888  12.1422  12.5911  12.7665
    12.9254  13.5913  13.6868  14.4941  27.1066  27.2783  32.6468  32.7147
    39.6089  39.6745

          k = 0.3750-0.3750 0.6250 (   172 PWs)   bands (ev):

     9.6700  10.1807  11.5294  11.9963  12.1361  12.2060  12.7457  12.7903
    13.5684  14.4652  15.4905  15.8884  20.5037  20.9014  33.7471  33.7528
    36.0292  36.0975

          k = 0.1250-0.1250 0.3750 (   169 PWs)   bands (ev):

     7.3337   7.3627  11.1872  11.9947  12.0404  12.1506  12.7075  12.8314
    13.0158  13.1524  13.4830  13.9135  31.2713  31.3758  36.2547  36.3334
    36.7659  36.8252

          k =-0.1250 0.6250 0.1250 (   178 PWs)   bands (ev):

     9.3897   9.5393  10.5910  11.3395  12.0588  12.7030  12.7242  13.4952
    13.5714  13.7975  14.3251  14.5126  28.1586  28.2786  31.5089  31.5783
    32.3303  32.3843

          k = 0.6250-0.1250 0.8750 (   179 PWs)   bands (ev):

    10.3963  10.6511  10.8787  11.3192  11.6342  12.3413  12.9296  13.5295
    13.6405  14.5087  19.0430  19.3202  22.3295  22.5344  26.0132  26.1700
    28.3127  28.4085

          k = 0.3750 0.1250 0.6250 (   174 PWs)   bands (ev):

    10.0199  10.3483  11.0650  11.4389  11.6736  12.1542  12.5045  13.2468
    13.2529  14.1294  15.3183  15.9155  24.0962  24.3089  29.7577  29.8492
    32.8995  32.9695

          k =-0.1250-0.8750 0.1250 (   176 PWs)   bands (ev):

     9.7868  10.1746  10.2063  10.8927  12.8808  13.3187  13.6373  13.6496
    14.1046  14.5799  16.7912  17.0376  24.9832  25.1826  26.3768  26.4723
    30.0889  30.1026

          k =-0.3750 0.3750 0.3750 (   174 PWs)   bands (ev):

     9.0495   9.3301  11.8388  11.8388  12.3406  12.5970  12.5970  12.6754
    13.3545  13.3545  14.2216  14.2216  23.0055  23.2883  36.9017  37.0640
    39.2803  39.2803

          k = 0.3750-0.3750 1.1250 (   176 PWs)   bands (ev):

    10.3742  10.9676  11.0277  11.5077  11.5679  12.2770  12.5161  13.2421
    13.2830  14.2140  17.7603  18.1048  21.2405  21.5392  27.2399  27.3701
    34.3340  34.3960

          k = 0.3750-0.1250-0.3750 (   171 PWs)   bands (ev):

     8.5760   8.6214  11.2604  11.8472  11.9888  12.1422  12.5911  12.7665
    12.9254  13.5913  13.6868  14.4941  27.1066  27.2783  32.6468  32.7147
    39.6089  39.6745

          k =-0.3750 0.6250 0.3750 (   172 PWs)   bands (ev):

     9.6700  10.1807  11.5294  11.9963  12.1361  12.2060  12.7457  12.7903
    13.5684  14.4652  15.4905  15.8884  20.5037  20.9014  33.7471  33.7528
    36.0292  37.2115

          k =-0.1250 0.3750 0.1250 (   169 PWs)   bands (ev):

     7.3337   7.3627  11.1872  11.9947  12.0404  12.1506  12.7075  12.8314
    13.0158  13.1524  13.4830  13.9135  31.2713  31.3758  36.2547  36.3334
    36.7659  36.8252

          k = 0.6250 0.1250-0.1250 (   178 PWs)   bands (ev):

     9.3897   9.5393  10.5910  11.3395  12.0588  12.7030  12.7242  13.4952
    13.5714  13.7975  14.3251  14.5126  28.1586  28.2786  31.5089  31.5783
    32.3303  32.3843

          k =-0.1250 0.8750 0.6250 (   179 PWs)   bands (ev):

    10.3963  10.6511  10.8787  11.3192  11.6342  12.3413  12.9296  13.5295
    13.6405  14.5087  19.0430  19.3202  22.3295  22.5344  26.0132  26.1700
    28.3127  28.4085

          k = 0.8750 0.6250-0.1250 (   179 PWs)   bands (ev):

    10.3963  10.6511  10.8787  11.3192  11.6342  12.3413  12.9296  13.5295
    13.6405  14.5087  19.0430  19.3202  22.3295  22.5344  26.0132  26.1700
    28.3127  28.4085

          k = 0.1250 0.6250 0.3750 (   174 PWs)   bands (ev):

    10.0199  10.3483  11.0650  11.4389  11.6736  12.1542  12.5045  13.2468
    13.2529  14.1294  15.3183  15.9155  24.0962  24.3089  29.7577  29.8492
    32.8995  32.9695

          k = 0.6250 0.3750 0.1250 (   174 PWs)   bands (ev):

    10.0199  10.3483  11.0650  11.4389  11.6736  12.1542  12.5045  13.2468
    13.2529  14.1294  15.3183  15.9155  24.0962  24.3089  29.7577  29.8492
    32.8995  32.9695

          k =-0.8750 0.1250-0.1250 (   176 PWs)   bands (ev):

     9.7868  10.1746  10.2063  10.8927  12.8808  13.3187  13.6373  13.6496
    14.1046  14.5799  16.7912  17.0376  24.9832  25.1826  26.3768  26.4723
    30.0889  30.1026

          k =-0.3750 1.1250 0.3750 (   176 PWs)   bands (ev):

    10.3742  10.9676  11.0277  11.5077  11.5679  12.2770  12.5161  13.2421
    13.2830  14.2140  17.7603  18.1048  21.2405  21.5392  27.2399  27.3701
    34.3340  34.3960

     the Fermi energy is    14.2797 ev

!    total energy              =     -85.89676983 Ry
     Harris-Foulkes estimate   =     -85.89676983 Ry
     estimated scf accuracy    <          2.0E-15 Ry

     The total energy is the sum of the following terms:

     one-electron contribution =      -2.06718650 Ry
     hartree contribution      =      15.23678481 Ry
     xc contribution           =     -30.12083707 Ry
     ewald contribution        =     -68.94529435 Ry
     smearing contrib. (-TS)   =      -0.00023673 Ry

     total magnetization       =     0.00     0.69     0.00 Bohr mag/cell
     absolute magnetization    =     0.79 Bohr mag/cell

     convergence has been achieved in  13 iterations

     Forces acting on atoms (Ry/au):

     atom    1 type  1   force =     0.00000000    0.00000000    0.00000000

     Total force =     0.000000     Total SCF correction =     0.000000

     Writing output data file ni.save
 
     init_run     :      0.94s CPU      1.02s WALL (       1 calls)
     electrons    :      6.34s CPU      6.78s WALL (       1 calls)
     forces       :      0.16s CPU      0.17s WALL (       1 calls)

     Called by init_run:
     wfcinit      :      0.10s CPU      0.13s WALL (       1 calls)
     potinit      :      0.05s CPU      0.05s WALL (       1 calls)

     Called by electrons:
     c_bands      :      3.77s CPU      4.00s WALL (      13 calls)
     sum_band     :      1.48s CPU      1.56s WALL (      13 calls)
     v_of_rho     :      0.56s CPU      0.61s WALL (      14 calls)
     newd         :      0.37s CPU      0.39s WALL (      14 calls)
     mix_rho      :      0.07s CPU      0.07s WALL (      13 calls)

     Called by c_bands:
     init_us_2    :      0.04s CPU      0.05s WALL (     560 calls)
     cegterg      :      3.60s CPU      3.78s WALL (     260 calls)

     Called by *egterg:
     h_psi        :      2.34s CPU      2.44s WALL (     797 calls)
     s_psi        :      0.08s CPU      0.10s WALL (     797 calls)
     g_psi        :      0.09s CPU      0.09s WALL (     517 calls)
     cdiaghg      :      0.55s CPU      0.68s WALL (     777 calls)

     Called by h_psi:
     add_vuspsi   :      0.09s CPU      0.11s WALL (     797 calls)

     General routines
     calbec       :      0.11s CPU      0.12s WALL (    1077 calls)
     fft          :      0.26s CPU      0.26s WALL (     687 calls)
     ffts         :      0.00s CPU      0.01s WALL (     108 calls)
     fftw         :      1.62s CPU      1.76s WALL (   53104 calls)
     interpolate  :      0.05s CPU      0.06s WALL (     108 calls)
     davcio       :      0.05s CPU      0.05s WALL (     820 calls)
 
 
     PWSCF        :     7.57s CPU         8.14s WALL

 
   This run was terminated on:  16:12:30   6Dec2012            

=------------------------------------------------------------------------------=
   JOB DONE.
=------------------------------------------------------------------------------=
