
     Program PHONON v.6.beta (svn rev. 13009) starts on 23Sep2016 at 12: 1:13 

     This program is part of the open-source Quantum ESPRESSO suite
     for quantum simulation of materials; please cite
         "P. Giannozzi et al., J. Phys.:Condens. Matter 21 395502 (2009);
          URL http://www.quantum-espresso.org", 
     in publications or presentations arising from this work. More details at
     http://www.quantum-espresso.org/quote

           HOST :    @host@
           ARCH :    x86_64
             CC :    cc
            CPP :    cpp
            F90 :    mpif90
            F77 :    gfortran
         DFLAGS :    -D__GFORTRAN -D__STD_F95 -D__FFTW -D__MPI
      BLAS LIBS :    
    LAPACK LIBS :    $(TOPDIR)/LAPACK/liblapack.a $(TOPDIR)/LAPACK/libblas.a
       FFT LIBS :    
      MASS LIBS :    

     Parallel version (MPI), running on     2 processors
     R & G space division:  proc/nbgrp/npool/nimage =       2

     Reading data from directory:
     /home/pietro/trunk/espresso/tempdir/ni_so.save

   Info: using nr1, nr2, nr3 values from input

   Info: using nr1, nr2, nr3 values from input

     IMPORTANT: XC functional enforced from input :
     Exchange-correlation      =  SLA  PW   PBX  PBC ( 1  4  3  4 0 0)
     Any further DFT definition will be discarded
     Please, verify this is what you really want


     Parallelization info
     --------------------
     sticks:   dense  smooth     PW     G-vecs:    dense   smooth      PW
     Min         225      81     30                 3210      705     165
     Max         226      82     31                 3213      706     166
     Sum         451     163     61                 6423     1411     331


     Check: negative/imaginary core charge=   -0.000003    0.000000

     Calculation of q =    0.0000000   0.0000000   1.0000000

   Info: using nr1, nr2, nr3 values from input

   Info: using nr1, nr2, nr3 values from input

     Parallelization info
     --------------------
     sticks:   dense  smooth     PW     G-vecs:    dense   smooth      PW
     Min         225      81     42                 3210      705     264
     Max         226      82     43                 3213      706     267
     Sum         451     163     85                 6423     1411     531



     bravais-lattice index     =            2
     lattice parameter (alat)  =       6.6500  a.u.
     unit-cell volume          =      73.5199 (a.u.)^3
     number of atoms/cell      =            1
     number of atomic types    =            1
     number of electrons       =        10.00
     number of Kohn-Sham states=           18
     kinetic-energy cutoff     =      27.0000  Ry
     charge density cutoff     =     300.0000  Ry
     Exchange-correlation      =  SLA  PW   PBX  PBC ( 1  4  3  4 0 0)
     Noncollinear calculation with spin-orbit


     celldm(1)=   6.650000  celldm(2)=   0.000000  celldm(3)=   0.000000
     celldm(4)=   0.000000  celldm(5)=   0.000000  celldm(6)=   0.000000

     crystal axes: (cart. coord. in units of alat)
               a(1) = (  -0.500000   0.000000   0.500000 )  
               a(2) = (   0.000000   0.500000   0.500000 )  
               a(3) = (  -0.500000   0.500000   0.000000 )  

     reciprocal axes: (cart. coord. in units 2 pi/alat)
               b(1) = ( -1.000000 -1.000000  1.000000 )  
               b(2) = (  1.000000  1.000000  1.000000 )  
               b(3) = ( -1.000000  1.000000 -1.000000 )  


     PseudoPot. # 1 for Ni read from file:
     /home/pietro/trunk/espresso/pseudo/Ni.rel-pbe-nd-rrkjus.UPF
     MD5 check sum: 7e778555a9140027a2981034861e5d4c
     Pseudo is Ultrasoft + core correction, Zval = 10.0
     Generated by new atomic code, or converted to UPF format
     Using radial grid of 1195 points, 10 beta functions with: 
                l(1) =   0
                l(2) =   0
                l(3) =   1
                l(4) =   1
                l(5) =   1
                l(6) =   1
                l(7) =   2
                l(8) =   2
                l(9) =   2
               l(10) =   2
     Q(r) pseudized with 0 coefficients 


     atomic species   valence    mass     pseudopotential
        Ni            10.00    58.69340     Ni( 1.00)

     16 Sym. Ops., with inversion, found



   Cartesian axes

     site n.     atom                  positions (alat units)
         1           Ni  tau(   1) = (   0.0000000   0.0000000   0.0000000  )

     number of k points=   216  Marzari-Vanderbilt smearing, width (Ry)=  0.0200

     Number of k-points >= 100: set verbosity='high' to print them.

     Dense  grid:     6423 G-vectors     FFT dimensions: (  27,  27,  27)

     Smooth grid:     1411 G-vectors     FFT dimensions: (  15,  15,  15)

     Estimated max dynamical RAM per process >       3.09Mb

     Estimated total allocated dynamical RAM >       6.17Mb

     Check: negative/imaginary core charge=   -0.000003    0.000000

     The potential is recalculated from file :
     /home/pietro/trunk/espresso/tempdir/_ph0/ni_so.save/charge-density.dat

     Starting wfc are   12 atomic +    6 random wfc

     Band Structure Calculation
     Davidson diagonalization with overlap

     ethr =  1.00E-10,  avg # of iterations = 13.9

     total cpu time spent up to now is       13.3 secs

     End of band structure calculation

     Number of k-points >= 100: set verbosity='high' to print the bands.

     the Fermi energy is    14.2641 ev

     Writing output data file ni_so.save

     Fixed quantization axis for GGA:     1.000000    0.000000    0.000000

                                                                                

     bravais-lattice index     =            2
     lattice parameter (alat)  =       6.6500  a.u.
     unit-cell volume          =      73.5199 (a.u.)^3
     number of atoms/cell      =            1
     number of atomic types    =            1
     kinetic-energy cut-off    =      27.0000  Ry
     charge density cut-off    =     300.0000  Ry
     convergence threshold     =      1.0E-14
     beta                      =       0.7000
     number of iterations used =            4
     Exchange-correlation      =  SLA  PW   PBX  PBC ( 1  4  3  4 0 0)
     Noncollinear calculation with spin-orbit

     celldm(1)=    6.65000  celldm(2)=    0.00000  celldm(3)=    0.00000
     celldm(4)=    0.00000  celldm(5)=    0.00000  celldm(6)=    0.00000

     crystal axes: (cart. coord. in units of alat)
               a(1) = ( -0.5000  0.0000  0.5000 )  
               a(2) = (  0.0000  0.5000  0.5000 )  
               a(3) = ( -0.5000  0.5000  0.0000 )  

     reciprocal axes: (cart. coord. in units 2 pi/alat)
               b(1) = ( -1.0000 -1.0000  1.0000 )  
               b(2) = (  1.0000  1.0000  1.0000 )  
               b(3) = ( -1.0000  1.0000 -1.0000 )  


     Atoms inside the unit cell: 

     Cartesian axes

     site n.  atom      mass           positions (alat units)
        1     Ni  58.6934   tau(    1) = (    0.00000    0.00000    0.00000  )

     Computing dynamical matrix for 
                    q = (   0.0000000   0.0000000   1.0000000 )

      8 Sym.Ops. (no q -> -q+G )


     G cutoff =  336.0507  (   3213 G-vectors)     FFT grid: ( 27, 27, 27)
     G cutoff =  120.9783  (    705 G-vectors)  smooth grid: ( 15, 15, 15)

     number of k points=   216  Marzari-Vanderbilt smearing, width (Ry)=  0.0200

     PseudoPot. # 1 for Ni read from file:
     /home/pietro/trunk/espresso/pseudo/Ni.rel-pbe-nd-rrkjus.UPF
     MD5 check sum: 7e778555a9140027a2981034861e5d4c
     Pseudo is Ultrasoft + core correction, Zval = 10.0
     Generated by new atomic code, or converted to UPF format
     Using radial grid of 1195 points, 10 beta functions with: 
                l(1) =   0
                l(2) =   0
                l(3) =   1
                l(4) =   1
                l(5) =   1
                l(6) =   1
                l(7) =   2
                l(8) =   2
                l(9) =   2
               l(10) =   2
     Q(r) pseudized with 0 coefficients 


     Mode symmetry, D_2h (mmm)  point group:


     Atomic displacements:
     There are   3 irreducible representations

     Representation     1      1 modes -B_1u  To be done

     Representation     2      1 modes -B_2u  To be done

     Representation     3      1 modes -B_3u  To be done



     Alpha used in Ewald sum =   2.8000
     PHONON       :    25.18s CPU        25.43s WALL



     Representation #  1 mode #   1

     Self-consistent Calculation

      iter #   1 total cpu time :    28.2 secs   av.it.:   5.3
      thresh= 1.000E-02 alpha_mix =  0.700 |ddv_scf|^2 =  5.428E-05

      iter #   2 total cpu time :    30.9 secs   av.it.:   8.5
      thresh= 7.367E-04 alpha_mix =  0.700 |ddv_scf|^2 =  3.157E-05

      iter #   3 total cpu time :    33.4 secs   av.it.:   7.9
      thresh= 5.619E-04 alpha_mix =  0.700 |ddv_scf|^2 =  3.066E-09

      iter #   4 total cpu time :    36.0 secs   av.it.:   8.2
      thresh= 5.537E-06 alpha_mix =  0.700 |ddv_scf|^2 =  4.018E-11

      iter #   5 total cpu time :    38.4 secs   av.it.:   7.7
      thresh= 6.339E-07 alpha_mix =  0.700 |ddv_scf|^2 =  1.249E-12

      iter #   6 total cpu time :    40.9 secs   av.it.:   7.8
      thresh= 1.118E-07 alpha_mix =  0.700 |ddv_scf|^2 =  2.394E-14

      iter #   7 total cpu time :    43.5 secs   av.it.:   8.1
      thresh= 1.547E-08 alpha_mix =  0.700 |ddv_scf|^2 =  3.158E-16

     End of self-consistent calculation

     Convergence has been achieved 


     Representation #  2 mode #   2

     Self-consistent Calculation

      iter #   1 total cpu time :    46.5 secs   av.it.:   4.6
      thresh= 1.000E-02 alpha_mix =  0.700 |ddv_scf|^2 =  6.421E-06

      iter #   2 total cpu time :    49.1 secs   av.it.:   8.5
      thresh= 2.534E-04 alpha_mix =  0.700 |ddv_scf|^2 =  2.440E-07

      iter #   3 total cpu time :    51.8 secs   av.it.:   8.4
      thresh= 4.939E-05 alpha_mix =  0.700 |ddv_scf|^2 =  9.898E-10

      iter #   4 total cpu time :    54.3 secs   av.it.:   8.0
      thresh= 3.146E-06 alpha_mix =  0.700 |ddv_scf|^2 =  3.908E-12

      iter #   5 total cpu time :    56.8 secs   av.it.:   7.7
      thresh= 1.977E-07 alpha_mix =  0.700 |ddv_scf|^2 =  2.441E-13

      iter #   6 total cpu time :    59.3 secs   av.it.:   7.9
      thresh= 4.940E-08 alpha_mix =  0.700 |ddv_scf|^2 =  1.510E-14

      iter #   7 total cpu time :    61.9 secs   av.it.:   8.1
      thresh= 1.229E-08 alpha_mix =  0.700 |ddv_scf|^2 =  1.264E-16

     End of self-consistent calculation

     Convergence has been achieved 


     Representation #  3 mode #   3

     Self-consistent Calculation

      iter #   1 total cpu time :    64.8 secs   av.it.:   4.6
      thresh= 1.000E-02 alpha_mix =  0.700 |ddv_scf|^2 =  6.421E-06

      iter #   2 total cpu time :    67.5 secs   av.it.:   8.5
      thresh= 2.534E-04 alpha_mix =  0.700 |ddv_scf|^2 =  2.441E-07

      iter #   3 total cpu time :    70.2 secs   av.it.:   8.4
      thresh= 4.941E-05 alpha_mix =  0.700 |ddv_scf|^2 =  9.989E-10

      iter #   4 total cpu time :    72.7 secs   av.it.:   8.1
      thresh= 3.161E-06 alpha_mix =  0.700 |ddv_scf|^2 =  5.563E-12

      iter #   5 total cpu time :    75.2 secs   av.it.:   7.7
      thresh= 2.359E-07 alpha_mix =  0.700 |ddv_scf|^2 =  4.457E-13

      iter #   6 total cpu time :    77.7 secs   av.it.:   7.9
      thresh= 6.676E-08 alpha_mix =  0.700 |ddv_scf|^2 =  2.586E-14

      iter #   7 total cpu time :    80.3 secs   av.it.:   8.1
      thresh= 1.608E-08 alpha_mix =  0.700 |ddv_scf|^2 =  1.845E-16

     End of self-consistent calculation

     Convergence has been achieved 

     Number of q in the star =    2
     List of q in the star:
          1   0.000000000   0.000000000   1.000000000
          2   0.000000000   1.000000000   0.000000000

     Diagonalizing the dynamical matrix

     q = (    0.000000000   0.000000000   1.000000000 ) 

 **************************************************************************
     freq (    1) =       6.196849 [THz] =     206.704618 [cm-1]
     freq (    2) =       6.204897 [THz] =     206.973096 [cm-1]
     freq (    3) =       8.470138 [THz] =     282.533394 [cm-1]
 **************************************************************************

     Mode symmetry, D_2h (mmm)  [C_2h (2/m) ] magnetic point group:

     freq (  1 -  1) =        206.7  [cm-1]   --> B_3u               
     freq (  2 -  2) =        207.0  [cm-1]   --> B_2u               
     freq (  3 -  3) =        282.5  [cm-1]   --> B_1u               

     init_run     :      0.60s CPU      0.60s WALL (       1 calls)
     electrons    :     12.46s CPU     12.66s WALL (       1 calls)

     Called by init_run:
     wfcinit      :      0.00s CPU      0.00s WALL (       1 calls)
     potinit      :      0.03s CPU      0.03s WALL (       1 calls)

     Called by electrons:
     c_bands      :     12.45s CPU     12.66s WALL (       1 calls)
     v_of_rho     :      0.05s CPU      0.05s WALL (       2 calls)
     newd         :      0.20s CPU      0.21s WALL (       2 calls)

     Called by c_bands:
     init_us_2    :      0.16s CPU      0.17s WALL (    3240 calls)
     cegterg      :     11.63s CPU     11.81s WALL (     219 calls)

     Called by sum_band:

     Called by *egterg:
     h_psi        :     31.62s CPU     32.51s WALL (   24454 calls)
     s_psi        :      7.58s CPU      7.94s WALL (   47744 calls)
     g_psi        :      0.03s CPU      0.03s WALL (    2997 calls)
     cdiaghg      :      3.60s CPU      3.63s WALL (    3213 calls)

     Called by h_psi:
     h_psi:pot    :     31.54s CPU     32.38s WALL (   24454 calls)
     h_psi:calbec :      3.02s CPU      2.97s WALL (   24454 calls)
     vloc_psi     :     25.19s CPU     25.90s WALL (   24454 calls)
     add_vuspsi   :      3.30s CPU      3.46s WALL (   24454 calls)

     General routines
     calbec       :      7.12s CPU      7.05s WALL (   53144 calls)
     fft          :      0.28s CPU      0.29s WALL (    1132 calls)
     ffts         :      0.01s CPU      0.02s WALL (     524 calls)
     fftw         :     24.57s CPU     25.19s WALL ( 1166208 calls)
     interpolate  :      0.04s CPU      0.05s WALL (     188 calls)
     davcio       :      0.25s CPU      0.28s WALL (   12387 calls)

     Parallel routines
     fft_scatter  :      4.90s CPU      5.29s WALL ( 1167864 calls)

     PHONON       :  1m18.78s CPU     1m20.59s WALL

     INITIALIZATION: 
     phq_setup    :      0.16s CPU      0.15s WALL (       1 calls)
     phq_init     :     10.65s CPU     10.66s WALL (       1 calls)

     phq_init     :     10.65s CPU     10.66s WALL (       1 calls)
     set_drhoc    :      0.20s CPU      0.20s WALL (       3 calls)
     init_vloc    :      0.01s CPU      0.01s WALL (       2 calls)
     init_us_1    :      1.06s CPU      1.07s WALL (       2 calls)
     newd         :      0.20s CPU      0.21s WALL (       2 calls)
     dvanqq       :      0.41s CPU      0.41s WALL (       1 calls)
     drho         :      9.07s CPU      9.08s WALL (       1 calls)

     DYNAMICAL MATRIX:
     dynmat0      :      0.93s CPU      0.93s WALL (       1 calls)
     phqscf       :     53.58s CPU     55.16s WALL (       1 calls)
     dynmatrix    :      0.00s CPU      0.00s WALL (       1 calls)

     phqscf       :     53.58s CPU     55.16s WALL (       1 calls)
     solve_linter :     52.70s CPU     54.27s WALL (       3 calls)
     drhodv       :      0.88s CPU      0.89s WALL (       3 calls)

     dynmat0      :      0.93s CPU      0.93s WALL (       1 calls)
     dynmat_us    :      0.77s CPU      0.77s WALL (       1 calls)
     d2ionq       :      0.00s CPU      0.00s WALL (       1 calls)
     dynmatcc     :      0.15s CPU      0.15s WALL (       1 calls)

     dynmat_us    :      0.77s CPU      0.77s WALL (       1 calls)
     addusdynmat  :      0.01s CPU      0.01s WALL (       1 calls)

     phqscf       :     53.58s CPU     55.16s WALL (       1 calls)
     solve_linter :     52.70s CPU     54.27s WALL (       3 calls)

     solve_linter :     52.70s CPU     54.27s WALL (       3 calls)
     dvqpsi_us    :      2.95s CPU      2.98s WALL (     324 calls)
     ortho        :      1.54s CPU      1.63s WALL (    2268 calls)
     cgsolve      :     37.46s CPU     38.56s WALL (    2268 calls)
     incdrhoscf   :      3.56s CPU      3.74s WALL (    2268 calls)
     addusddens   :      1.62s CPU      1.61s WALL (      24 calls)
     vpsifft      :      2.20s CPU      2.23s WALL (    1944 calls)
     dv_of_drho   :      0.30s CPU      0.30s WALL (      21 calls)
     mix_pot      :      0.05s CPU      0.06s WALL (      21 calls)
     psymdvscf    :      0.13s CPU      0.15s WALL (      21 calls)
     newdq        :      1.37s CPU      1.38s WALL (      21 calls)
     adddvscf     :      0.89s CPU      0.95s WALL (    1944 calls)
     drhodvus     :      0.00s CPU      0.00s WALL (       3 calls)

     dvqpsi_us    :      2.95s CPU      2.98s WALL (     324 calls)
     dvqpsi_us_on :      2.37s CPU      2.40s WALL (     324 calls)

     cgsolve      :     37.46s CPU     38.56s WALL (    2268 calls)
     ch_psi       :     36.89s CPU     37.95s WALL (   21022 calls)

     ch_psi       :     36.89s CPU     37.95s WALL (   21022 calls)
     last         :      7.38s CPU      7.46s WALL (   21022 calls)

     add_vuspsi   :      3.30s CPU      3.46s WALL (   24454 calls)

     incdrhoscf   :      3.56s CPU      3.74s WALL (    2268 calls)

     drhodvus     :      0.00s CPU      0.00s WALL (       3 calls)

      General routines
     calbec       :      7.12s CPU      7.05s WALL (   53144 calls)
     fft          :      0.28s CPU      0.29s WALL (    1132 calls)
     ffts         :      0.01s CPU      0.02s WALL (     524 calls)
     fftw         :     24.57s CPU     25.19s WALL ( 1166208 calls)
     davcio       :      0.25s CPU      0.28s WALL (   12387 calls)
     write_rec    :      0.04s CPU      0.05s WALL (      24 calls)


     PHONON       :  1m18.78s CPU     1m20.59s WALL


   This run was terminated on:  12: 2:34  23Sep2016            

=------------------------------------------------------------------------------=
   JOB DONE.
=------------------------------------------------------------------------------=
