                                                                                      
                                       ``:oss/                                        
                           `.+s+.     .+ys--yh+     `./ss+.                           
                          -sh//yy+`   +yy   +yy    -+h+-oyy                           
                          -yh- .oyy/.-sh.   .syo-.:sy-  /yh                           
                 `.-.`    `yh+   -oyyyo.     `/syys:    oys      `.`                  
               `/+ssys+-` `sh+      `                   oys`   .:osyo`                
               -yh- ./syyooyo`                          .sys+/oyo--yh/                
               `yy+    .-:-.                             `-/+/:`  -sh-                
                /yh.                                              oys                 
          ``..---hho---------`   .---------..`      `.-----.`    -hd+---.             
       `./osmNMMMMMMMMMMMMMMMs. +NNMMMMMMMMNNmh+.   yNMMMMMNm-  oNMMMMMNmo++:`        
       +sy--/sdMMMhyyyyyyyNMMh- .oyNMMmyyyyyhNMMm+` -yMMMdyyo:` .oyyNMMNhs+syy`       
       -yy/   /MMM+.`-+/``mMMy-   `mMMh:`````.dMMN:` `MMMy-`-dhhy```mMMy:``+hs        
        -yy+` /MMMo:-mMM+`-oo/.    mMMh:     `dMMN/`  dMMm:`dMMMMy..MMMo-.+yo`        
         .sys`/MMMMNNMMMs-         mMMmyooooymMMNo:   oMMM/sMMMMMM++MMN//oh:          
          `sh+/MMMhyyMMMs- `-`     mMMMMMMMMMNmy+-`   -MMMhMMMsmMMmdMMd/yy+           
    `-/+++oyy-/MMM+.`/hh/.`mNm:`   mMMd+/////:-.`      NMMMMMd/:NMMMMMy:/yyo/:.`      
   +os+//:-..-oMMMo:--:::-/MMMo. .-mMMd+---`           hMMMMN+. oMMMMMo. `-+osyso:`   
   syo     `mNMMMMMNNNNNNNNMMMo.oNNMMMMMNNNN:`         +MMMMs:`  dMMMN/`     ``:syo   
   /yh`     :syyyyyyyyyyyyyyyy+.`+syyyyyyyyo:`         .oyys:`   .oyys:`        +yh   
   -yh-        ````````````````    `````````              ``        ``          oys   
   -+h/------------------------::::::::://////++++++++++++++++++++++///////::::/yd:   
   shdddddddddddddddddddddddddddddhhhhhhhhyyyyyssssssssssssssssyyyyyyyhhhhhhhddddh`   
                                                                                      
  S. Ponce, E. R. Margine, C. Verdi, and F. Giustino,                                 
                                                Comput. Phys. Commun. 209, 116 (2016) 
                                                                                      

     Program EPW v.5.2.0 starts on 14Jul2020 at  8: 4: 6 

     This program is part of the open-source Quantum ESPRESSO suite
     for quantum simulation of materials; please cite
         "P. Giannozzi et al., J. Phys.:Condens. Matter 21 395502 (2009);
         "P. Giannozzi et al., J. Phys.:Condens. Matter 29 465901 (2017);
          URL http://www.quantum-espresso.org", 
     in publications or presentations arising from this work. More details at
     http://www.quantum-espresso.org/quote

     Parallel version (MPI), running on     4 processors

     MPI processes distributed on     1 nodes
     K-points division:     npool     =       4
     Fft bands division:     nmany     =       1

     Reading supplied temperature list.

     Reading xml data from directory:

     ./si.save/

     IMPORTANT: XC functional enforced from input :
     Exchange-correlation= PZ
                           (   1   1   0   0   0   0   0)
     Any further DFT definition will be discarded
     Please, verify this is what you really want


     G-vector sticks info
     --------------------
     sticks:   dense  smooth     PW     G-vecs:    dense   smooth      PW
     Sum         583     583    199                 9257     9257    1759

     Reading collected, re-writing distributed wavefunctions

     --                                                                         

     bravais-lattice index     =            2
     lattice parameter (a_0)   =      10.2620  a.u.
     unit-cell volume          =     270.1693 (a.u.)^3
     number of atoms/cell      =            2
     number of atomic types    =            1
     kinetic-energy cut-off    =      40.0000  Ry
     charge density cut-off    =     160.0000  Ry
     Exchange-correlation= PZ
                           (   1   1   0   0   0   0   0)


     celldm(1)=   10.26200  celldm(2)=    0.00000  celldm(3)=    0.00000
     celldm(4)=    0.00000  celldm(5)=    0.00000  celldm(6)=    0.00000

     crystal axes: (cart. coord. in units of a_0)
               a(1) = ( -0.5000  0.0000  0.5000 )  
               a(2) = (  0.0000  0.5000  0.5000 )  
               a(3) = ( -0.5000  0.5000  0.0000 )  

     reciprocal axes: (cart. coord. in units 2 pi/a_0)
               b(1) = ( -1.0000 -1.0000  1.0000 )  
               b(2) = (  1.0000  1.0000  1.0000 )  
               b(3) = ( -1.0000  1.0000 -1.0000 )  


     Atoms inside the unit cell: 

   Cartesian axes

     site n.  atom      mass           positions (a_0 units)
        1        Si  28.0855   tau( 1) = (    0.00000    0.00000    0.00000  )
        2        Si  28.0855   tau( 2) = (    0.25000    0.25000    0.25000  )

     49 Sym.Ops. (with q -> -q+G )


     G cutoff =  426.7999  (   9257 G-vectors)     FFT grid: ( 32, 32, 32)
     number of k points=   64
                       cart. coord. in units 2pi/a_0
        k(    1) = (   0.0000000   0.0000000   0.0000000), wk =   0.0312500
        k(    2) = (  -0.2500000   0.2500000  -0.2500000), wk =   0.0312500
        k(    3) = (  -0.5000000   0.5000000  -0.5000000), wk =   0.0312500
        k(    4) = (  -0.7500000   0.7500000  -0.7500000), wk =   0.0312500
        k(    5) = (   0.2500000   0.2500000   0.2500000), wk =   0.0312500
        k(    6) = (   0.0000000   0.5000000   0.0000000), wk =   0.0312500
        k(    7) = (  -0.2500000   0.7500000  -0.2500000), wk =   0.0312500
        k(    8) = (  -0.5000000   1.0000000  -0.5000000), wk =   0.0312500
        k(    9) = (   0.5000000   0.5000000   0.5000000), wk =   0.0312500
        k(   10) = (   0.2500000   0.7500000   0.2500000), wk =   0.0312500
        k(   11) = (   0.0000000   1.0000000   0.0000000), wk =   0.0312500
        k(   12) = (  -0.2500000   1.2500000  -0.2500000), wk =   0.0312500
        k(   13) = (   0.7500000   0.7500000   0.7500000), wk =   0.0312500
        k(   14) = (   0.5000000   1.0000000   0.5000000), wk =   0.0312500
        k(   15) = (   0.2500000   1.2500000   0.2500000), wk =   0.0312500
        k(   16) = (   0.0000000   1.5000000   0.0000000), wk =   0.0312500
        k(   17) = (  -0.2500000  -0.2500000   0.2500000), wk =   0.0312500
        k(   18) = (  -0.5000000   0.0000000   0.0000000), wk =   0.0312500
        k(   19) = (  -0.7500000   0.2500000  -0.2500000), wk =   0.0312500
        k(   20) = (  -1.0000000   0.5000000  -0.5000000), wk =   0.0312500
        k(   21) = (   0.0000000   0.0000000   0.5000000), wk =   0.0312500
        k(   22) = (  -0.2500000   0.2500000   0.2500000), wk =   0.0312500
        k(   23) = (  -0.5000000   0.5000000   0.0000000), wk =   0.0312500
        k(   24) = (  -0.7500000   0.7500000  -0.2500000), wk =   0.0312500
        k(   25) = (   0.2500000   0.2500000   0.7500000), wk =   0.0312500
        k(   26) = (   0.0000000   0.5000000   0.5000000), wk =   0.0312500
        k(   27) = (  -0.2500000   0.7500000   0.2500000), wk =   0.0312500
        k(   28) = (  -0.5000000   1.0000000   0.0000000), wk =   0.0312500
        k(   29) = (   0.5000000   0.5000000   1.0000000), wk =   0.0312500
        k(   30) = (   0.2500000   0.7500000   0.7500000), wk =   0.0312500
        k(   31) = (   0.0000000   1.0000000   0.5000000), wk =   0.0312500
        k(   32) = (  -0.2500000   1.2500000   0.2500000), wk =   0.0312500
        k(   33) = (  -0.5000000  -0.5000000   0.5000000), wk =   0.0312500
        k(   34) = (  -0.7500000  -0.2500000   0.2500000), wk =   0.0312500
        k(   35) = (  -1.0000000   0.0000000   0.0000000), wk =   0.0312500
        k(   36) = (  -1.2500000   0.2500000  -0.2500000), wk =   0.0312500
        k(   37) = (  -0.2500000  -0.2500000   0.7500000), wk =   0.0312500
        k(   38) = (  -0.5000000   0.0000000   0.5000000), wk =   0.0312500
        k(   39) = (  -0.7500000   0.2500000   0.2500000), wk =   0.0312500
        k(   40) = (  -1.0000000   0.5000000   0.0000000), wk =   0.0312500
        k(   41) = (   0.0000000   0.0000000   1.0000000), wk =   0.0312500
        k(   42) = (  -0.2500000   0.2500000   0.7500000), wk =   0.0312500
        k(   43) = (  -0.5000000   0.5000000   0.5000000), wk =   0.0312500
        k(   44) = (  -0.7500000   0.7500000   0.2500000), wk =   0.0312500
        k(   45) = (   0.2500000   0.2500000   1.2500000), wk =   0.0312500
        k(   46) = (   0.0000000   0.5000000   1.0000000), wk =   0.0312500
        k(   47) = (  -0.2500000   0.7500000   0.7500000), wk =   0.0312500
        k(   48) = (  -0.5000000   1.0000000   0.5000000), wk =   0.0312500
        k(   49) = (  -0.7500000  -0.7500000   0.7500000), wk =   0.0312500
        k(   50) = (  -1.0000000  -0.5000000   0.5000000), wk =   0.0312500
        k(   51) = (  -1.2500000  -0.2500000   0.2500000), wk =   0.0312500
        k(   52) = (  -1.5000000   0.0000000   0.0000000), wk =   0.0312500
        k(   53) = (  -0.5000000  -0.5000000   1.0000000), wk =   0.0312500
        k(   54) = (  -0.7500000  -0.2500000   0.7500000), wk =   0.0312500
        k(   55) = (  -1.0000000   0.0000000   0.5000000), wk =   0.0312500
        k(   56) = (  -1.2500000   0.2500000   0.2500000), wk =   0.0312500
        k(   57) = (  -0.2500000  -0.2500000   1.2500000), wk =   0.0312500
        k(   58) = (  -0.5000000   0.0000000   1.0000000), wk =   0.0312500
        k(   59) = (  -0.7500000   0.2500000   0.7500000), wk =   0.0312500
        k(   60) = (  -1.0000000   0.5000000   0.5000000), wk =   0.0312500
        k(   61) = (   0.0000000   0.0000000   1.5000000), wk =   0.0312500
        k(   62) = (  -0.2500000   0.2500000   1.2500000), wk =   0.0312500
        k(   63) = (  -0.5000000   0.5000000   1.0000000), wk =   0.0312500
        k(   64) = (  -0.7500000   0.7500000   0.7500000), wk =   0.0312500

     PseudoPot. # 1 for Si read from file:
     ../../pseudo/Si.pz-vbc.UPF
     MD5 check sum: 9f25e6ff280f3123e9b3a84715b2e9c9
     Pseudo is Norm-conserving, Zval =  4.0
     Generated by new atomic code, or converted to UPF format
     Using radial grid of  431 points,  2 beta functions with: 
                l(1) =   0
                l(2) =   1
     EPW          :      0.14s CPU      0.16s WALL

     EPW          :      0.20s CPU      0.21s WALL

     -------------------------------------------------------------------
     Wannierization on  4 x  4 x  4 electronic grid
     -------------------------------------------------------------------

     Spin CASE ( default = unpolarized )

     Initializing Wannier90


     Initial Wannier projections

     (   0.00000   0.00000   0.00000) :  l =  -3 mr =   1
     (   0.00000   0.00000   0.00000) :  l =  -3 mr =   2
     (   0.00000   0.00000   0.00000) :  l =  -3 mr =   3
     (   0.00000   0.00000   0.00000) :  l =  -3 mr =   4
     (  -0.25000   0.75000  -0.25000) :  l =  -3 mr =   1
     (  -0.25000   0.75000  -0.25000) :  l =  -3 mr =   2
     (  -0.25000   0.75000  -0.25000) :  l =  -3 mr =   3
     (  -0.25000   0.75000  -0.25000) :  l =  -3 mr =   4

      - Number of bands is (  8)
      - Number of total bands is (  8)
      - Number of excluded bands is (  0)
      - Number of wannier functions is (  8)
      - All guiding functions are given 

  Reading data about k-point neighbours 

      - All neighbours are found 

     AMN
      k points =    64 in    4 pools
            1 of   16 on ionode
            2 of   16 on ionode
            3 of   16 on ionode
            4 of   16 on ionode
            5 of   16 on ionode
            6 of   16 on ionode
            7 of   16 on ionode
            8 of   16 on ionode
            9 of   16 on ionode
           10 of   16 on ionode
           11 of   16 on ionode
           12 of   16 on ionode
           13 of   16 on ionode
           14 of   16 on ionode
           15 of   16 on ionode
           16 of   16 on ionode

     AMN calculated

     MMN
      k points =    64 in    4 pools
            1 of   16 on ionode
            2 of   16 on ionode
            3 of   16 on ionode
            4 of   16 on ionode
            5 of   16 on ionode
            6 of   16 on ionode
            7 of   16 on ionode
            8 of   16 on ionode
            9 of   16 on ionode
           10 of   16 on ionode
           11 of   16 on ionode
           12 of   16 on ionode
           13 of   16 on ionode
           14 of   16 on ionode
           15 of   16 on ionode
           16 of   16 on ionode
     MMN calculated

     Running Wannier90

     Wannier Function centers (cartesian, alat) and spreads (ang):

     (   0.04577   0.04577   0.04577) :   2.92426
     (   0.04577  -0.04577  -0.04577) :   2.92426
     (  -0.04577   0.04577  -0.04577) :   2.92426
     (  -0.04577  -0.04577   0.04577) :   2.92426
     (   0.33390   0.33390   0.33390) :   2.46545
     (   0.33390   0.16610   0.16610) :   2.46545
     (   0.16610   0.33390   0.16610) :   2.46545
     (   0.16610   0.16610   0.33390) :   2.46545

     -------------------------------------------------------------------
     WANNIER      :      8.43s CPU      8.50s WALL (       1 calls)
     -------------------------------------------------------------------

     Dipole matrix elements calculated


     Calculating kgmap

     Progress kgmap: ########################################
     kmaps        :      0.03s CPU      0.03s WALL (       1 calls)
     Symmetries of Bravais lattice:  48
     Symmetries of crystal:          48


     ===================================================================
     irreducible q point #    1
     ===================================================================

     Symmetries of small group of q: 48
          in addition sym. q -> -q+G:

     Number of q in the star =    1
     List of q in the star:
          1   0.000000000   0.000000000   0.000000000
     Imposing acoustic sum rule on the dynamical matrix
     Read dielectric tensor and effective charges

        q(    1 ) = (   0.0000000   0.0000000   0.0000000 )

     Writing epmatq on .epb files


     The .epb files have been correctly written

     Use zone-centred Wigner-Seitz cells 
     Number of WS vectors for electrons       93
     Number of WS vectors for phonons        1
     Number of WS vectors for electron-phonon        1
     Maximum number of cores for efficient parallelization        6
     Results may improve by using use_ws == .TRUE. 
 
     Bloch2wane:          1 /          1
 
     Bloch2wanp:          1 /          1

     Writing Hamiltonian, Dynamical matrix and EP vertex in Wann rep to file

     ===================================================================
     Memory usage:  VmHWM =        48Mb
                   VmPeak =       671Mb
     ===================================================================
     
     Using q-mesh file: ./qgrid.txt
     Size of q point mesh for interpolation:        512
     Using k-mesh file: ./LGX.txt
     WARNING: k-point weigths do not add up to 1 [loadkmesh_para]
     Size of k point mesh for interpolation:        452
     Max number of k points per pool:              114

     Fermi energy coarse grid =   6.047016 eV

     ===================================================================

     Fermi energy is read from the input file: Ef =   6.650000 eV

     ===================================================================

              ibndmin =     2  ebndmin =     0.269
              ibndmax =     8  ebndmax =     0.709


     Number of ep-matrix elements per pool :        16758 ~=  130.92 Kb (@ 8 bytes/ DP)
     Number selected, total         100         100
     Number selected, total         200         200
     Number selected, total         300         300
     Number selected, total         400         400
     Number selected, total         500         500
     We only need to compute      512 q-points
      

     ===================================================================
     Electron-plasmon Self-Energy in the Migdal Approximation
     ===================================================================


     Fermi Surface thickness =   3.000000 eV

     Golden Rule strictly enforced with T =   0.001723 eV
     Gaussian Broadening:   0.010000 eV, ngauss=   1
 
             nel       =    0.100000E-01
             meff      =    0.250000E+00
             rs        =    0.465360E+01
             kf        =    0.103101E+00
             vf        =    0.412403E+00
             fermi_en  =    0.425190E-01
             qtf       =    0.181157E+00
             wpl       =    0.249033E-01
             qcut      =    0.493125E-01
             eps0      =    0.328180E+11
             epsiheg   =    0.120000E+02
             deltaeps  =    0.833333E-01

     ===================================================================
     Electron Spectral Function in the Migdal Approximation
     ===================================================================


     Fermi Surface thickness =   3.000000 eV

     Golden Rule strictly enforced with T =   0.001723 eV
     Gaussian Broadening:   0.010000 eV, ngauss=   1
 
     The sum rule to conserve the number of electron is enforced.
     The self energy is rescaled so that its real part is zero at the Fermi level.
     The sum rule replace the explicit calculation of the Debye-Waller term.
 
             nel       =    0.100000E-01
             meff      =    0.250000E+00
             rs        =    0.465360E+01
             kf        =    0.103101E+00
             vf        =    0.412403E+00
             fermi_en  =    0.425190E-01
             qtf       =    0.181157E+00
             wpl       =    0.249033E-01
             qcut      =    0.493125E-01
             eps0      =    0.328180E+11
             epsiheg   =    0.120000E+02
             deltaeps  =    0.833333E-01
     Progression iq (fine) =        100/       512
     Progression iq (fine) =        200/       512
     Progression iq (fine) =        300/       512
     Progression iq (fine) =        400/       512
     Progression iq (fine) =        500/       512
     Average over degenerate eigenstates is performed
     Temperature:   20.000K
     WARNING: only the eigenstates within the Fermi window are meaningful

     ik =       1 coord.:    0.5000000   0.5000000   0.5000000
     -------------------------------------------------------------------
     E(   2 )=  -7.5788 eV   Re[Sigma]=    1270.678116 meV Im[Sigma]=       0.000000 meV     Z=       0.202253 lam=       3.944302
     E(   3 )=  -1.8013 eV   Re[Sigma]=    1122.754808 meV Im[Sigma]=       0.000000 meV     Z=       0.244266 lam=       3.093896
     E(   4 )=  -1.8013 eV   Re[Sigma]=    1122.754808 meV Im[Sigma]=       0.000000 meV     Z=       0.244266 lam=       3.093896
     E(   5 )=   0.8876 eV   Re[Sigma]=   -1047.464241 meV Im[Sigma]=       0.000000 meV     Z=       0.270835 lam=       2.692292
     E(   6 )=   2.7298 eV   Re[Sigma]=   -1168.117452 meV Im[Sigma]=       0.000000 meV     Z=       0.230757 lam=       3.333569
     E(   7 )=   2.7298 eV   Re[Sigma]=   -1168.117452 meV Im[Sigma]=       0.000000 meV     Z=       0.230757 lam=       3.333569
     E(   8 )=   6.9549 eV   Re[Sigma]=   -1322.549532 meV Im[Sigma]=       0.000000 meV     Z=       0.189395 lam=       4.279972
     -------------------------------------------------------------------


     ik =       2 coord.:    0.4952381   0.4952381   0.4952381
     -------------------------------------------------------------------
     E(   2 )=  -7.5767 eV   Re[Sigma]=    1233.415704 meV Im[Sigma]=       0.000000 meV     Z=       0.212133 lam=       3.714023
     E(   3 )=  -1.8010 eV   Re[Sigma]=    1060.900128 meV Im[Sigma]=       0.000000 meV     Z=       0.265778 lam=       2.762537
     E(   4 )=  -1.8009 eV   Re[Sigma]=    1175.419440 meV Im[Sigma]=       0.000000 meV     Z=       0.228635 lam=       3.373778
     E(   5 )=   0.8877 eV   Re[Sigma]=   -1049.309389 meV Im[Sigma]=       0.000000 meV     Z=       0.270126 lam=       2.701982
     E(   6 )=   2.7301 eV   Re[Sigma]=   -1204.286875 meV Im[Sigma]=       0.000000 meV     Z=       0.220263 lam=       3.540026
     E(   7 )=   2.7302 eV   Re[Sigma]=   -1142.554502 meV Im[Sigma]=       0.000000 meV     Z=       0.238801 lam=       3.187592
     E(   8 )=   6.9554 eV   Re[Sigma]=   -1331.548057 meV Im[Sigma]=       0.000000 meV     Z=       0.187372 lam=       4.336986
     -------------------------------------------------------------------


     ik =       3 coord.:    0.4904762   0.4904762   0.4904762
     -------------------------------------------------------------------
     E(   2 )=  -7.5706 eV   Re[Sigma]=    1198.563999 meV Im[Sigma]=       0.000000 meV     Z=       0.221914 lam=       3.506246
     E(   3 )=  -1.8003 eV   Re[Sigma]=    1056.650173 meV Im[Sigma]=       0.000000 meV     Z=       0.267376 lam=       2.740045
     E(   4 )=  -1.7998 eV   Re[Sigma]=    1170.639103 meV Im[Sigma]=       0.000000 meV     Z=       0.230095 lam=       3.346031
     E(   5 )=   0.8882 eV   Re[Sigma]=   -1051.248624 meV Im[Sigma]=       0.000000 meV     Z=       0.269380 lam=       2.712230
     E(   6 )=   2.7309 eV   Re[Sigma]=   -1208.829692 meV Im[Sigma]=       0.000000 meV     Z=       0.218977 lam=       3.566695
     E(   7 )=   2.7314 eV   Re[Sigma]=   -1148.758149 meV Im[Sigma]=       0.000000 meV     Z=       0.236825 lam=       3.222524
     E(   8 )=   6.9568 eV   Re[Sigma]=   -1340.796655 meV Im[Sigma]=       0.000000 meV     Z=       0.185308 lam=       4.396415
     -------------------------------------------------------------------


     ik =       4 coord.:    0.4857143   0.4857143   0.4857143
     -------------------------------------------------------------------
     E(   2 )=  -7.5605 eV   Re[Sigma]=    1166.119334 meV Im[Sigma]=       0.000000 meV     Z=       0.231522 lam=       3.319248
     E(   3 )=  -1.7990 eV   Re[Sigma]=    1052.744948 meV Im[Sigma]=       0.000000 meV     Z=       0.268858 lam=       2.719433
     E(   4 )=  -1.7980 eV   Re[Sigma]=    1165.705339 meV Im[Sigma]=       0.000000 meV     Z=       0.231600 lam=       3.317798
     E(   5 )=   0.8889 eV   Re[Sigma]=   -1053.290973 meV Im[Sigma]=       0.000000 meV     Z=       0.268595 lam=       2.723075
     E(   6 )=   2.7323 eV   Re[Sigma]=   -1213.086135 meV Im[Sigma]=       0.000000 meV     Z=       0.217777 lam=       3.591864
     E(   7 )=   2.7333 eV   Re[Sigma]=   -1155.332701 meV Im[Sigma]=       0.000000 meV     Z=       0.234754 lam=       3.259777
     E(   8 )=   6.9591 eV   Re[Sigma]=   -1350.188567 meV Im[Sigma]=       0.000000 meV     Z=       0.183229 lam=       4.457644
     -------------------------------------------------------------------


     ik =       5 coord.:    0.4809524   0.4809524   0.4809524
     -------------------------------------------------------------------
     E(   2 )=  -7.5463 eV   Re[Sigma]=    1136.048481 meV Im[Sigma]=       0.000000 meV     Z=       0.240886 lam=       3.151335
     E(   3 )=  -1.7972 eV   Re[Sigma]=    1049.186720 meV Im[Sigma]=       0.000000 meV     Z=       0.270219 lam=       2.700696
     E(   4 )=  -1.7955 eV   Re[Sigma]=    1160.648019 meV Im[Sigma]=       0.000000 meV     Z=       0.233141 lam=       3.289242
     E(   5 )=   0.8900 eV   Re[Sigma]=   -1055.443224 meV Im[Sigma]=       0.000000 meV     Z=       0.267769 lam=       2.734558
     E(   6 )=   2.7343 eV   Re[Sigma]=   -1217.026214 meV Im[Sigma]=       0.000000 meV     Z=       0.216669 lam=       3.615345
     E(   7 )=   2.7361 eV   Re[Sigma]=   -1162.253439 meV Im[Sigma]=       0.000000 meV     Z=       0.232599 lam=       3.299244
     E(   8 )=   6.9624 eV   Re[Sigma]=   -1359.609169 meV Im[Sigma]=       0.000000 meV     Z=       0.181160 lam=       4.519974
     -------------------------------------------------------------------


     ik =       6 coord.:    0.4761905   0.4761905   0.4761905
     -------------------------------------------------------------------
     E(   2 )=  -7.5284 eV   Re[Sigma]=    1108.290791 meV Im[Sigma]=       0.000000 meV     Z=       0.249947 lam=       3.000852
     E(   3 )=  -1.7949 eV   Re[Sigma]=    1045.973646 meV Im[Sigma]=       0.000000 meV     Z=       0.271458 lam=       2.683813
     E(   4 )=  -1.7923 eV   Re[Sigma]=    1155.501519 meV Im[Sigma]=       0.000000 meV     Z=       0.234711 lam=       3.260551
     E(   5 )=   0.8913 eV   Re[Sigma]=   -1057.711599 meV Im[Sigma]=       0.000000 meV     Z=       0.266900 lam=       2.746715
     E(   6 )=   2.7369 eV   Re[Sigma]=   -1220.626870 meV Im[Sigma]=       0.000000 meV     Z=       0.215657 lam=       3.636996
     E(   7 )=   2.7396 eV   Re[Sigma]=   -1169.489749 meV Im[Sigma]=       0.000000 meV     Z=       0.230373 lam=       3.340785
     E(   8 )=   6.9664 eV   Re[Sigma]=   -1368.935637 meV Im[Sigma]=       0.000000 meV     Z=       0.179127 lam=       4.582621
     -------------------------------------------------------------------


     ik =       7 coord.:    0.4714286   0.4714286   0.4714286
     -------------------------------------------------------------------
     E(   2 )=  -7.5067 eV   Re[Sigma]=    1082.761628 meV Im[Sigma]=       0.000000 meV     Z=       0.258652 lam=       2.866201
     E(   3 )=  -1.7922 eV   Re[Sigma]=    1043.099548 meV Im[Sigma]=       0.000000 meV     Z=       0.272573 lam=       2.668740
     E(   4 )=  -1.7885 eV   Re[Sigma]=    1150.304509 meV Im[Sigma]=       0.000000 meV     Z=       0.236299 lam=       3.231932
     E(   5 )=   0.8930 eV   Re[Sigma]=   -1060.101669 meV Im[Sigma]=       0.000000 meV     Z=       0.265987 lam=       2.759578
     E(   6 )=   2.7399 eV   Re[Sigma]=   -1223.872126 meV Im[Sigma]=       0.000000 meV     Z=       0.214744 lam=       3.656715
     E(   7 )=   2.7438 eV   Re[Sigma]=   -1177.005037 meV Im[Sigma]=       0.000000 meV     Z=       0.228091 lam=       3.384223
     E(   8 )=   6.9713 eV   Re[Sigma]=   -1378.037562 meV Im[Sigma]=       0.000000 meV     Z=       0.177157 lam=       4.644714
     -------------------------------------------------------------------


     ik =       8 coord.:    0.4666667   0.4666667   0.4666667
     -------------------------------------------------------------------
     E(   2 )=  -7.4815 eV   Re[Sigma]=    1059.356672 meV Im[Sigma]=       0.000000 meV     Z=       0.266962 lam=       2.745855
     E(   3 )=  -1.7889 eV   Re[Sigma]=    1040.553263 meV Im[Sigma]=       0.000000 meV     Z=       0.273567 lam=       2.655412
     E(   4 )=  -1.7839 eV   Re[Sigma]=    1145.100071 meV Im[Sigma]=       0.000000 meV     Z=       0.237891 lam=       3.203614
     E(   5 )=   0.8950 eV   Re[Sigma]=   -1062.618282 meV Im[Sigma]=       0.000000 meV     Z=       0.265029 lam=       2.773177
     E(   6 )=   2.7435 eV   Re[Sigma]=   -1226.752924 meV Im[Sigma]=       0.000000 meV     Z=       0.213929 lam=       3.674447
     E(   7 )=   2.7488 eV   Re[Sigma]=   -1184.756848 meV Im[Sigma]=       0.000000 meV     Z=       0.225767 lam=       3.429343
     E(   8 )=   6.9769 eV   Re[Sigma]=   -1386.777955 meV Im[Sigma]=       0.000000 meV     Z=       0.175276 lam=       4.705303
     -------------------------------------------------------------------


     ik =       9 coord.:    0.4619048   0.4619048   0.4619048
     -------------------------------------------------------------------
     E(   2 )=  -7.4528 eV   Re[Sigma]=    1037.956671 meV Im[Sigma]=       0.000000 meV     Z=       0.274848 lam=       2.638373
     E(   3 )=  -1.7852 eV   Re[Sigma]=    1038.317386 meV Im[Sigma]=       0.000000 meV     Z=       0.274444 lam=       2.643736
     E(   4 )=  -1.7788 eV   Re[Sigma]=    1139.936341 meV Im[Sigma]=       0.000000 meV     Z=       0.239472 lam=       3.175848
     E(   5 )=   0.8973 eV   Re[Sigma]=   -1065.265497 meV Im[Sigma]=       0.000000 meV     Z=       0.264024 lam=       2.787537
     E(   6 )=   2.7476 eV   Re[Sigma]=   -1229.266719 meV Im[Sigma]=       0.000000 meV     Z=       0.213212 lam=       3.690176
     E(   7 )=   2.7544 eV   Re[Sigma]=   -1192.697129 meV Im[Sigma]=       0.000000 meV     Z=       0.223419 lam=       3.475896
     E(   8 )=   6.9832 eV   Re[Sigma]=   -1395.014663 meV Im[Sigma]=       0.000000 meV     Z=       0.173510 lam=       4.763363
     -------------------------------------------------------------------


     ik =      10 coord.:    0.4571429   0.4571429   0.4571429
     -------------------------------------------------------------------
     E(   2 )=  -7.4209 eV   Re[Sigma]=    1018.432225 meV Im[Sigma]=       0.000000 meV     Z=       0.282294 lam=       2.542410
     E(   3 )=  -1.7810 eV   Re[Sigma]=    1036.366061 meV Im[Sigma]=       0.000000 meV     Z=       0.275211 lam=       2.633574
     E(   4 )=  -1.7730 eV   Re[Sigma]=    1134.867959 meV Im[Sigma]=       0.000000 meV     Z=       0.241027 lam=       3.148915
     E(   5 )=   0.9000 eV   Re[Sigma]=   -1068.046528 meV Im[Sigma]=       0.000000 meV     Z=       0.262973 lam=       2.802678
     E(   6 )=   2.7522 eV   Re[Sigma]=   -1231.416966 meV Im[Sigma]=       0.000000 meV     Z=       0.212589 lam=       3.703923
     E(   7 )=   2.7607 eV   Re[Sigma]=   -1200.772554 meV Im[Sigma]=       0.000000 meV     Z=       0.221063 lam=       3.523597
     E(   8 )=   6.9900 eV   Re[Sigma]=   -1402.602238 meV Im[Sigma]=       0.000000 meV     Z=       0.171886 lam=       4.817805
     -------------------------------------------------------------------


     ik =      11 coord.:    0.4523810   0.4523810   0.4523810
     -------------------------------------------------------------------
     E(   2 )=  -7.3859 eV   Re[Sigma]=    1000.648283 meV Im[Sigma]=       0.000000 meV     Z=       0.289292 lam=       2.456720
     E(   3 )=  -1.7764 eV   Re[Sigma]=    1034.661320 meV Im[Sigma]=       0.000000 meV     Z=       0.275883 lam=       2.624730
     E(   4 )=  -1.7666 eV   Re[Sigma]=    1129.958777 meV Im[Sigma]=       0.000000 meV     Z=       0.242534 lam=       3.123138
     E(   5 )=   0.9029 eV   Re[Sigma]=   -1070.963708 meV Im[Sigma]=       0.000000 meV     Z=       0.261875 lam=       2.818616
     E(   6 )=   2.7573 eV   Re[Sigma]=   -1235.350615 meV Im[Sigma]=       0.000000 meV     Z=       0.211501 lam=       3.728107
     E(   7 )=   2.7676 eV   Re[Sigma]=   -1206.653579 meV Im[Sigma]=       0.000000 meV     Z=       0.219366 lam=       3.558591
     E(   8 )=   6.9974 eV   Re[Sigma]=   -1409.394222 meV Im[Sigma]=       0.000000 meV     Z=       0.170430 lam=       4.867501
     -------------------------------------------------------------------


     ik =      12 coord.:    0.4476190   0.4476190   0.4476190
     -------------------------------------------------------------------
     E(   2 )=  -7.3480 eV   Re[Sigma]=     984.468105 meV Im[Sigma]=       0.000000 meV     Z=       0.295844 lam=       2.380162
     E(   3 )=  -1.7713 eV   Re[Sigma]=    1032.263522 meV Im[Sigma]=       0.000000 meV     Z=       0.276829 lam=       2.612336
     E(   4 )=  -1.7597 eV   Re[Sigma]=    1126.119232 meV Im[Sigma]=       0.000000 meV     Z=       0.243719 lam=       3.103094
     E(   5 )=   0.9062 eV   Re[Sigma]=   -1074.018512 meV Im[Sigma]=       0.000000 meV     Z=       0.260732 lam=       2.835362
     E(   6 )=   2.7628 eV   Re[Sigma]=   -1239.372431 meV Im[Sigma]=       0.000000 meV     Z=       0.210395 lam=       3.752958
     E(   7 )=   2.7750 eV   Re[Sigma]=   -1212.033447 meV Im[Sigma]=       0.000000 meV     Z=       0.217828 lam=       3.590784
     E(   8 )=   7.0051 eV   Re[Sigma]=   -1415.245921 meV Im[Sigma]=       0.000000 meV     Z=       0.169167 lam=       4.911305
     -------------------------------------------------------------------


     ik =      13 coord.:    0.4428571   0.4428571   0.4428571
     -------------------------------------------------------------------
     E(   2 )=  -7.3075 eV   Re[Sigma]=     969.756557 meV Im[Sigma]=       0.000000 meV     Z=       0.301959 lam=       2.311703
     E(   3 )=  -1.7658 eV   Re[Sigma]=    1029.872305 meV Im[Sigma]=       0.000000 meV     Z=       0.277775 lam=       2.600037
     E(   4 )=  -1.7522 eV   Re[Sigma]=    1122.693550 meV Im[Sigma]=       0.000000 meV     Z=       0.244773 lam=       3.085418
     E(   5 )=   0.9099 eV   Re[Sigma]=   -1077.211376 meV Im[Sigma]=       0.000000 meV     Z=       0.259543 lam=       2.852922
     E(   6 )=   2.7687 eV   Re[Sigma]=   -1243.193331 meV Im[Sigma]=       0.000000 meV     Z=       0.209345 lam=       3.776799
     E(   7 )=   2.7830 eV   Re[Sigma]=   -1217.155724 meV Im[Sigma]=       0.000000 meV     Z=       0.216375 lam=       3.621596
     E(   8 )=   7.0131 eV   Re[Sigma]=   -1420.017427 meV Im[Sigma]=       0.000000 meV     Z=       0.168122 lam=       4.948079
     -------------------------------------------------------------------


     ik =      14 coord.:    0.4380952   0.4380952   0.4380952
     -------------------------------------------------------------------
     E(   2 )=  -7.2644 eV   Re[Sigma]=     956.382705 meV Im[Sigma]=       0.000000 meV     Z=       0.307654 lam=       2.250406
     E(   3 )=  -1.7599 eV   Re[Sigma]=    1027.553069 meV Im[Sigma]=       0.000000 meV     Z=       0.278694 lam=       2.588167
     E(   4 )=  -1.7443 eV   Re[Sigma]=    1119.634318 meV Im[Sigma]=       0.000000 meV     Z=       0.245709 lam=       3.069857
     E(   5 )=   0.9139 eV   Re[Sigma]=   -1080.541835 meV Im[Sigma]=       0.000000 meV     Z=       0.258311 lam=       2.871298
     E(   6 )=   2.7749 eV   Re[Sigma]=   -1246.822608 meV Im[Sigma]=       0.000000 meV     Z=       0.208347 lam=       3.799680
     E(   7 )=   2.7914 eV   Re[Sigma]=   -1221.951384 meV Im[Sigma]=       0.000000 meV     Z=       0.215026 lam=       3.650595
     E(   8 )=   7.0213 eV   Re[Sigma]=   -1423.576956 meV Im[Sigma]=       0.000000 meV     Z=       0.167315 lam=       4.976733
     -------------------------------------------------------------------


     ik =      15 coord.:    0.4333333   0.4333333   0.4333333
     -------------------------------------------------------------------
     E(   2 )=  -7.2189 eV   Re[Sigma]=     944.221710 meV Im[Sigma]=       0.000000 meV     Z=       0.312946 lam=       2.195436
     E(   3 )=  -1.7535 eV   Re[Sigma]=    1025.191744 meV Im[Sigma]=       0.000000 meV     Z=       0.279632 lam=       2.576130
     E(   4 )=  -1.7359 eV   Re[Sigma]=    1117.058330 meV Im[Sigma]=       0.000000 meV     Z=       0.246489 lam=       3.056984
     E(   5 )=   0.9183 eV   Re[Sigma]=   -1084.008499 meV Im[Sigma]=       0.000000 meV     Z=       0.257037 lam=       2.890485
     E(   6 )=   2.7816 eV   Re[Sigma]=   -1250.270422 meV Im[Sigma]=       0.000000 meV     Z=       0.207398 lam=       3.821650
     E(   7 )=   2.8003 eV   Re[Sigma]=   -1226.351812 meV Im[Sigma]=       0.000000 meV     Z=       0.213797 lam=       3.677343
     E(   8 )=   7.0295 eV   Re[Sigma]=   -1425.804290 meV Im[Sigma]=       0.000000 meV     Z=       0.166771 lam=       4.996256
     -------------------------------------------------------------------


     ik =      16 coord.:    0.4285714   0.4285714   0.4285714
     -------------------------------------------------------------------
     E(   2 )=  -7.1711 eV   Re[Sigma]=     933.156111 meV Im[Sigma]=       0.000000 meV     Z=       0.317859 lam=       2.146045
     E(   3 )=  -1.7468 eV   Re[Sigma]=    1022.716531 meV Im[Sigma]=       0.000000 meV     Z=       0.280619 lam=       2.563547
     E(   4 )=  -1.7270 eV   Re[Sigma]=    1115.037509 meV Im[Sigma]=       0.000000 meV     Z=       0.247088 lam=       3.047135
     E(   5 )=   0.9230 eV   Re[Sigma]=   -1087.609049 meV Im[Sigma]=       0.000000 meV     Z=       0.255723 lam=       2.910475
     E(   6 )=   2.7885 eV   Re[Sigma]=   -1253.546716 meV Im[Sigma]=       0.000000 meV     Z=       0.206494 lam=       3.842757
     E(   7 )=   2.8095 eV   Re[Sigma]=   -1230.290516 meV Im[Sigma]=       0.000000 meV     Z=       0.212702 lam=       3.701412
     E(   8 )=   7.0377 eV   Re[Sigma]=   -1426.594184 meV Im[Sigma]=       0.000000 meV     Z=       0.166507 lam=       5.005757
     -------------------------------------------------------------------


     ik =      17 coord.:    0.4238095   0.4238095   0.4238095
     -------------------------------------------------------------------
     E(   2 )=  -7.1214 eV   Re[Sigma]=     923.076574 meV Im[Sigma]=       0.000000 meV     Z=       0.322417 lam=       2.101570
     E(   3 )=  -1.7398 eV   Re[Sigma]=    1020.131936 meV Im[Sigma]=       0.000000 meV     Z=       0.281655 lam=       2.550438
     E(   4 )=  -1.7178 eV   Re[Sigma]=    1113.570553 meV Im[Sigma]=       0.000000 meV     Z=       0.247507 lam=       3.040285
     E(   5 )=   0.9281 eV   Re[Sigma]=   -1091.340266 meV Im[Sigma]=       0.000000 meV     Z=       0.254372 lam=       2.931254
     E(   6 )=   2.7957 eV   Re[Sigma]=   -1256.660222 meV Im[Sigma]=       0.000000 meV     Z=       0.205633 lam=       3.863039
     E(   7 )=   2.8190 eV   Re[Sigma]=   -1233.704919 meV Im[Sigma]=       0.000000 meV     Z=       0.211757 lam=       3.722394
     E(   8 )=   7.0456 eV   Re[Sigma]=   -1425.859553 meV Im[Sigma]=       0.000000 meV     Z=       0.166542 lam=       5.004498
     -------------------------------------------------------------------


     ik =      18 coord.:    0.4190476   0.4190476   0.4190476
     -------------------------------------------------------------------
     E(   2 )=  -7.0697 eV   Re[Sigma]=     913.882225 meV Im[Sigma]=       0.000000 meV     Z=       0.326645 lam=       2.061425
     E(   3 )=  -1.7323 eV   Re[Sigma]=    1017.496775 meV Im[Sigma]=       0.000000 meV     Z=       0.282717 lam=       2.537102
     E(   4 )=  -1.7083 eV   Re[Sigma]=    1112.606231 meV Im[Sigma]=       0.000000 meV     Z=       0.247760 lam=       3.036165
     E(   5 )=   0.9336 eV   Re[Sigma]=   -1095.198063 meV Im[Sigma]=       0.000000 meV     Z=       0.252985 lam=       2.952803
     E(   6 )=   2.8032 eV   Re[Sigma]=   -1259.617780 meV Im[Sigma]=       0.000000 meV     Z=       0.204812 lam=       3.882522
     E(   7 )=   2.8288 eV   Re[Sigma]=   -1236.537962 meV Im[Sigma]=       0.000000 meV     Z=       0.210974 lam=       3.739915
     E(   8 )=   7.0532 eV   Re[Sigma]=   -1423.534249 meV Im[Sigma]=       0.000000 meV     Z=       0.166891 lam=       4.991928
     -------------------------------------------------------------------


     ik =      19 coord.:    0.4142857   0.4142857   0.4142857
     -------------------------------------------------------------------
     E(   2 )=  -7.0161 eV   Re[Sigma]=     905.480654 meV Im[Sigma]=       0.000000 meV     Z=       0.330569 lam=       2.025091
     E(   3 )=  -1.7246 eV   Re[Sigma]=    1014.877110 meV Im[Sigma]=       0.000000 meV     Z=       0.283778 lam=       2.523879
     E(   4 )=  -1.6984 eV   Re[Sigma]=    1112.087294 meV Im[Sigma]=       0.000000 meV     Z=       0.247863 lam=       3.034483
     E(   5 )=   0.9395 eV   Re[Sigma]=   -1099.177535 meV Im[Sigma]=       0.000000 meV     Z=       0.251566 lam=       2.975099
     E(   6 )=   2.8109 eV   Re[Sigma]=   -1262.424156 meV Im[Sigma]=       0.000000 meV     Z=       0.204031 lam=       3.901217
     E(   7 )=   2.8387 eV   Re[Sigma]=   -1238.739231 meV Im[Sigma]=       0.000000 meV     Z=       0.210365 lam=       3.753643
     E(   8 )=   7.0603 eV   Re[Sigma]=   -1419.575268 meV Im[Sigma]=       0.000000 meV     Z=       0.167569 lam=       4.967706
     -------------------------------------------------------------------


     ik =      20 coord.:    0.4095238   0.4095238   0.4095238
     -------------------------------------------------------------------
     E(   2 )=  -6.9609 eV   Re[Sigma]=     897.787687 meV Im[Sigma]=       0.000000 meV     Z=       0.334212 lam=       1.992110
     E(   3 )=  -1.7165 eV   Re[Sigma]=    1012.320650 meV Im[Sigma]=       0.000000 meV     Z=       0.284818 lam=       2.511012
     E(   4 )=  -1.6883 eV   Re[Sigma]=    1111.972990 meV Im[Sigma]=       0.000000 meV     Z=       0.247829 lam=       3.035037
     E(   5 )=   0.9458 eV   Re[Sigma]=   -1103.273011 meV Im[Sigma]=       0.000000 meV     Z=       0.250118 lam=       2.998114
     E(   6 )=   2.8187 eV   Re[Sigma]=   -1265.082455 meV Im[Sigma]=       0.000000 meV     Z=       0.203288 lam=       3.919127
     E(   7 )=   2.8488 eV   Re[Sigma]=   -1240.265448 meV Im[Sigma]=       0.000000 meV     Z=       0.209939 lam=       3.763290
     E(   8 )=   7.0668 eV   Re[Sigma]=   -1413.964227 meV Im[Sigma]=       0.000000 meV     Z=       0.168585 lam=       4.931721
     -------------------------------------------------------------------


     ik =      21 coord.:    0.4047619   0.4047619   0.4047619
     -------------------------------------------------------------------
     E(   2 )=  -6.9042 eV   Re[Sigma]=     890.726995 meV Im[Sigma]=       0.000000 meV     Z=       0.337600 lam=       1.962081
     E(   3 )=  -1.7082 eV   Re[Sigma]=    1009.854007 meV Im[Sigma]=       0.000000 meV     Z=       0.285826 lam=       2.498636
     E(   4 )=  -1.6779 eV   Re[Sigma]=    1112.240505 meV Im[Sigma]=       0.000000 meV     Z=       0.247665 lam=       3.037715
     E(   5 )=   0.9524 eV   Re[Sigma]=   -1107.478113 meV Im[Sigma]=       0.000000 meV     Z=       0.248644 lam=       3.021816
     E(   6 )=   2.8266 eV   Re[Sigma]=   -1267.594990 meV Im[Sigma]=       0.000000 meV     Z=       0.202583 lam=       3.936247
     E(   7 )=   2.8589 eV   Re[Sigma]=   -1241.080353 meV Im[Sigma]=       0.000000 meV     Z=       0.209704 lam=       3.768618
     E(   8 )=   7.0725 eV   Re[Sigma]=   -1406.708017 meV Im[Sigma]=       0.000000 meV     Z=       0.169950 lam=       4.884097
     -------------------------------------------------------------------


     ik =      22 coord.:    0.4000000   0.4000000   0.4000000
     -------------------------------------------------------------------
     E(   2 )=  -6.8459 eV   Re[Sigma]=     884.229607 meV Im[Sigma]=       0.000000 meV     Z=       0.340756 lam=       1.934650
     E(   3 )=  -1.6995 eV   Re[Sigma]=    1007.487961 meV Im[Sigma]=       0.000000 meV     Z=       0.286796 lam=       2.486804
     E(   4 )=  -1.6674 eV   Re[Sigma]=    1112.879481 meV Im[Sigma]=       0.000000 meV     Z=       0.247374 lam=       3.042468
     E(   5 )=   0.9595 eV   Re[Sigma]=   -1111.785824 meV Im[Sigma]=       0.000000 meV     Z=       0.247147 lam=       3.046171
     E(   6 )=   2.8347 eV   Re[Sigma]=   -1269.964414 meV Im[Sigma]=       0.000000 meV     Z=       0.201915 lam=       3.952574
     E(   7 )=   2.8690 eV   Re[Sigma]=   -1241.154167 meV Im[Sigma]=       0.000000 meV     Z=       0.209668 lam=       3.769436
     E(   8 )=   7.0774 eV   Re[Sigma]=   -1397.838573 meV Im[Sigma]=       0.000000 meV     Z=       0.171668 lam=       4.825189
     -------------------------------------------------------------------


     ik =      23 coord.:    0.3952381   0.3952381   0.3952381
     -------------------------------------------------------------------
     E(   2 )=  -6.7863 eV   Re[Sigma]=     878.233372 meV Im[Sigma]=       0.000000 meV     Z=       0.343701 lam=       1.909504
     E(   3 )=  -1.6906 eV   Re[Sigma]=    1005.222935 meV Im[Sigma]=       0.000000 meV     Z=       0.287727 lam=       2.475515
     E(   4 )=  -1.6567 eV   Re[Sigma]=    1113.886688 meV Im[Sigma]=       0.000000 meV     Z=       0.246957 lam=       3.049284
     E(   5 )=   0.9670 eV   Re[Sigma]=   -1116.188557 meV Im[Sigma]=       0.000000 meV     Z=       0.245632 lam=       3.071139
     E(   6 )=   2.8428 eV   Re[Sigma]=   -1272.194864 meV Im[Sigma]=       0.000000 meV     Z=       0.201284 lam=       3.968114
     E(   7 )=   2.8791 eV   Re[Sigma]=   -1240.462862 meV Im[Sigma]=       0.000000 meV     Z=       0.209837 lam=       3.765594
     E(   8 )=   7.0811 eV   Re[Sigma]=   -1387.411781 meV Im[Sigma]=       0.000000 meV     Z=       0.173745 lam=       4.755573
     -------------------------------------------------------------------


     ik =      24 coord.:    0.3904762   0.3904762   0.3904762
     -------------------------------------------------------------------
     E(   2 )=  -6.7254 eV   Re[Sigma]=     872.682401 meV Im[Sigma]=       0.000000 meV     Z=       0.346456 lam=       1.886371
     E(   3 )=  -1.6815 eV   Re[Sigma]=    1003.052882 meV Im[Sigma]=       0.000000 meV     Z=       0.288622 lam=       2.464737
     E(   4 )=  -1.6459 eV   Re[Sigma]=    1115.262347 meV Im[Sigma]=       0.000000 meV     Z=       0.246417 lam=       3.058167
     E(   5 )=   0.9749 eV   Re[Sigma]=   -1120.678232 meV Im[Sigma]=       0.000000 meV     Z=       0.244100 lam=       3.096677
     E(   6 )=   2.8508 eV   Re[Sigma]=   -1274.292955 meV Im[Sigma]=       0.000000 meV     Z=       0.200687 lam=       3.982888
     E(   7 )=   2.8890 eV   Re[Sigma]=   -1238.987449 meV Im[Sigma]=       0.000000 meV     Z=       0.210217 lam=       3.756985
     E(   8 )=   7.0837 eV   Re[Sigma]=   -1375.505579 meV Im[Sigma]=       0.000000 meV     Z=       0.176180 lam=       4.676019
     -------------------------------------------------------------------


     ik =      25 coord.:    0.3857143   0.3857143   0.3857143
     -------------------------------------------------------------------
     E(   2 )=  -6.6633 eV   Re[Sigma]=     867.526513 meV Im[Sigma]=       0.000000 meV     Z=       0.349039 lam=       1.865007
     E(   3 )=  -1.6722 eV   Re[Sigma]=    1000.967792 meV Im[Sigma]=       0.000000 meV     Z=       0.289484 lam=       2.454418
     E(   4 )=  -1.6350 eV   Re[Sigma]=    1117.007839 meV Im[Sigma]=       0.000000 meV     Z=       0.245753 lam=       3.069126
     E(   5 )=   0.9832 eV   Re[Sigma]=   -1125.246351 meV Im[Sigma]=       0.000000 meV     Z=       0.242557 lam=       3.122741
     E(   6 )=   2.8588 eV   Re[Sigma]=   -1276.268523 meV Im[Sigma]=       0.000000 meV     Z=       0.200123 lam=       3.996936
     E(   7 )=   2.8987 eV   Re[Sigma]=   -1236.713398 meV Im[Sigma]=       0.000000 meV     Z=       0.210813 lam=       3.743536
     E(   8 )=   7.0850 eV   Re[Sigma]=   -1362.217378 meV Im[Sigma]=       0.000000 meV     Z=       0.178972 lam=       4.587460
     -------------------------------------------------------------------


     ik =      26 coord.:    0.3809524   0.3809524   0.3809524
     -------------------------------------------------------------------
     E(   2 )=  -6.6000 eV   Re[Sigma]=     862.720712 meV Im[Sigma]=       0.000000 meV     Z=       0.351469 lam=       1.845202
     E(   3 )=  -1.6626 eV   Re[Sigma]=     998.955257 meV Im[Sigma]=       0.000000 meV     Z=       0.290318 lam=       2.444493
     E(   4 )=  -1.6241 eV   Re[Sigma]=    1119.124336 meV Im[Sigma]=       0.000000 meV     Z=       0.244968 lam=       3.082170
     E(   5 )=   0.9919 eV   Re[Sigma]=   -1129.884082 meV Im[Sigma]=       0.000000 meV     Z=       0.241005 lam=       3.149283
     E(   6 )=   2.8668 eV   Re[Sigma]=   -1278.135106 meV Im[Sigma]=       0.000000 meV     Z=       0.199588 lam=       4.010319
     E(   7 )=   2.9081 eV   Re[Sigma]=   -1233.630256 meV Im[Sigma]=       0.000000 meV     Z=       0.211631 lam=       3.725212
     E(   8 )=   7.0848 eV   Re[Sigma]=   -1347.660956 meV Im[Sigma]=       0.000000 meV     Z=       0.182118 lam=       4.490959
     -------------------------------------------------------------------


     ik =      27 coord.:    0.3761905   0.3761905   0.3761905
     -------------------------------------------------------------------
     E(   2 )=  -6.5356 eV   Re[Sigma]=     858.224690 meV Im[Sigma]=       0.000000 meV     Z=       0.353761 lam=       1.826768
     E(   3 )=  -1.6529 eV   Re[Sigma]=     997.001459 meV Im[Sigma]=       0.000000 meV     Z=       0.291130 lam=       2.434891
     E(   4 )=  -1.6132 eV   Re[Sigma]=    1121.611993 meV Im[Sigma]=       0.000000 meV     Z=       0.244063 lam=       3.097302
     E(   5 )=   1.0011 eV   Re[Sigma]=   -1134.582337 meV Im[Sigma]=       0.000000 meV     Z=       0.239449 lam=       3.176254
     E(   6 )=   2.8746 eV   Re[Sigma]=   -1279.910133 meV Im[Sigma]=       0.000000 meV     Z=       0.199079 lam=       4.023121
     E(   7 )=   2.9172 eV   Re[Sigma]=   -1229.731497 meV Im[Sigma]=       0.000000 meV     Z=       0.212675 lam=       3.702009
     E(   8 )=   7.0830 eV   Re[Sigma]=   -1331.963011 meV Im[Sigma]=       0.000000 meV     Z=       0.185609 lam=       4.387668
     -------------------------------------------------------------------


     ik =      28 coord.:    0.3714286   0.3714286   0.3714286
     -------------------------------------------------------------------
     E(   2 )=  -6.4702 eV   Re[Sigma]=     854.002369 meV Im[Sigma]=       0.000000 meV     Z=       0.355930 lam=       1.809541
     E(   3 )=  -1.6430 eV   Re[Sigma]=     995.091816 meV Im[Sigma]=       0.000000 meV     Z=       0.291925 lam=       2.425537
     E(   4 )=  -1.6022 eV   Re[Sigma]=    1124.469484 meV Im[Sigma]=       0.000000 meV     Z=       0.243042 lam=       3.114517
     E(   5 )=   1.0106 eV   Re[Sigma]=   -1139.331853 meV Im[Sigma]=       0.000000 meV     Z=       0.237891 lam=       3.203604
     E(   6 )=   2.8822 eV   Re[Sigma]=   -1281.614827 meV Im[Sigma]=       0.000000 meV     Z=       0.198592 lam=       4.035450
     E(   7 )=   2.9259 eV   Re[Sigma]=   -1225.014651 meV Im[Sigma]=       0.000000 meV     Z=       0.213951 lam=       3.673961
     E(   8 )=   7.0794 eV   Re[Sigma]=   -1315.259549 meV Im[Sigma]=       0.000000 meV     Z=       0.189437 lam=       4.278787
     -------------------------------------------------------------------


     ik =      29 coord.:    0.3666667   0.3666667   0.3666667
     -------------------------------------------------------------------
     E(   2 )=  -6.4038 eV   Re[Sigma]=     850.021481 meV Im[Sigma]=       0.000000 meV     Z=       0.357990 lam=       1.793374
     E(   3 )=  -1.6330 eV   Re[Sigma]=     993.211416 meV Im[Sigma]=       0.000000 meV     Z=       0.292709 lam=       2.416358
     E(   4 )=  -1.5914 eV   Re[Sigma]=    1127.693750 meV Im[Sigma]=       0.000000 meV     Z=       0.241908 lam=       3.133802
     E(   5 )=   1.0206 eV   Re[Sigma]=   -1144.123274 meV Im[Sigma]=       0.000000 meV     Z=       0.236335 lam=       3.231280
     E(   6 )=   2.8896 eV   Re[Sigma]=   -1283.273809 meV Im[Sigma]=       0.000000 meV     Z=       0.198120 lam=       4.047435
     E(   7 )=   2.9342 eV   Re[Sigma]=   -1219.481742 meV Im[Sigma]=       0.000000 meV     Z=       0.215465 lam=       3.641135
     E(   8 )=   7.0741 eV   Re[Sigma]=   -1297.692300 meV Im[Sigma]=       0.000000 meV     Z=       0.193591 lam=       4.165531
     -------------------------------------------------------------------


     ik =      30 coord.:    0.3619048   0.3619048   0.3619048
     -------------------------------------------------------------------
     E(   2 )=  -6.3365 eV   Re[Sigma]=     846.253199 meV Im[Sigma]=       0.000000 meV     Z=       0.359953 lam=       1.778140
     E(   3 )=  -1.6228 eV   Re[Sigma]=     991.345315 meV Im[Sigma]=       0.000000 meV     Z=       0.293489 lam=       2.407277
     E(   4 )=  -1.5806 eV   Re[Sigma]=    1131.279876 meV Im[Sigma]=       0.000000 meV     Z=       0.240666 lam=       3.155135
     E(   5 )=   1.0310 eV   Re[Sigma]=   -1148.947225 meV Im[Sigma]=       0.000000 meV     Z=       0.234784 lam=       3.259229
     E(   6 )=   2.8967 eV   Re[Sigma]=   -1284.914395 meV Im[Sigma]=       0.000000 meV     Z=       0.197659 lam=       4.059224
     E(   7 )=   2.9420 eV   Re[Sigma]=   -1213.140028 meV Im[Sigma]=       0.000000 meV     Z=       0.217219 lam=       3.603638
     E(   8 )=   7.0667 eV   Re[Sigma]=   -1279.405305 meV Im[Sigma]=       0.000000 meV     Z=       0.198055 lam=       4.049090
     -------------------------------------------------------------------


     ik =      31 coord.:    0.3571429   0.3571429   0.3571429
     -------------------------------------------------------------------
     E(   2 )=  -6.2682 eV   Re[Sigma]=     842.671789 meV Im[Sigma]=       0.000000 meV     Z=       0.361830 lam=       1.763726
     E(   3 )=  -1.6125 eV   Re[Sigma]=     989.478764 meV Im[Sigma]=       0.000000 meV     Z=       0.294271 lam=       2.398224
     E(   4 )=  -1.5699 eV   Re[Sigma]=    1135.221048 meV Im[Sigma]=       0.000000 meV     Z=       0.239321 lam=       3.178481
     E(   5 )=   1.0418 eV   Re[Sigma]=   -1153.794385 meV Im[Sigma]=       0.000000 meV     Z=       0.233242 lam=       3.287399
     E(   6 )=   2.9034 eV   Re[Sigma]=   -1286.565654 meV Im[Sigma]=       0.000000 meV     Z=       0.197201 lam=       4.070975
     E(   7 )=   2.9492 eV   Re[Sigma]=   -1206.002993 meV Im[Sigma]=       0.000000 meV     Z=       0.219220 lam=       3.561626
     E(   8 )=   7.0573 eV   Re[Sigma]=   -1260.541806 meV Im[Sigma]=       0.000000 meV     Z=       0.202815 lam=       3.930607
     -------------------------------------------------------------------


     ik =      32 coord.:    0.3523810   0.3523810   0.3523810
     -------------------------------------------------------------------
     E(   2 )=  -6.1990 eV   Re[Sigma]=     839.254311 meV Im[Sigma]=       0.000000 meV     Z=       0.363632 lam=       1.750033
     E(   3 )=  -1.6021 eV   Re[Sigma]=     987.597381 meV Im[Sigma]=       0.000000 meV     Z=       0.295061 lam=       2.389127
     E(   4 )=  -1.5594 eV   Re[Sigma]=    1139.508565 meV Im[Sigma]=       0.000000 meV     Z=       0.237880 lam=       3.203800
     E(   5 )=   1.0529 eV   Re[Sigma]=   -1158.655560 meV Im[Sigma]=       0.000000 meV     Z=       0.231710 lam=       3.315737
     E(   6 )=   2.9099 eV   Re[Sigma]=   -1288.257304 meV Im[Sigma]=       0.000000 meV     Z=       0.196740 lam=       4.082856
     E(   7 )=   2.9558 eV   Re[Sigma]=   -1198.091421 meV Im[Sigma]=       0.000000 meV     Z=       0.221469 lam=       3.515299
     E(   8 )=   7.0458 eV   Re[Sigma]=   -1241.241528 meV Im[Sigma]=       0.000000 meV     Z=       0.207851 lam=       3.811150
     -------------------------------------------------------------------


     ik =      33 coord.:    0.3476190   0.3476190   0.3476190
     -------------------------------------------------------------------
     E(   2 )=  -6.1290 eV   Re[Sigma]=     835.980347 meV Im[Sigma]=       0.000000 meV     Z=       0.365367 lam=       1.736973
     E(   3 )=  -1.5917 eV   Re[Sigma]=     985.687296 meV Im[Sigma]=       0.000000 meV     Z=       0.295865 lam=       2.379920
     E(   4 )=  -1.5489 eV   Re[Sigma]=    1144.131884 meV Im[Sigma]=       0.000000 meV     Z=       0.236349 lam=       3.231039
     E(   5 )=   1.0645 eV   Re[Sigma]=   -1163.521740 meV Im[Sigma]=       0.000000 meV     Z=       0.230192 lam=       3.344191
     E(   6 )=   2.9159 eV   Re[Sigma]=   -1290.018606 meV Im[Sigma]=       0.000000 meV     Z=       0.196270 lam=       4.095035
     E(   7 )=   2.9617 eV   Re[Sigma]=   -1189.434335 meV Im[Sigma]=       0.000000 meV     Z=       0.223968 lam=       3.464915
     E(   8 )=   7.0319 eV   Re[Sigma]=   -1221.638406 meV Im[Sigma]=       0.000000 meV     Z=       0.213143 lam=       3.691693
     -------------------------------------------------------------------


     ik =      34 coord.:    0.3428571   0.3428571   0.3428571
     -------------------------------------------------------------------
     E(   2 )=  -6.0581 eV   Re[Sigma]=     832.831762 meV Im[Sigma]=       0.000000 meV     Z=       0.367044 lam=       1.724469
     E(   3 )=  -1.5811 eV   Re[Sigma]=     983.735271 meV Im[Sigma]=       0.000000 meV     Z=       0.296688 lam=       2.370540
     E(   4 )=  -1.5386 eV   Re[Sigma]=    1149.078682 meV Im[Sigma]=       0.000000 meV     Z=       0.234734 lam=       3.260137
     E(   5 )=   1.0765 eV   Re[Sigma]=   -1168.384166 meV Im[Sigma]=       0.000000 meV     Z=       0.228691 lam=       3.372710
     E(   6 )=   2.9215 eV   Re[Sigma]=   -1291.877412 meV Im[Sigma]=       0.000000 meV     Z=       0.195784 lam=       4.107679
     E(   7 )=   2.9670 eV   Re[Sigma]=   -1180.069563 meV Im[Sigma]=       0.000000 meV     Z=       0.226717 lam=       3.410784
     E(   8 )=   7.0157 eV   Re[Sigma]=   -1201.858783 meV Im[Sigma]=       0.000000 meV     Z=       0.218669 lam=       3.573113
     -------------------------------------------------------------------


     ik =      35 coord.:    0.3380952   0.3380952   0.3380952
     -------------------------------------------------------------------
     E(   2 )=  -5.9865 eV   Re[Sigma]=     829.792485 meV Im[Sigma]=       0.000000 meV     Z=       0.368670 lam=       1.712453
     E(   3 )=  -1.5705 eV   Re[Sigma]=     981.728820 meV Im[Sigma]=       0.000000 meV     Z=       0.297537 lam=       2.360930
     E(   4 )=  -1.5285 eV   Re[Sigma]=    1154.334929 meV Im[Sigma]=       0.000000 meV     Z=       0.233045 lam=       3.291025
     E(   5 )=   1.0889 eV   Re[Sigma]=   -1173.234374 meV Im[Sigma]=       0.000000 meV     Z=       0.227209 lam=       3.401242
     E(   6 )=   2.9266 eV   Re[Sigma]=   -1293.859475 meV Im[Sigma]=       0.000000 meV     Z=       0.195276 lam=       4.120947
     E(   7 )=   2.9715 eV   Re[Sigma]=   -1170.043749 meV Im[Sigma]=       0.000000 meV     Z=       0.229712 lam=       3.353270
     E(   8 )=   6.9970 eV   Re[Sigma]=   -1182.020069 meV Im[Sigma]=       0.000000 meV     Z=       0.224408 lam=       3.456175
     -------------------------------------------------------------------


     ik =      36 coord.:    0.3333333   0.3333333   0.3333333
     -------------------------------------------------------------------
     E(   2 )=  -5.9140 eV   Re[Sigma]=     826.848323 meV Im[Sigma]=       0.000000 meV     Z=       0.370252 lam=       1.700864
     E(   3 )=  -1.5598 eV   Re[Sigma]=     979.656311 meV Im[Sigma]=       0.000000 meV     Z=       0.298415 lam=       2.351035
     E(   4 )=  -1.5186 eV   Re[Sigma]=    1159.884978 meV Im[Sigma]=       0.000000 meV     Z=       0.231287 lam=       3.323623
     E(   5 )=   1.1017 eV   Re[Sigma]=   -1178.064239 meV Im[Sigma]=       0.000000 meV     Z=       0.225747 lam=       3.429741
     E(   6 )=   2.9311 eV   Re[Sigma]=   -1295.988058 meV Im[Sigma]=       0.000000 meV     Z=       0.194742 lam=       4.134990
     E(   7 )=   2.9752 eV   Re[Sigma]=   -1159.411771 meV Im[Sigma]=       0.000000 meV     Z=       0.232949 lam=       3.292780
     E(   8 )=   6.9758 eV   Re[Sigma]=   -1162.229831 meV Im[Sigma]=       0.000000 meV     Z=       0.230333 lam=       3.341537
     -------------------------------------------------------------------


     ik =      37 coord.:    0.3285714   0.3285714   0.3285714
     -------------------------------------------------------------------
     E(   2 )=  -5.8408 eV   Re[Sigma]=     823.986789 meV Im[Sigma]=       0.000000 meV     Z=       0.371795 lam=       1.689653
     E(   3 )=  -1.5490 eV   Re[Sigma]=     977.507066 meV Im[Sigma]=       0.000000 meV     Z=       0.299329 lam=       2.340807
     E(   4 )=  -1.5088 eV   Re[Sigma]=    1165.711644 meV Im[Sigma]=       0.000000 meV     Z=       0.229471 lam=       3.357846
     E(   5 )=   1.1148 eV   Re[Sigma]=   -1182.866015 meV Im[Sigma]=       0.000000 meV     Z=       0.224308 lam=       3.458158
     E(   6 )=   2.9352 eV   Re[Sigma]=   -1298.283826 meV Im[Sigma]=       0.000000 meV     Z=       0.194177 lam=       4.149951
     E(   7 )=   2.9781 eV   Re[Sigma]=   -1148.235624 meV Im[Sigma]=       0.000000 meV     Z=       0.236420 lam=       3.229759
     E(   8 )=   6.9520 eV   Re[Sigma]=   -1142.585283 meV Im[Sigma]=       0.000000 meV     Z=       0.236421 lam=       3.229746
     -------------------------------------------------------------------


     ik =      38 coord.:    0.3238095   0.3238095   0.3238095
     -------------------------------------------------------------------
     E(   2 )=  -5.7667 eV   Re[Sigma]=     821.196953 meV Im[Sigma]=       0.000000 meV     Z=       0.373305 lam=       1.678771
     E(   3 )=  -1.5382 eV   Re[Sigma]=     975.271461 meV Im[Sigma]=       0.000000 meV     Z=       0.300282 lam=       2.330206
     E(   4 )=  -1.4992 eV   Re[Sigma]=    1171.796296 meV Im[Sigma]=       0.000000 meV     Z=       0.227604 lam=       3.393599
     E(   5 )=   1.1283 eV   Re[Sigma]=   -1187.632358 meV Im[Sigma]=       0.000000 meV     Z=       0.222893 lam=       3.486449
     E(   6 )=   2.9386 eV   Re[Sigma]=   -1300.764901 meV Im[Sigma]=       0.000000 meV     Z=       0.193575 lam=       4.165963
     E(   7 )=   2.9801 eV   Re[Sigma]=   -1136.582943 meV Im[Sigma]=       0.000000 meV     Z=       0.240115 lam=       3.164675
     E(   8 )=   6.9256 eV   Re[Sigma]=   -1123.173098 meV Im[Sigma]=       0.000000 meV     Z=       0.242645 lam=       3.121250
     -------------------------------------------------------------------


     ik =      39 coord.:    0.3190476   0.3190476   0.3190476
     -------------------------------------------------------------------
     E(   2 )=  -5.6919 eV   Re[Sigma]=     818.469303 meV Im[Sigma]=       0.000000 meV     Z=       0.374787 lam=       1.668181
     E(   3 )=  -1.5273 eV   Re[Sigma]=     972.941014 meV Im[Sigma]=       0.000000 meV     Z=       0.301278 lam=       2.319194
     E(   4 )=  -1.4898 eV   Re[Sigma]=    1178.118941 meV Im[Sigma]=       0.000000 meV     Z=       0.225694 lam=       3.430781
     E(   5 )=   1.1422 eV   Re[Sigma]=   -1192.356341 meV Im[Sigma]=       0.000000 meV     Z=       0.221505 lam=       3.514572
     E(   6 )=   2.9413 eV   Re[Sigma]=   -1303.447015 meV Im[Sigma]=       0.000000 meV     Z=       0.192933 lam=       4.183152
     E(   7 )=   2.9813 eV   Re[Sigma]=   -1124.525337 meV Im[Sigma]=       0.000000 meV     Z=       0.244021 lam=       3.098007
     E(   8 )=   6.8965 eV   Re[Sigma]=   -1104.069515 meV Im[Sigma]=       0.000000 meV     Z=       0.248979 lam=       3.016401
     -------------------------------------------------------------------


     ik =      40 coord.:    0.3142857   0.3142857   0.3142857
     -------------------------------------------------------------------
     E(   2 )=  -5.6164 eV   Re[Sigma]=     815.795634 meV Im[Sigma]=       0.000000 meV     Z=       0.376244 lam=       1.657847
     E(   3 )=  -1.5164 eV   Re[Sigma]=     970.508467 meV Im[Sigma]=       0.000000 meV     Z=       0.302321 lam=       2.307741
     E(   4 )=  -1.4805 eV   Re[Sigma]=    1184.658305 meV Im[Sigma]=       0.000000 meV     Z=       0.223750 lam=       3.469284
     E(   5 )=   1.1564 eV   Re[Sigma]=   -1197.031468 meV Im[Sigma]=       0.000000 meV     Z=       0.220144 lam=       3.542485
     E(   6 )=   2.9434 eV   Re[Sigma]=   -1306.343648 meV Im[Sigma]=       0.000000 meV     Z=       0.192247 lam=       4.201635
     E(   7 )=   2.9816 eV   Re[Sigma]=   -1112.136708 meV Im[Sigma]=       0.000000 meV     Z=       0.248125 lam=       3.030234
     E(   8 )=   6.8646 eV   Re[Sigma]=   -1085.340660 meV Im[Sigma]=       0.000000 meV     Z=       0.255397 lam=       2.915465
     -------------------------------------------------------------------


     ik =      41 coord.:    0.3095238   0.3095238   0.3095238
     -------------------------------------------------------------------
     E(   2 )=  -5.5401 eV   Re[Sigma]=     813.168932 meV Im[Sigma]=       0.000000 meV     Z=       0.377681 lam=       1.647739
     E(   3 )=  -1.5055 eV   Re[Sigma]=     967.967865 meV Im[Sigma]=       0.000000 meV     Z=       0.303414 lam=       2.295824
     E(   4 )=  -1.4714 eV   Re[Sigma]=    1191.391912 meV Im[Sigma]=       0.000000 meV     Z=       0.221779 lam=       3.508994
     E(   5 )=   1.1710 eV   Re[Sigma]=   -1201.651666 meV Im[Sigma]=       0.000000 meV     Z=       0.218811 lam=       3.570150
     E(   6 )=   2.9448 eV   Re[Sigma]=   -1309.466123 meV Im[Sigma]=       0.000000 meV     Z=       0.191515 lam=       4.221523
     E(   7 )=   2.9810 eV   Re[Sigma]=   -1099.491666 meV Im[Sigma]=       0.000000 meV     Z=       0.252409 lam=       2.961821
     E(   8 )=   6.8300 eV   Re[Sigma]=   -1067.043036 meV Im[Sigma]=       0.000000 meV     Z=       0.261874 lam=       2.818631
     -------------------------------------------------------------------


     ik =      42 coord.:    0.3047619   0.3047619   0.3047619
     -------------------------------------------------------------------
     E(   2 )=  -5.4630 eV   Re[Sigma]=     810.583290 meV Im[Sigma]=       0.000000 meV     Z=       0.379099 lam=       1.637833
     E(   3 )=  -1.4945 eV   Re[Sigma]=     965.314617 meV Im[Sigma]=       0.000000 meV     Z=       0.304560 lam=       2.283428
     E(   4 )=  -1.4624 eV   Re[Sigma]=    1198.296159 meV Im[Sigma]=       0.000000 meV     Z=       0.219790 lam=       3.549792
     E(   5 )=   1.1859 eV   Re[Sigma]=   -1206.211273 meV Im[Sigma]=       0.000000 meV     Z=       0.217508 lam=       3.597532
     E(   6 )=   2.9455 eV   Re[Sigma]=   -1312.823616 meV Im[Sigma]=       0.000000 meV     Z=       0.190734 lam=       4.242917
     E(   7 )=   2.9794 eV   Re[Sigma]=   -1086.664127 meV Im[Sigma]=       0.000000 meV     Z=       0.256857 lam=       2.893216
     E(   8 )=   6.7926 eV   Re[Sigma]=   -1049.224136 meV Im[Sigma]=       0.000000 meV     Z=       0.268383 lam=       2.726021
     -------------------------------------------------------------------


     ik =      43 coord.:    0.3000000   0.3000000   0.3000000
     -------------------------------------------------------------------
     E(   2 )=  -5.3852 eV   Re[Sigma]=     808.033816 meV Im[Sigma]=       0.000000 meV     Z=       0.380502 lam=       1.628107
     E(   3 )=  -1.4834 eV   Re[Sigma]=     962.545553 meV Im[Sigma]=       0.000000 meV     Z=       0.305760 lam=       2.270540
     E(   4 )=  -1.4535 eV   Re[Sigma]=    1205.346375 meV Im[Sigma]=       0.000000 meV     Z=       0.217791 lam=       3.591554
     E(   5 )=   1.2011 eV   Re[Sigma]=   -1210.705018 meV Im[Sigma]=       0.000000 meV     Z=       0.216235 lam=       3.624595
     E(   6 )=   2.9454 eV   Re[Sigma]=   -1316.423079 meV Im[Sigma]=       0.000000 meV     Z=       0.189901 lam=       4.265910
     E(   7 )=   2.9769 eV   Re[Sigma]=   -1073.726110 meV Im[Sigma]=       0.000000 meV     Z=       0.261449 lam=       2.824836
     E(   8 )=   6.7524 eV   Re[Sigma]=   -1031.923133 meV Im[Sigma]=       0.000000 meV     Z=       0.274899 lam=       2.637697
     -------------------------------------------------------------------


     ik =      44 coord.:    0.2952381   0.2952381   0.2952381
     -------------------------------------------------------------------
     E(   2 )=  -5.3067 eV   Re[Sigma]=     805.516564 meV Im[Sigma]=       0.000000 meV     Z=       0.381892 lam=       1.618542
     E(   3 )=  -1.4723 eV   Re[Sigma]=     959.658960 meV Im[Sigma]=       0.000000 meV     Z=       0.307016 lam=       2.257159
     E(   4 )=  -1.4448 eV   Re[Sigma]=    1212.516880 meV Im[Sigma]=       0.000000 meV     Z=       0.215789 lam=       3.634149
     E(   5 )=   1.2167 eV   Re[Sigma]=   -1215.127981 meV Im[Sigma]=       0.000000 meV     Z=       0.214993 lam=       3.651308
     E(   6 )=   2.9445 eV   Re[Sigma]=   -1320.269093 meV Im[Sigma]=       0.000000 meV     Z=       0.189015 lam=       4.290583
     E(   7 )=   2.9734 eV   Re[Sigma]=   -1060.746769 meV Im[Sigma]=       0.000000 meV     Z=       0.266165 lam=       2.757066
     E(   8 )=   6.7095 eV   Re[Sigma]=   -1015.171610 meV Im[Sigma]=       0.000000 meV     Z=       0.281399 lam=       2.553675
     -------------------------------------------------------------------


     ik =      45 coord.:    0.2904762   0.2904762   0.2904762
     -------------------------------------------------------------------
     E(   2 )=  -5.2274 eV   Re[Sigma]=     803.028469 meV Im[Sigma]=       0.000000 meV     Z=       0.383270 lam=       1.609124
     E(   3 )=  -1.4612 eV   Re[Sigma]=     956.654608 meV Im[Sigma]=       0.000000 meV     Z=       0.308329 lam=       2.243289
     E(   4 )=  -1.4361 eV   Re[Sigma]=    1219.781027 meV Im[Sigma]=       0.000000 meV     Z=       0.213792 lam=       3.677444
     E(   5 )=   1.2326 eV   Re[Sigma]=   -1219.475551 meV Im[Sigma]=       0.000000 meV     Z=       0.213783 lam=       3.677640
     E(   6 )=   2.9428 eV   Re[Sigma]=   -1324.363656 meV Im[Sigma]=       0.000000 meV     Z=       0.188076 lam=       4.317003
     E(   7 )=   2.9690 eV   Re[Sigma]=   -1047.791627 meV Im[Sigma]=       0.000000 meV     Z=       0.270984 lam=       2.690253
     E(   8 )=   6.6637 eV   Re[Sigma]=    -998.994306 meV Im[Sigma]=       0.000000 meV     Z=       0.287858 lam=       2.473930
     -------------------------------------------------------------------


     ik =      46 coord.:    0.2857143   0.2857143   0.2857143
     -------------------------------------------------------------------
     E(   2 )=  -5.1474 eV   Re[Sigma]=     800.567290 meV Im[Sigma]=       0.000000 meV     Z=       0.384639 lam=       1.599841
     E(   3 )=  -1.4499 eV   Re[Sigma]=     953.533768 meV Im[Sigma]=       0.000000 meV     Z=       0.309699 lam=       2.228939
     E(   4 )=  -1.4275 eV   Re[Sigma]=    1227.111238 meV Im[Sigma]=       0.000000 meV     Z=       0.211806 lam=       3.721299
     E(   5 )=   1.2487 eV   Re[Sigma]=   -1223.743376 meV Im[Sigma]=       0.000000 meV     Z=       0.212605 lam=       3.703563
     E(   6 )=   2.9403 eV   Re[Sigma]=   -1328.705925 meV Im[Sigma]=       0.000000 meV     Z=       0.187083 lam=       4.345220
     E(   7 )=   2.9636 eV   Re[Sigma]=   -1034.922019 meV Im[Sigma]=       0.000000 meV     Z=       0.275884 lam=       2.624707
     E(   8 )=   6.6152 eV   Re[Sigma]=    -983.409848 meV Im[Sigma]=       0.000000 meV     Z=       0.294256 lam=       2.398402
     -------------------------------------------------------------------


     ik =      47 coord.:    0.2809524   0.2809524   0.2809524
     -------------------------------------------------------------------
     E(   2 )=  -5.0667 eV   Re[Sigma]=     798.131559 meV Im[Sigma]=       0.000000 meV     Z=       0.385998 lam=       1.590684
     E(   3 )=  -1.4386 eV   Re[Sigma]=     950.299202 meV Im[Sigma]=       0.000000 meV     Z=       0.311127 lam=       2.214126
     E(   4 )=  -1.4190 eV   Re[Sigma]=    1234.479025 meV Im[Sigma]=       0.000000 meV     Z=       0.209839 lam=       3.765570
     E(   5 )=   1.2652 eV   Re[Sigma]=   -1227.927290 meV Im[Sigma]=       0.000000 meV     Z=       0.211459 lam=       3.729047
     E(   6 )=   2.9370 eV   Re[Sigma]=   -1333.291934 meV Im[Sigma]=       0.000000 meV     Z=       0.186037 lam=       4.375268
     E(   7 )=   2.9573 eV   Re[Sigma]=   -1022.194710 meV Im[Sigma]=       0.000000 meV     Z=       0.280844 lam=       2.560697
     E(   8 )=   6.5639 eV   Re[Sigma]=    -968.431467 meV Im[Sigma]=       0.000000 meV     Z=       0.300570 lam=       2.327007
     -------------------------------------------------------------------


     ik =      48 coord.:    0.2761905   0.2761905   0.2761905
     -------------------------------------------------------------------
     E(   2 )=  -4.9852 eV   Re[Sigma]=     795.720541 meV Im[Sigma]=       0.000000 meV     Z=       0.387350 lam=       1.581646
     E(   3 )=  -1.4272 eV   Re[Sigma]=     946.955154 meV Im[Sigma]=       0.000000 meV     Z=       0.312610 lam=       2.198874
     E(   4 )=  -1.4104 eV   Re[Sigma]=    1241.854994 meV Im[Sigma]=       0.000000 meV     Z=       0.207896 lam=       3.810108
     E(   5 )=   1.2820 eV   Re[Sigma]=   -1232.023247 meV Im[Sigma]=       0.000000 meV     Z=       0.210346 lam=       3.754064
     E(   6 )=   2.9328 eV   Re[Sigma]=   -1338.114299 meV Im[Sigma]=       0.000000 meV     Z=       0.184940 lam=       4.407155
     E(   7 )=   2.9501 eV   Re[Sigma]=   -1009.661672 meV Im[Sigma]=       0.000000 meV     Z=       0.285840 lam=       2.498455
     E(   8 )=   6.5099 eV   Re[Sigma]=    -954.067666 meV Im[Sigma]=       0.000000 meV     Z=       0.306783 lam=       2.259638
     -------------------------------------------------------------------


     ik =      49 coord.:    0.2714286   0.2714286   0.2714286
     -------------------------------------------------------------------
     E(   2 )=  -4.9030 eV   Re[Sigma]=     793.334195 meV Im[Sigma]=       0.000000 meV     Z=       0.388693 lam=       1.572724
     E(   3 )=  -1.4157 eV   Re[Sigma]=     943.507322 meV Im[Sigma]=       0.000000 meV     Z=       0.314148 lam=       2.183211
     E(   4 )=  -1.4019 eV   Re[Sigma]=    1249.208847 meV Im[Sigma]=       0.000000 meV     Z=       0.205983 lam=       3.854758
     E(   5 )=   1.2990 eV   Re[Sigma]=   -1236.027236 meV Im[Sigma]=       0.000000 meV     Z=       0.209267 lam=       3.778587
     E(   6 )=   2.9277 eV   Re[Sigma]=   -1343.161927 meV Im[Sigma]=       0.000000 meV     Z=       0.183794 lam=       4.440866
     E(   7 )=   2.9419 eV   Re[Sigma]=    -997.369992 meV Im[Sigma]=       0.000000 meV     Z=       0.290852 lam=       2.438175
     E(   8 )=   6.4533 eV   Re[Sigma]=    -940.322848 meV Im[Sigma]=       0.000000 meV     Z=       0.312874 lam=       2.196175
     -------------------------------------------------------------------


     ik =      50 coord.:    0.2666667   0.2666667   0.2666667
     -------------------------------------------------------------------
     E(   2 )=  -4.8201 eV   Re[Sigma]=     790.973144 meV Im[Sigma]=       0.000000 meV     Z=       0.390028 lam=       1.563916
     E(   3 )=  -1.4041 eV   Re[Sigma]=     939.962820 meV Im[Sigma]=       0.000000 meV     Z=       0.315739 lam=       2.167172
     E(   4 )=  -1.3933 eV   Re[Sigma]=    1256.509369 meV Im[Sigma]=       0.000000 meV     Z=       0.204108 lam=       3.899358
     E(   5 )=   1.3163 eV   Re[Sigma]=   -1239.935195 meV Im[Sigma]=       0.000000 meV     Z=       0.208221 lam=       3.802588
     E(   6 )=   2.9217 eV   Re[Sigma]=   -1348.419749 meV Im[Sigma]=       0.000000 meV     Z=       0.182603 lam=       4.476355
     E(   7 )=   2.9327 eV   Re[Sigma]=    -985.361902 meV Im[Sigma]=       0.000000 meV     Z=       0.295856 lam=       2.380017
     E(   8 )=   6.3941 eV   Re[Sigma]=    -927.197894 meV Im[Sigma]=       0.000000 meV     Z=       0.318828 lam=       2.136487
     -------------------------------------------------------------------


     ik =      51 coord.:    0.2619048   0.2619048   0.2619048
     -------------------------------------------------------------------
     E(   2 )=  -4.7365 eV   Re[Sigma]=     788.638650 meV Im[Sigma]=       0.000000 meV     Z=       0.391355 lam=       1.555223
     E(   3 )=  -1.3923 eV   Re[Sigma]=     936.330132 meV Im[Sigma]=       0.000000 meV     Z=       0.317380 lam=       2.150797
     E(   4 )=  -1.3846 eV   Re[Sigma]=    1263.724411 meV Im[Sigma]=       0.000000 meV     Z=       0.202276 lam=       3.943739
     E(   5 )=   1.3338 eV   Re[Sigma]=   -1243.742915 meV Im[Sigma]=       0.000000 meV     Z=       0.207209 lam=       3.826036
     E(   6 )=   2.9149 eV   Re[Sigma]=   -1353.868487 meV Im[Sigma]=       0.000000 meV     Z=       0.181371 lam=       4.513547
     E(   7 )=   2.9227 eV   Re[Sigma]=    -973.674883 meV Im[Sigma]=       0.000000 meV     Z=       0.300832 lam=       2.324109
     E(   8 )=   6.3323 eV   Re[Sigma]=    -914.690690 meV Im[Sigma]=       0.000000 meV     Z=       0.324630 lam=       2.080434
     -------------------------------------------------------------------


     ik =      52 coord.:    0.2571429   0.2571429   0.2571429
     -------------------------------------------------------------------
     E(   2 )=  -4.6522 eV   Re[Sigma]=     786.332588 meV Im[Sigma]=       0.000000 meV     Z=       0.392673 lam=       1.546648
     E(   3 )=  -1.3804 eV   Re[Sigma]=     932.619056 meV Im[Sigma]=       0.000000 meV     Z=       0.319068 lam=       2.134133
     E(   4 )=  -1.3758 eV   Re[Sigma]=    1270.820880 meV Im[Sigma]=       0.000000 meV     Z=       0.200492 lam=       3.987723
     E(   5 )=   1.3516 eV   Re[Sigma]=   -1247.445943 meV Im[Sigma]=       0.000000 meV     Z=       0.206232 lam=       3.848899
     E(   6 )=   2.9071 eV   Re[Sigma]=   -1359.484473 meV Im[Sigma]=       0.000000 meV     Z=       0.180105 lam=       4.552330
     E(   7 )=   2.9118 eV   Re[Sigma]=    -962.341858 meV Im[Sigma]=       0.000000 meV     Z=       0.305759 lam=       2.270548
     E(   8 )=   6.2681 eV   Re[Sigma]=    -902.796601 meV Im[Sigma]=       0.000000 meV     Z=       0.330265 lam=       2.027874
     -------------------------------------------------------------------


     ik =      53 coord.:    0.2523810   0.2523810   0.2523810
     -------------------------------------------------------------------
     E(   2 )=  -4.5672 eV   Re[Sigma]=     784.057431 meV Im[Sigma]=       0.000000 meV     Z=       0.393981 lam=       1.538195
     E(   3 )=  -1.3684 eV   Re[Sigma]=     928.840641 meV Im[Sigma]=       0.000000 meV     Z=       0.320798 lam=       2.117228
     E(   4 )=  -1.3668 eV   Re[Sigma]=    1277.764731 meV Im[Sigma]=       0.000000 meV     Z=       0.198763 lam=       4.031121
     E(   5 )=   1.3696 eV   Re[Sigma]=   -1251.039483 meV Im[Sigma]=       0.000000 meV     Z=       0.205291 lam=       3.871144
     E(   6 )=   2.8984 eV   Re[Sigma]=   -1365.239538 meV Im[Sigma]=       0.000000 meV     Z=       0.178809 lam=       4.592553
     E(   7 )=   2.9000 eV   Re[Sigma]=    -951.391422 meV Im[Sigma]=       0.000000 meV     Z=       0.310616 lam=       2.219408
     E(   8 )=   6.2015 eV   Re[Sigma]=    -891.508894 meV Im[Sigma]=       0.000000 meV     Z=       0.335721 lam=       1.978662
     -------------------------------------------------------------------


     ik =      54 coord.:    0.2476190   0.2476190   0.2476190
     -------------------------------------------------------------------
     E(   2 )=  -4.4815 eV   Re[Sigma]=     781.817606 meV Im[Sigma]=       0.000000 meV     Z=       0.395277 lam=       1.529872
     E(   3 )=  -1.3577 eV   Re[Sigma]=     928.708849 meV Im[Sigma]=       0.000000 meV     Z=       0.321051 lam=       2.114767
     E(   4 )=  -1.3562 eV   Re[Sigma]=    1277.824817 meV Im[Sigma]=       0.000000 meV     Z=       0.198648 lam=       4.034024
     E(   5 )=   1.3879 eV   Re[Sigma]=   -1254.502936 meV Im[Sigma]=       0.000000 meV     Z=       0.204384 lam=       3.892742
     E(   6 )=   2.8874 eV   Re[Sigma]=   -1364.047526 meV Im[Sigma]=       0.000000 meV     Z=       0.179019 lam=       4.586014
     E(   7 )=   2.8889 eV   Re[Sigma]=    -944.173105 meV Im[Sigma]=       0.000000 meV     Z=       0.313851 lam=       2.186227
     E(   8 )=   6.1325 eV   Re[Sigma]=    -880.820117 meV Im[Sigma]=       0.000000 meV     Z=       0.340988 lam=       1.932653
     -------------------------------------------------------------------


     ik =      55 coord.:    0.2428571   0.2428571   0.2428571
     -------------------------------------------------------------------
     E(   2 )=  -4.3952 eV   Re[Sigma]=     779.614117 meV Im[Sigma]=       0.000000 meV     Z=       0.396559 lam=       1.521690
     E(   3 )=  -1.3484 eV   Re[Sigma]=     931.245532 meV Im[Sigma]=       0.000000 meV     Z=       0.319813 lam=       2.126829
[...]
      214        8        9.0868        8.0000     -241.8434        1.9977
      215        8        9.1346        6.0000      -74.3697        0.3376
      215        8        9.1346        6.1053      -78.0346        0.3590
      215        8        9.1346        6.2105      -81.9354        0.3825
      215        8        9.1346        6.3158      -86.0960        0.4084
      215        8        9.1346        6.4211      -90.5430        0.4370
      215        8        9.1346        6.5263      -95.3073        0.4688
      215        8        9.1346        6.6316     -100.4240        0.5041
      215        8        9.1346        6.7368     -105.9338        0.5436
      215        8        9.1346        6.8421     -111.8839        0.5879
      215        8        9.1346        6.9474     -118.3293        0.6378
      215        8        9.1346        7.0526     -125.3347        0.6945
      215        8        9.1346        7.1579     -132.9766        0.7590
      215        8        9.1346        7.2632     -141.3459        0.8330
      215        8        9.1346        7.3684     -150.5520        0.9184
      215        8        9.1346        7.4737     -160.7273        1.0176
      215        8        9.1346        7.5789     -172.0338        1.1339
      215        8        9.1346        7.6842     -184.6720        1.2714
      215        8        9.1346        7.7895     -198.8925        1.4357
      215        8        9.1346        7.8947     -215.0139        1.6341
      215        8        9.1346        8.0000     -233.4463        1.8768
      216        8        9.1786        6.0000      -73.2163        0.3299
      216        8        9.1786        6.1053      -76.7964        0.3506
      216        8        9.1786        6.2105      -80.6043        0.3733
      216        8        9.1786        6.3158      -84.6624        0.3982
      216        8        9.1786        6.4211      -88.9962        0.4257
      216        8        9.1786        6.5263      -93.6348        0.4562
      216        8        9.1786        6.6316      -98.6117        0.4901
      216        8        9.1786        6.7368     -103.9652        0.5278
      216        8        9.1786        6.8421     -109.7399        0.5702
      216        8        9.1786        6.9474     -115.9875        0.6178
      216        8        9.1786        7.0526     -122.7687        0.6717
      216        8        9.1786        7.1579     -130.1550        0.7330
      216        8        9.1786        7.2632     -138.2313        0.8031
      216        8        9.1786        7.3684     -147.0992        0.8838
      216        8        9.1786        7.4737     -156.8815        0.9773
      216        8        9.1786        7.5789     -167.7275        1.0865
      216        8        9.1786        7.6842     -179.8210        1.2151
      216        8        9.1786        7.7895     -193.3913        1.3680
      216        8        9.1786        7.8947     -208.7272        1.5518
      216        8        9.1786        8.0000     -226.1988        1.7756
      217        8        9.2189        6.0000      -72.2053        0.3233
      217        8        9.2189        6.1053      -75.7119        0.3433
      217        8        9.2189        6.2105      -79.4390        0.3652
      217        8        9.2189        6.3158      -83.4082        0.3893
      217        8        9.2189        6.4211      -87.6439        0.4159
      217        8        9.2189        6.5263      -92.1739        0.4453
      217        8        9.2189        6.6316      -97.0300        0.4779
      217        8        9.2189        6.7368     -102.2487        0.5143
      217        8        9.2189        6.8421     -107.8722        0.5550
      217        8        9.2189        6.9474     -113.9497        0.6007
      217        8        9.2189        7.0526     -120.5385        0.6523
      217        8        9.2189        7.1579     -127.7059        0.7108
      217        8        9.2189        7.2632     -135.5318        0.7777
      217        8        9.2189        7.3684     -144.1116        0.8544
      217        8        9.2189        7.4737     -153.5597        0.9430
      217        8        9.2189        7.5789     -164.0153        1.0463
      217        8        9.2189        7.6842     -175.6490        1.1675
      217        8        9.2189        7.7895     -188.6723        1.3112
      217        8        9.2189        7.8947     -203.3504        1.4832
      217        8        9.2189        8.0000     -220.0214        1.6914
      218        8        9.2551        6.0000      -71.3311        0.3175
      218        8        9.2551        6.1053      -74.7745        0.3370
      218        8        9.2551        6.2105      -78.4324        0.3583
      218        8        9.2551        6.3158      -82.3255        0.3817
      218        8        9.2551        6.4211      -86.4773        0.4075
      218        8        9.2551        6.5263      -90.9144        0.4360
      218        8        9.2551        6.6316      -95.6673        0.4676
      218        8        9.2551        6.7368     -100.7710        0.5028
      218        8        9.2551        6.8421     -106.2659        0.5420
      218        8        9.2551        6.9474     -112.1987        0.5861
      218        8        9.2551        7.0526     -118.6240        0.6358
      218        8        9.2551        7.1579     -125.6059        0.6920
      218        8        9.2551        7.2632     -133.2201        0.7561
      218        8        9.2551        7.3684     -141.5566        0.8296
      218        8        9.2551        7.4737     -150.7233        0.9143
      218        8        9.2551        7.5789     -160.8511        1.0126
      218        8        9.2551        7.6842     -172.0997        1.1278
      218        8        9.2551        7.7895     -184.6664        1.2639
      218        8        9.2551        7.8947     -198.7976        1.4262
      218        8        9.2551        8.0000     -214.8057        1.6219
      219        8        9.2873        6.0000      -70.5893        0.3127
      219        8        9.2873        6.1053      -73.9794        0.3317
      219        8        9.2873        6.2105      -77.5790        0.3525
      219        8        9.2873        6.3158      -81.4080        0.3754
      219        8        9.2873        6.4211      -85.4891        0.4005
      219        8        9.2873        6.5263      -89.8481        0.4282
      219        8        9.2873        6.6316      -94.5144        0.4589
      219        8        9.2873        6.7368      -99.5216        0.4931
      219        8        9.2873        6.8421     -104.9086        0.5312
      219        8        9.2873        6.9474     -110.7203        0.5739
      219        8        9.2873        7.0526     -117.0091        0.6220
      219        8        9.2873        7.1579     -123.8361        0.6764
      219        8        9.2873        7.2632     -131.2738        0.7382
      219        8        9.2873        7.3684     -139.4078        0.8089
      219        8        9.2873        7.4737     -148.3410        0.8904
      219        8        9.2873        7.5789     -158.1972        0.9848
      219        8        9.2873        7.6842     -169.1275        1.0950
      219        8        9.2873        7.7895     -181.3179        1.2249
      219        8        9.2873        7.8947     -194.9998        1.3794
      219        8        9.2873        8.0000     -210.4653        1.5651
      220        8        9.3154        6.0000      -69.9695        0.3087
      220        8        9.3154        6.1053      -73.3154        0.3273
      220        8        9.3154        6.2105      -76.8665        0.3477
      220        8        9.3154        6.3158      -80.6423        0.3701
      220        8        9.3154        6.4211      -84.6648        0.3946
      220        8        9.3154        6.5263      -88.9590        0.4217
      220        8        9.3154        6.6316      -93.5536        0.4517
      220        8        9.3154        6.7368      -98.4810        0.4851
      220        8        9.3154        6.8421     -103.7789        0.5222
      220        8        9.3154        6.9474     -109.4906        0.5638
      220        8        9.3154        7.0526     -115.6667        0.6106
      220        8        9.3154        7.1579     -122.3663        0.6634
      220        8        9.3154        7.2632     -129.6587        0.7235
      220        8        9.3154        7.3684     -137.6266        0.7920
      220        8        9.3154        7.4737     -146.3682        0.8708
      220        8        9.3154        7.5789     -156.0022        0.9620
      220        8        9.3154        7.6842     -166.6727        1.0683
      220        8        9.3154        7.7895     -178.5565        1.1932
      220        8        9.3154        7.8947     -191.8734        1.3415
      220        8        9.3154        8.0000     -206.8995        1.5192
      221        8        9.3393        6.0000      -69.4539        0.3054
      221        8        9.3393        6.1053      -72.7633        0.3237
      221        8        9.3393        6.2105      -76.2745        0.3437
      221        8        9.3393        6.3158      -80.0065        0.3657
      221        8        9.3393        6.4211      -83.9808        0.3898
      221        8        9.3393        6.5263      -88.2219        0.4164
      221        8        9.3393        6.6316      -92.7575        0.4459
      221        8        9.3393        6.7368      -97.6195        0.4785
      221        8        9.3393        6.8421     -102.8444        0.5149
      221        8        9.3393        6.9474     -108.4743        0.5556
      221        8        9.3393        7.0526     -114.5583        0.6013
      221        8        9.3393        7.1579     -121.1538        0.6529
      221        8        9.3393        7.2632     -128.3280        0.7115
      221        8        9.3393        7.3684     -136.1605        0.7783
      221        8        9.3393        7.4737     -144.7466        0.8549
      221        8        9.3393        7.5789     -154.2004        0.9435
      221        8        9.3393        7.6842     -164.6605        1.0467
      221        8        9.3393        7.7895     -176.2967        1.1677
      221        8        9.3393        7.8947     -189.3195        1.3110
      221        8        9.3393        8.0000     -203.9924        1.4824
      222        8        9.3590        6.0000      -69.0504        0.3028
      222        8        9.3590        6.1053      -72.3316        0.3209
      222        8        9.3590        6.2105      -75.8120        0.3407
      222        8        9.3590        6.3158      -79.5103        0.3623
      222        8        9.3590        6.4211      -83.4476        0.3861
      222        8        9.3590        6.5263      -87.6478        0.4124
      222        8        9.3590        6.6316      -92.1382        0.4413
      222        8        9.3590        6.7368      -96.9500        0.4735
      222        8        9.3590        6.8421     -102.1190        0.5093
      222        8        9.3590        6.9474     -107.6864        0.5493
      222        8        9.3590        7.0526     -113.7002        0.5942
      222        8        9.3590        7.1579     -120.2163        0.6449
      222        8        9.3590        7.2632     -127.3005        0.7023
      222        8        9.3590        7.3684     -135.0303        0.7678
      222        8        9.3590        7.4737     -143.4983        0.8429
      222        8        9.3590        7.5789     -152.8156        0.9296
      222        8        9.3590        7.6842     -163.1168        1.0303
      222        8        9.3590        7.7895     -174.5664        1.1484
      222        8        9.3590        7.8947     -187.3679        1.2880
      222        8        9.3590        8.0000     -201.7759        1.4547
      223        8        9.3743        6.0000      -68.7562        0.3010
      223        8        9.3743        6.1053      -72.0173        0.3189
      223        8        9.3743        6.2105      -75.4758        0.3385
      223        8        9.3743        6.3158      -79.1501        0.3600
      223        8        9.3743        6.4211      -83.0611        0.3835
      223        8        9.3743        6.5263      -87.2324        0.4095
      223        8        9.3743        6.6316      -91.6909        0.4381
      223        8        9.3743        6.7368      -96.4673        0.4699
      223        8        9.3743        6.8421     -101.5968        0.5053
      223        8        9.3743        6.9474     -107.1203        0.5449
      223        8        9.3743        7.0526     -113.0847        0.5893
      223        8        9.3743        7.1579     -119.5452        0.6393
      223        8        9.3743        7.2632     -126.5663        0.6960
      223        8        9.3743        7.3684     -134.2244        0.7605
      223        8        9.3743        7.4737     -142.6102        0.8345
      223        8        9.3743        7.5789     -151.8326        0.9199
      223        8        9.3743        7.6842     -162.0235        1.0190
      223        8        9.3743        7.7895     -173.3438        1.1351
      223        8        9.3743        7.8947     -185.9925        1.2722
      223        8        9.3743        8.0000     -200.2179        1.4357
      224        8        9.3853        6.0000      -68.5814        0.2999
      224        8        9.3853        6.1053      -71.8310        0.3178
      224        8        9.3853        6.2105      -75.2769        0.3373
      224        8        9.3853        6.3158      -78.9374        0.3586
      224        8        9.3853        6.4211      -82.8333        0.3820
      224        8        9.3853        6.5263      -86.9881        0.4078
      224        8        9.3853        6.6316      -91.4284        0.4363
      224        8        9.3853        6.7368      -96.1846        0.4679
      224        8        9.3853        6.8421     -101.2918        0.5031
      224        8        9.3853        6.9474     -106.7903        0.5424
      224        8        9.3853        7.0526     -112.7268        0.5865
      224        8        9.3853        7.1579     -119.1559        0.6361
      224        8        9.3853        7.2632     -126.1415        0.6924
      224        8        9.3853        7.3684     -133.7593        0.7565
      224        8        9.3853        7.4737     -142.0989        0.8298
      224        8        9.3853        7.5789     -151.2682        0.9145
      224        8        9.3853        7.6842     -161.3974        1.0127
      224        8        9.3853        7.7895     -172.6458        1.1277
      224        8        9.3853        7.8947     -185.2094        1.2634
      224        8        9.3853        8.0000     -199.3335        1.4252
      225        8        9.3919        6.0000      -68.5401        0.2997
      225        8        9.3919        6.1053      -71.7872        0.3175
      225        8        9.3919        6.2105      -75.2305        0.3370
      225        8        9.3919        6.3158      -78.8881        0.3583
      225        8        9.3919        6.4211      -82.7809        0.3817
      225        8        9.3919        6.5263      -86.9322        0.4075
      225        8        9.3919        6.6316      -91.3688        0.4360
      225        8        9.3919        6.7368      -96.1209        0.4675
      225        8        9.3919        6.8421     -101.2235        0.5026
      225        8        9.3919        6.9474     -106.7170        0.5419
      225        8        9.3919        7.0526     -112.6480        0.5859
      225        8        9.3919        7.1579     -119.0708        0.6355
      225        8        9.3919        7.2632     -126.0495        0.6917
      225        8        9.3919        7.3684     -133.6593        0.7557
      225        8        9.3919        7.4737     -141.9900        0.8289
      225        8        9.3919        7.5789     -151.1490        0.9134
      225        8        9.3919        7.6842     -161.2665        1.0115
      225        8        9.3919        7.7895     -172.5010        1.1263
      225        8        9.3919        7.8947     -185.0486        1.2617
      225        8        9.3919        8.0000     -199.1535        1.4232
      226        8        9.3941        6.0000      -68.6369        0.3003
      226        8        9.3941        6.1053      -71.8909        0.3182
      226        8        9.3941        6.2105      -75.3417        0.3377
      226        8        9.3941        6.3158      -79.0076        0.3591
      226        8        9.3941        6.4211      -82.9095        0.3826
      226        8        9.3941        6.5263      -87.0708        0.4085
      226        8        9.3941        6.6316      -91.5184        0.4371
      226        8        9.3941        6.7368      -96.2829        0.4688
      226        8        9.3941        6.8421     -101.3992        0.5040
      226        8        9.3941        6.9474     -106.9080        0.5434
      226        8        9.3941        7.0526     -112.8562        0.5876
      226        8        9.3941        7.1579     -119.2986        0.6375
      226        8        9.3941        7.2632     -126.2993        0.6939
      226        8        9.3941        7.3684     -133.9342        0.7582
      226        8        9.3941        7.4737     -142.2938        0.8319
      226        8        9.3941        7.5789     -151.4861        0.9168
      226        8        9.3941        7.6842     -161.6423        1.0155
      226        8        9.3941        7.7895     -172.9222        1.1309
      226        8        9.3941        7.8947     -185.5234        1.2673
      226        8        9.3941        8.0000     -199.6924        1.4299
  
     ===================================================================
     Memory usage:  VmHWM =        48Mb
                   VmPeak =       674Mb
     ===================================================================


     Unfolding on the coarse grid
     elphon_wrap  :      0.90s CPU      0.97s WALL (       1 calls)

     INITIALIZATION: 

     init_vloc    :      0.00s CPU      0.00s WALL (       1 calls)
     init_us_1    :      0.01s CPU      0.01s WALL (       1 calls)



     Electron-Phonon interpolation
     ephwann      :      4.50s CPU      5.02s WALL (       1 calls)
     ep-interp    :      4.38s CPU      4.88s WALL (     512 calls)

     Ham: step 1  :      0.00s CPU      0.00s WALL (       1 calls)
     Ham: step 2  :      0.00s CPU      0.00s WALL (       1 calls)
     ep: step 1   :      0.00s CPU      0.00s WALL (       6 calls)
     ep: step 2   :      4.45s CPU      4.97s WALL (       1 calls)
     DynW2B       :      0.01s CPU      0.01s WALL (     512 calls)
     HamW2B       :      1.16s CPU      1.29s WALL (   59051 calls)
     ephW2Bp      :      0.51s CPU      0.58s WALL (     512 calls)
     ephW2B       :      1.03s CPU      1.11s WALL (   29184 calls)


     Total program execution
     EPW          :     14.03s CPU     14.70s WALL

                                                                                          
 Please consider citing:                                                                  
 S. Ponce, E. R. Margine, C. Verdi and F. Giustino, Comput. Phys. Commun. 209, 116 (2016) 
                                                                                          
 In addition, since you have used the following functionalities, please cite:             
   plselfen or specfun_pl :: F. Caruso, C. Verdi, S. Ponce and F. Giustino, Phys. Rev. B 97, 165113 (2018) 
