MPI startup(): Warning: I_MPI_PMI_LIBRARY will be ignored since the hydra process manager was found
MPI startup(): Warning: I_MPI_PMI_LIBRARY will be ignored since the hydra process manager was found
MPI startup(): Warning: I_MPI_PMI_LIBRARY will be ignored since the hydra process manager was found
MPI startup(): Warning: I_MPI_PMI_LIBRARY will be ignored since the hydra process manager was found

     Program PWSCF v.7.2 starts on  7Dec2023 at 19: 1:33 

     This program is part of the open-source Quantum ESPRESSO suite
     for quantum simulation of materials; please cite
         "P. Giannozzi et al., J. Phys.:Condens. Matter 21 395502 (2009);
         "P. Giannozzi et al., J. Phys.:Condens. Matter 29 465901 (2017);
         "P. Giannozzi et al., J. Chem. Phys. 152 154105 (2020);
          URL http://www.quantum-espresso.org", 
     in publications or presentations arising from this work. More details at
     http://www.quantum-espresso.org/quote

     Parallel version (MPI), running on     4 processors

     MPI processes distributed on     1 nodes
     38362 MiB available memory on the printing compute node when the environment starts
 
     Waiting for input...
     Reading input from standard input

     Current dimensions of program PWSCF are:
     Max number of different atomic species (ntypx) = 10
     Max number of k-points (npk) =  40000
     Max angular momentum in pseudopotentials (lmaxx) =  4
 
     R & G space division:  proc/nbgrp/npool/nimage =       4
     Subspace diagonalization in iterative solution of the eigenvalue problem:
     a serial algorithm will be used

 
     Parallelization info
     --------------------
     sticks:   dense  smooth     PW     G-vecs:    dense   smooth      PW
     Min         112     112     34                 1604     1604     266
     Max         113     113     35                 1607     1607     267
     Sum         451     451    139                 6423     6423    1067
 
     Using Slab Decomposition
 


     bravais-lattice index     =            2
     lattice parameter (alat)  =       9.1100  a.u.
     unit-cell volume          =     189.0145 (a.u.)^3
     number of atoms/cell      =            2
     number of atomic types    =            2
     number of electrons       =         8.00
     number of Kohn-Sham states=            4
     kinetic-energy cutoff     =      40.0000  Ry
     charge density cutoff     =     160.0000  Ry
     scf convergence threshold =      1.0E-10
     mixing beta               =       0.7000
     number of iterations used =            8  plain     mixing
     Exchange-correlation= SLA  PZ   NOGX NOGC
                           (   1   1   0   0   0   0   0)

     celldm(1)=   9.110000  celldm(2)=   0.000000  celldm(3)=   0.000000
     celldm(4)=   0.000000  celldm(5)=   0.000000  celldm(6)=   0.000000

     crystal axes: (cart. coord. in units of alat)
               a(1) = (  -0.500000   0.000000   0.500000 )  
               a(2) = (   0.000000   0.500000   0.500000 )  
               a(3) = (  -0.500000   0.500000   0.000000 )  

     reciprocal axes: (cart. coord. in units 2 pi/alat)
               b(1) = ( -1.000000 -1.000000  1.000000 )  
               b(2) = (  1.000000  1.000000  1.000000 )  
               b(3) = ( -1.000000  1.000000 -1.000000 )  


     PseudoPot. # 1 for B  read from file:
     ../../pseudo/B.pz-vbc.UPF
     MD5 check sum: 57e6d61f6735028425feb5bdf19679fb
     Pseudo is Norm-conserving, Zval =  3.0
     Generated by new atomic code, or converted to UPF format
     Using radial grid of  157 points,  1 beta functions with: 
                l(1) =   0

     PseudoPot. # 2 for As read from file:
     ../../pseudo/As.pz-bhs.UPF
     MD5 check sum: 2c53d8691f3db84e0fbdf898b12bc293
     Pseudo is Norm-conserving, Zval =  5.0
     Generated by new atomic code, or converted to UPF format
     Using radial grid of  525 points,  2 beta functions with: 
                l(1) =   0
                l(2) =   1

     atomic species   valence    mass     pseudopotential
     B                 3.00    10.81000     B ( 1.00)
     As                5.00    74.92200     As( 1.00)

     24 Sym. Ops. (no inversion) found (18 have fractional translation)



   Cartesian axes

     site n.     atom                  positions (alat units)
         1        B      tau(   1) = (  -0.1250000   0.1250000   0.1250000  )
         2        As     tau(   2) = (   0.1250000  -0.1250000  -0.1250000  )

     number of k points=     4
                       cart. coord. in units 2pi/alat
        k(    1) = (   0.0000000   0.0000000   0.0000000), wk =   0.0740741
        k(    2) = (  -0.3333333   0.3333333  -0.3333333), wk =   0.5925926
        k(    3) = (   0.0000000   0.6666667   0.0000000), wk =   0.4444444
        k(    4) = (   0.6666667  -0.0000000   0.6666667), wk =   0.8888889

     Dense  grid:     6423 G-vectors     FFT dimensions: (  30,  30,  30)

     Estimated max dynamical RAM per process >       1.51 MB

     Estimated total dynamical RAM >       6.06 MB

     Initial potential from superposition of free atoms

     starting charge       7.9995, renormalised to       8.0000
     Starting wfcs are    8 randomized atomic wfcs

     total cpu time spent up to now is        0.1 secs

     Self-consistent Calculation

     iteration #  1     ecut=    40.00 Ry     beta= 0.70
     Davidson diagonalization with overlap
     ethr =  1.00E-02,  avg # of iterations =  2.0

     total cpu time spent up to now is        0.1 secs

     total energy              =     -18.38580379 Ry
     estimated scf accuracy    <       0.12914112 Ry

     iteration #  2     ecut=    40.00 Ry     beta= 0.70
     Davidson diagonalization with overlap
     ethr =  1.61E-03,  avg # of iterations =  2.2

     total cpu time spent up to now is        0.1 secs

     total energy              =     -18.41463825 Ry
     estimated scf accuracy    <       0.01076370 Ry

     iteration #  3     ecut=    40.00 Ry     beta= 0.70
     Davidson diagonalization with overlap
     ethr =  1.35E-04,  avg # of iterations =  2.2

     total cpu time spent up to now is        0.1 secs

     total energy              =     -18.41536070 Ry
     estimated scf accuracy    <       0.00120968 Ry

     iteration #  4     ecut=    40.00 Ry     beta= 0.70
     Davidson diagonalization with overlap
     ethr =  1.51E-05,  avg # of iterations =  3.5

     total cpu time spent up to now is        0.2 secs

     total energy              =     -18.41617955 Ry
     estimated scf accuracy    <       0.00084837 Ry

     iteration #  5     ecut=    40.00 Ry     beta= 0.70
     Davidson diagonalization with overlap
     ethr =  1.06E-05,  avg # of iterations =  1.0

     total cpu time spent up to now is        0.2 secs

     total energy              =     -18.41585140 Ry
     estimated scf accuracy    <       0.00048766 Ry

     iteration #  6     ecut=    40.00 Ry     beta= 0.70
     Davidson diagonalization with overlap
     ethr =  6.10E-06,  avg # of iterations =  2.8

     total cpu time spent up to now is        0.2 secs

     total energy              =     -18.41609521 Ry
     estimated scf accuracy    <       0.00033090 Ry

     iteration #  7     ecut=    40.00 Ry     beta= 0.70
     Davidson diagonalization with overlap
     ethr =  4.14E-06,  avg # of iterations =  1.0

     total cpu time spent up to now is        0.2 secs

     total energy              =     -18.41602738 Ry
     estimated scf accuracy    <       0.00013270 Ry

     iteration #  8     ecut=    40.00 Ry     beta= 0.70
     Davidson diagonalization with overlap
     ethr =  1.66E-06,  avg # of iterations =  2.5

     total cpu time spent up to now is        0.2 secs

     total energy              =     -18.41607891 Ry
     estimated scf accuracy    <       0.00000700 Ry

     iteration #  9     ecut=    40.00 Ry     beta= 0.70
     Davidson diagonalization with overlap
     ethr =  8.75E-08,  avg # of iterations =  5.5

     total cpu time spent up to now is        0.2 secs

     total energy              =     -18.41607476 Ry
     estimated scf accuracy    <       0.00002651 Ry

     iteration # 10     ecut=    40.00 Ry     beta= 0.70
     Davidson diagonalization with overlap
     ethr =  8.75E-08,  avg # of iterations =  2.2

     total cpu time spent up to now is        0.2 secs

     total energy              =     -18.41607194 Ry
     estimated scf accuracy    <       0.00000704 Ry

     iteration # 11     ecut=    40.00 Ry     beta= 0.70
     Davidson diagonalization with overlap
     ethr =  8.75E-08,  avg # of iterations =  3.2

     total cpu time spent up to now is        0.3 secs

     total energy              =     -18.41607462 Ry
     estimated scf accuracy    <       0.00000042 Ry

     iteration # 12     ecut=    40.00 Ry     beta= 0.70
     Davidson diagonalization with overlap
     ethr =  5.19E-09,  avg # of iterations =  4.2

     total cpu time spent up to now is        0.3 secs

     total energy              =     -18.41607510 Ry
     estimated scf accuracy    <       0.00000080 Ry

     iteration # 13     ecut=    40.00 Ry     beta= 0.70
     Davidson diagonalization with overlap
     ethr =  5.19E-09,  avg # of iterations =  2.0

     total cpu time spent up to now is        0.3 secs

     total energy              =     -18.41607458 Ry
     estimated scf accuracy    <       0.00000149 Ry

     iteration # 14     ecut=    40.00 Ry     beta= 0.70
     Davidson diagonalization with overlap
     ethr =  5.19E-09,  avg # of iterations =  2.2

     total cpu time spent up to now is        0.3 secs

     total energy              =     -18.41607456 Ry
     estimated scf accuracy    <       0.00000031 Ry

     iteration # 15     ecut=    40.00 Ry     beta= 0.70
     Davidson diagonalization with overlap
     ethr =  3.83E-09,  avg # of iterations =  2.2

     total cpu time spent up to now is        0.3 secs

     total energy              =     -18.41607461 Ry
     estimated scf accuracy    <       0.00000003 Ry

     iteration # 16     ecut=    40.00 Ry     beta= 0.70
     Davidson diagonalization with overlap
     ethr =  3.31E-10,  avg # of iterations =  4.8

     total cpu time spent up to now is        0.3 secs

     total energy              =     -18.41607463 Ry
     estimated scf accuracy    <          5.5E-09 Ry

     iteration # 17     ecut=    40.00 Ry     beta= 0.70
     Davidson diagonalization with overlap
     ethr =  6.83E-11,  avg # of iterations =  2.5

     total cpu time spent up to now is        0.3 secs

     total energy              =     -18.41607463 Ry
     estimated scf accuracy    <          3.2E-09 Ry

     iteration # 18     ecut=    40.00 Ry     beta= 0.70
     Davidson diagonalization with overlap
     ethr =  4.05E-11,  avg # of iterations =  3.2

     total cpu time spent up to now is        0.3 secs

     total energy              =     -18.41607463 Ry
     estimated scf accuracy    <          6.0E-10 Ry

     iteration # 19     ecut=    40.00 Ry     beta= 0.70
     Davidson diagonalization with overlap
     ethr =  7.49E-12,  avg # of iterations =  6.8

     total cpu time spent up to now is        0.4 secs

     total energy              =     -18.41607464 Ry
     estimated scf accuracy    <       0.00000002 Ry

     iteration # 20     ecut=    40.00 Ry     beta= 0.70
     Davidson diagonalization with overlap
     ethr =  7.49E-12,  avg # of iterations =  2.0

     total cpu time spent up to now is        0.4 secs

     total energy              =     -18.41607463 Ry
     estimated scf accuracy    <       0.00000002 Ry

     iteration # 21     ecut=    40.00 Ry     beta= 0.70
     Davidson diagonalization with overlap
     ethr =  7.49E-12,  avg # of iterations =  3.5

     total cpu time spent up to now is        0.4 secs

     total energy              =     -18.41607463 Ry
     estimated scf accuracy    <       0.00000001 Ry

     iteration # 22     ecut=    40.00 Ry     beta= 0.70
     Davidson diagonalization with overlap
     ethr =  7.49E-12,  avg # of iterations =  3.2

     total cpu time spent up to now is        0.4 secs

     total energy              =     -18.41607463 Ry
     estimated scf accuracy    <          4.2E-09 Ry

     iteration # 23     ecut=    40.00 Ry     beta= 0.70
     Davidson diagonalization with overlap
     ethr =  7.49E-12,  avg # of iterations =  4.8

     total cpu time spent up to now is        0.4 secs

     total energy              =     -18.41607463 Ry
     estimated scf accuracy    <          1.4E-10 Ry

     iteration # 24     ecut=    40.00 Ry     beta= 0.70
     Davidson diagonalization with overlap
     ethr =  1.69E-12,  avg # of iterations =  5.8

     total cpu time spent up to now is        0.5 secs

     total energy              =     -18.41607463 Ry
     estimated scf accuracy    <          4.2E-10 Ry

     iteration # 25     ecut=    40.00 Ry     beta= 0.70
     Davidson diagonalization with overlap
     ethr =  1.69E-12,  avg # of iterations =  3.5

     total cpu time spent up to now is        0.5 secs

     End of self-consistent calculation

          k = 0.0000 0.0000 0.0000 (   869 PWs)   bands (ev):

    -7.0116   8.0719   8.0719   8.0719

          k =-0.3333 0.3333-0.3333 (   823 PWs)   bands (ev):

    -5.3803   1.4557   6.6205   6.6205

          k = 0.0000 0.6667 0.0000 (   805 PWs)   bands (ev):

    -4.7908   2.2337   4.7267   4.7267

          k = 0.6667-0.0000 0.6667 (   816 PWs)   bands (ev):

    -3.4028   0.3978   2.1237   5.1231

     highest occupied level (ev):     8.0719

!    total energy              =     -18.41607463 Ry
     estimated scf accuracy    <          2.7E-11 Ry

     The total energy is the sum of the following terms:
     one-electron contribution =       5.39340338 Ry
     hartree contribution      =       1.29829775 Ry
     xc contribution           =      -5.35548267 Ry
     ewald contribution        =     -19.75229308 Ry

     convergence has been achieved in  25 iterations

     Writing all to output data dir ./BAs.save/ :
     XML data file, charge density, pseudopotentials, collected wavefunctions
 
     init_run     :      0.03s CPU      0.05s WALL (       1 calls)
     electrons    :      0.35s CPU      0.38s WALL (       1 calls)

     Called by init_run:
     wfcinit      :      0.01s CPU      0.01s WALL (       1 calls)
     potinit      :      0.01s CPU      0.01s WALL (       1 calls)
     hinit0       :      0.01s CPU      0.02s WALL (       1 calls)

     Called by electrons:
     c_bands      :      0.27s CPU      0.29s WALL (      25 calls)
     sum_band     :      0.05s CPU      0.06s WALL (      25 calls)
     v_of_rho     :      0.01s CPU      0.02s WALL (      26 calls)
     mix_rho      :      0.01s CPU      0.01s WALL (      25 calls)

     Called by c_bands:
     init_us_2    :      0.01s CPU      0.01s WALL (     204 calls)
     init_us_2:cp :      0.01s CPU      0.01s WALL (     204 calls)
     cegterg      :      0.26s CPU      0.28s WALL (     100 calls)

     Called by *egterg:
     cdiaghg      :      0.02s CPU      0.02s WALL (     416 calls)
     h_psi        :      0.23s CPU      0.25s WALL (     420 calls)
     g_psi        :      0.00s CPU      0.00s WALL (     316 calls)

     Called by h_psi:
     h_psi:calbec :      0.01s CPU      0.01s WALL (     420 calls)
     vloc_psi     :      0.21s CPU      0.23s WALL (     420 calls)
     add_vuspsi   :      0.00s CPU      0.00s WALL (     420 calls)

     General routines
     calbec       :      0.01s CPU      0.01s WALL (     420 calls)
     fft          :      0.01s CPU      0.01s WALL (      77 calls)
     ffts         :      0.00s CPU      0.00s WALL (      25 calls)
     fftw         :      0.22s CPU      0.24s WALL (    3190 calls)
 
     Parallel routines
 
     PWSCF        :      0.42s CPU      0.47s WALL

 
   This run was terminated on:  19: 1:34   7Dec2023            

=------------------------------------------------------------------------------=
   JOB DONE.
=------------------------------------------------------------------------------=
