
     Program PROJWFC v.6.1 starts on 16Mar2017 at 22:39:23 

     This program is part of the open-source Quantum ESPRESSO suite
     for quantum simulation of materials; please cite
         "P. Giannozzi et al., J. Phys.:Condens. Matter 21 395502 (2009);
          URL http://www.quantum-espresso.org", 
     in publications or presentations arising from this work. More details at
     http://www.quantum-espresso.org/quote

     Parallel version (MPI), running on     4 processors
     K-points division:     npool     =       4

     Reading data from directory:
     /mnt/c/Users/kawamuura/program/QE/qe_priv/tempdir/mgb2.save

   Info: using nr1, nr2, nr3 values from input

   Info: using nr1, nr2, nr3 values from input

     IMPORTANT: XC functional enforced from input :
     Exchange-correlation      =  SLA  PW   PBX  PBC ( 1  4  3  4 0 0)
     Any further DFT definition will be discarded
     Please, verify this is what you really want

               file Mg.pbe-n-kjpaw_psl.0.3.0.upf: wavefunction(s)  3S renormalized
               file B.pbe-n-kjpaw_psl.0.1.upf: wavefunction(s)  2P renormalized

     G-vector sticks info
     --------------------
     sticks:   dense  smooth     PW     G-vecs:    dense   smooth      PW
     Sum        1159     463    151                36773     9263    1619


     Check: negative/imaginary core charge=   -0.000006    0.000000

     Optimized tetrahedron method (read from file) 
     [opt_tetra]  Optimized tetrahedron method is used.

     Calling projwave .... 

     Atomic states used for projection
     (read from pseudopotential files):

     state #   1: atom   1 (Mg ), wfc  1 (l=0 m= 1)
     state #   2: atom   1 (Mg ), wfc  2 (l=1 m= 1)
     state #   3: atom   1 (Mg ), wfc  2 (l=1 m= 2)
     state #   4: atom   1 (Mg ), wfc  2 (l=1 m= 3)
     state #   5: atom   2 (B  ), wfc  1 (l=0 m= 1)
     state #   6: atom   2 (B  ), wfc  2 (l=1 m= 1)
     state #   7: atom   2 (B  ), wfc  2 (l=1 m= 2)
     state #   8: atom   2 (B  ), wfc  2 (l=1 m= 3)
     state #   9: atom   3 (B  ), wfc  1 (l=0 m= 1)
     state #  10: atom   3 (B  ), wfc  2 (l=1 m= 1)
     state #  11: atom   3 (B  ), wfc  2 (l=1 m= 2)
     state #  12: atom   3 (B  ), wfc  2 (l=1 m= 3)

 k =   0.0000000000  0.0000000000  0.0000000000
==== e(   1) =    -4.79596 eV ==== 
     psi = 0.411*[#   1]+0.294*[#   5]+0.294*[#   9]+
    |psi|^2 = 1.000
==== e(   2) =     4.70464 eV ==== 
     psi = 0.447*[#   6]+0.447*[#  10]+0.105*[#   2]+
    |psi|^2 = 0.999
==== e(   3) =     8.05775 eV ==== 
     psi = 0.248*[#   7]+0.248*[#   8]+0.248*[#  11]+0.248*[#  12]+
    |psi|^2 = 0.992
==== e(   4) =     8.05775 eV ==== 
     psi = 0.248*[#   7]+0.248*[#   8]+0.248*[#  11]+0.248*[#  12]+
    |psi|^2 = 0.992
==== e(   5) =     9.30622 eV ==== 
     psi = 0.503*[#   1]+0.177*[#   5]+0.177*[#   9]+
    |psi|^2 = 0.858
==== e(   6) =    14.04383 eV ==== 
     psi = 0.191*[#   7]+0.191*[#   8]+0.191*[#  11]+0.191*[#  12]+0.097*[#   3]+
          +0.097*[#   4]+
    |psi|^2 = 0.957
==== e(   7) =    14.04383 eV ==== 
     psi = 0.191*[#   7]+0.191*[#   8]+0.191*[#  11]+0.191*[#  12]+0.097*[#   3]+
          +0.097*[#   4]+
    |psi|^2 = 0.957
==== e(   8) =    15.88973 eV ==== 
     psi = 0.446*[#   5]+0.446*[#   9]+
    |psi|^2 = 0.893

 k =   0.0000000000  0.0000000000  0.0727692038
==== e(   1) =    -4.73585 eV ==== 
     psi = 0.357*[#   1]+0.281*[#   5]+0.281*[#   9]+0.072*[#   2]+0.005*[#   6]+
          +0.005*[#  10]+
    |psi|^2 = 1.000
==== e(   2) =     4.21743 eV ==== 
     psi = 0.419*[#   6]+0.419*[#  10]+0.081*[#   2]+0.043*[#   1]+0.017*[#   5]+
          +0.017*[#   9]+
    |psi|^2 = 0.997
==== e(   3) =     8.08088 eV ==== 
     psi = 0.248*[#   7]+0.248*[#   8]+0.248*[#  11]+0.248*[#  12]+
    |psi|^2 = 0.993
==== e(   4) =     8.08088 eV ==== 
     psi = 0.248*[#   7]+0.248*[#   8]+0.248*[#  11]+0.248*[#  12]+
    |psi|^2 = 0.993
==== e(   5) =     9.93357 eV ==== 
     psi = 0.447*[#   1]+0.161*[#   5]+0.161*[#   9]+0.031*[#   2]+0.027*[#   6]+
          +0.027*[#  10]+
    |psi|^2 = 0.854
==== e(   6) =    14.06370 eV ==== 
     psi = 0.192*[#   7]+0.192*[#   8]+0.192*[#  11]+0.192*[#  12]+0.093*[#   3]+
          +0.093*[#   4]+
    |psi|^2 = 0.956
==== e(   7) =    14.06370 eV ==== 
     psi = 0.192*[#   7]+0.192*[#   8]+0.192*[#  11]+0.192*[#  12]+0.093*[#   3]+
          +0.093*[#   4]+
    |psi|^2 = 0.956
==== e(   8) =    15.87725 eV ==== 
     psi = 0.411*[#   5]+0.411*[#   9]+0.037*[#   6]+0.037*[#  10]+
    |psi|^2 = 0.896

 k =   0.0000000000  0.0000000000  0.1455384075
==== e(   1) =    -4.56023 eV ==== 
     psi = 0.252*[#   5]+0.252*[#   9]+0.245*[#   1]+0.223*[#   2]+0.014*[#   6]+
          +0.014*[#  10]+
    |psi|^2 = 1.000
==== e(   2) =     3.20131 eV ==== 
     psi = 0.388*[#   6]+0.388*[#  10]+0.093*[#   1]+0.057*[#   2]+0.035*[#   5]+
          +0.035*[#   9]+
    |psi|^2 = 0.996
==== e(   3) =     8.14528 eV ==== 
     psi = 0.248*[#   7]+0.248*[#   8]+0.248*[#  11]+0.248*[#  12]+
    |psi|^2 = 0.993
==== e(   4) =     8.14529 eV ==== 
     psi = 0.248*[#   7]+0.248*[#   8]+0.248*[#  11]+0.248*[#  12]+
    |psi|^2 = 0.993
==== e(   5) =    11.36884 eV ==== 
     psi = 0.402*[#   1]+0.134*[#   5]+0.134*[#   9]+0.058*[#   6]+0.058*[#  10]+
          +0.053*[#   2]+
    |psi|^2 = 0.838
==== e(   6) =    14.11933 eV ==== 
     psi = 0.197*[#   7]+0.197*[#   8]+0.197*[#  11]+0.197*[#  12]+0.082*[#   3]+
          +0.082*[#   4]+
    |psi|^2 = 0.951
==== e(   7) =    14.11933 eV ==== 
     psi = 0.197*[#   7]+0.197*[#   8]+0.197*[#  11]+0.197*[#  12]+0.082*[#   3]+
          +0.082*[#   4]+
    |psi|^2 = 0.951
==== e(   8) =    15.84332 eV ==== 
     psi = 0.319*[#   5]+0.319*[#   9]+0.133*[#   6]+0.133*[#  10]+
    |psi|^2 = 0.904

 k =   0.0000000000  0.0000000000  0.2183076113
==== e(   1) =    -4.28599 eV ==== 
     psi = 0.368*[#   2]+0.225*[#   5]+0.225*[#   9]+0.143*[#   1]+0.019*[#   6]+
          +0.019*[#  10]+
    |psi|^2 = 1.000
==== e(   2) =     2.11886 eV ==== 
     psi = 0.377*[#   6]+0.377*[#  10]+0.128*[#   1]+0.045*[#   2]+0.035*[#   5]+
          +0.035*[#   9]+
    |psi|^2 = 0.997
==== e(   3) =     8.23626 eV ==== 
     psi = 0.249*[#   7]+0.249*[#   8]+0.249*[#  11]+0.249*[#  12]+
    |psi|^2 = 0.994
==== e(   4) =     8.23627 eV ==== 
     psi = 0.249*[#   7]+0.249*[#   8]+0.249*[#  11]+0.249*[#  12]+
    |psi|^2 = 0.994
==== e(   5) =    13.14251 eV ==== 
     psi = 0.430*[#   1]+0.100*[#   5]+0.100*[#   9]+0.072*[#   6]+0.072*[#  10]+
          +0.042*[#   2]+
    |psi|^2 = 0.815
==== e(   6) =    14.19866 eV ==== 
     psi = 0.204*[#   7]+0.204*[#   8]+0.204*[#  11]+0.204*[#  12]+0.063*[#   3]+
          +0.063*[#   4]+
    |psi|^2 = 0.941
==== e(   7) =    14.19871 eV ==== 
     psi = 0.204*[#   7]+0.204*[#   8]+0.204*[#  11]+0.204*[#  12]+0.063*[#   3]+
          +0.063*[#   4]+
    |psi|^2 = 0.941
==== e(   8) =    15.79744 eV ==== 
     psi = 0.255*[#   6]+0.255*[#  10]+0.203*[#   5]+0.203*[#   9]+
    |psi|^2 = 0.916

 k =   0.0000000000  0.0000000000  0.2910768150
==== e(   1) =    -3.95262 eV ==== 
     psi = 0.481*[#   2]+0.208*[#   5]+0.208*[#   9]+0.069*[#   1]+0.017*[#   6]+
          +0.017*[#  10]+
    |psi|^2 = 1.000
==== e(   2) =     1.16329 eV ==== 
     psi = 0.382*[#   6]+0.382*[#  10]+0.156*[#   1]+0.033*[#   2]+0.023*[#   5]+
          +0.023*[#   9]+
    |psi|^2 = 0.998
==== e(   3) =     8.33112 eV ==== 
     psi = 0.249*[#   7]+0.249*[#   8]+0.249*[#  11]+0.249*[#  12]+
    |psi|^2 = 0.996
==== e(   4) =     8.33112 eV ==== 
     psi = 0.249*[#   7]+0.249*[#   8]+0.249*[#  11]+0.249*[#  12]+
    |psi|^2 = 0.996
==== e(   5) =    14.28240 eV ==== 
     psi = 0.213*[#   7]+0.213*[#   8]+0.213*[#  11]+0.213*[#  12]+0.037*[#   3]+
          +0.037*[#   4]+
    |psi|^2 = 0.925
==== e(   6) =    14.28242 eV ==== 
     psi = 0.213*[#   7]+0.213*[#   8]+0.213*[#  11]+0.213*[#  12]+0.037*[#   3]+
          +0.037*[#   4]+
    |psi|^2 = 0.925
==== e(   7) =    15.03404 eV ==== 
     psi = 0.505*[#   1]+0.076*[#   6]+0.076*[#  10]+0.059*[#   5]+0.059*[#   9]+
          +0.023*[#   2]+
    |psi|^2 = 0.799
==== e(   8) =    15.75207 eV ==== 
     psi = 0.367*[#   6]+0.367*[#  10]+0.097*[#   5]+0.097*[#   9]+
    |psi|^2 = 0.928

 k =   0.0000000000  0.0000000000  0.3638460188
==== e(   1) =    -3.64582 eV ==== 
     psi = 0.560*[#   2]+0.203*[#   5]+0.203*[#   9]+0.020*[#   1]+0.007*[#   6]+
          +0.007*[#  10]+
    |psi|^2 = 1.000
==== e(   2) =     0.47120 eV ==== 
     psi = 0.395*[#   6]+0.395*[#  10]+0.181*[#   1]+0.013*[#   2]+0.008*[#   5]+
          +0.008*[#   9]+
    |psi|^2 = 0.999
==== e(   3) =     8.40323 eV ==== 
     psi = 0.249*[#   7]+0.249*[#   8]+0.249*[#  11]+0.249*[#  12]+
    |psi|^2 = 0.997
==== e(   4) =     8.40323 eV ==== 
     psi = 0.249*[#   7]+0.249*[#   8]+0.249*[#  11]+0.249*[#  12]+
    |psi|^2 = 0.997
==== e(   5) =    14.34679 eV ==== 
     psi = 0.221*[#   7]+0.221*[#   8]+0.221*[#  11]+0.221*[#  12]+0.012*[#   3]+
          +0.012*[#   4]+
    |psi|^2 = 0.906
==== e(   6) =    14.34681 eV ==== 
     psi = 0.221*[#   7]+0.221*[#   8]+0.221*[#  11]+0.221*[#  12]+0.011*[#   3]+
          +0.011*[#   4]+
    |psi|^2 = 0.906
==== e(   7) =    15.71921 eV ==== 
     psi = 0.444*[#   6]+0.444*[#  10]+0.025*[#   5]+0.025*[#   9]+
    |psi|^2 = 0.937
==== e(   8) =    16.77686 eV ==== 
     psi = 0.607*[#   1]+0.080*[#   6]+0.080*[#  10]+0.021*[#   5]+0.021*[#   9]+
          +0.008*[#   2]+
    |psi|^2 = 0.818

 k =   0.0000000000  0.0000000000 -0.4366152225
==== e(   1) =    -3.51193 eV ==== 
     psi = 0.592*[#   2]+0.204*[#   5]+0.204*[#   9]+
    |psi|^2 = 1.000
==== e(   2) =     0.20727 eV ==== 
     psi = 0.403*[#   6]+0.403*[#  10]+0.193*[#   1]+
    |psi|^2 = 0.999
==== e(   3) =     8.43022 eV ==== 
     psi = 0.249*[#   7]+0.249*[#   8]+0.249*[#  11]+0.249*[#  12]+
    |psi|^2 = 0.998
==== e(   4) =     8.43022 eV ==== 
     psi = 0.249*[#   7]+0.249*[#   8]+0.249*[#  11]+0.249*[#  12]+
    |psi|^2 = 0.998
==== e(   5) =    14.37110 eV ==== 
     psi = 0.224*[#   7]+0.224*[#   8]+0.224*[#  11]+0.224*[#  12]+
    |psi|^2 = 0.897
==== e(   6) =    14.37111 eV ==== 
     psi = 0.224*[#   7]+0.224*[#   8]+0.224*[#  11]+0.224*[#  12]+
    |psi|^2 = 0.897
==== e(   7) =    15.70724 eV ==== 
     psi = 0.470*[#   6]+0.470*[#  10]+
    |psi|^2 = 0.940
==== e(   8) =    17.62927 eV ==== 
     psi = 0.688*[#   1]+0.086*[#   6]+0.086*[#  10]+
    |psi|^2 = 0.859

 k =   0.0000000000  0.0721687836  0.0000000000
==== e(   1) =    -4.72741 eV ==== 
     psi = 0.360*[#   1]+0.277*[#   5]+0.277*[#   9]+0.031*[#   3]+0.031*[#   4]+
          +0.006*[#   7]+0.006*[#   8]+0.006*[#  11]+0.006*[#  12]+
    |psi|^2 = 1.000
==== e(   2) =     4.77140 eV ==== 
     psi = 0.447*[#   6]+0.447*[#  10]+0.106*[#   2]+
    |psi|^2 = 0.999
==== e(   3) =     7.70111 eV ==== 
     psi = 0.238*[#   7]+0.238*[#   8]+0.238*[#  11]+0.238*[#  12]+0.015*[#   5]+
          +0.015*[#   9]+0.005*[#   3]+0.005*[#   4]+
    |psi|^2 = 0.993
==== e(   4) =     7.89039 eV ==== 
     psi = 0.246*[#   7]+0.246*[#   8]+0.246*[#  11]+0.246*[#  12]+0.005*[#   3]+
          +0.005*[#   4]+
    |psi|^2 = 0.994
==== e(   5) =     9.36674 eV ==== 
     psi = 0.419*[#   1]+0.181*[#   5]+0.181*[#   9]+0.041*[#   3]+0.041*[#   4]+
          +0.002*[#   7]+0.002*[#   8]+0.002*[#  11]+0.002*[#  12]+
    |psi|^2 = 0.873
==== e(   6) =    14.00496 eV ==== 
     psi = 0.179*[#   7]+0.179*[#   8]+0.179*[#  11]+0.179*[#  12]+0.082*[#   3]+
          +0.082*[#   4]+0.027*[#   1]+0.021*[#   5]+0.021*[#   9]+
    |psi|^2 = 0.951
==== e(   7) =    14.34937 eV ==== 
     psi = 0.193*[#   7]+0.193*[#   8]+0.193*[#  11]+0.193*[#  12]+0.089*[#   3]+
          +0.089*[#   4]+
    |psi|^2 = 0.950
==== e(   8) =    16.03626 eV ==== 
     psi = 0.418*[#   5]+0.418*[#   9]+0.010*[#   7]+0.010*[#   8]+0.010*[#  11]+
          +0.010*[#  12]+0.002*[#   3]+0.002*[#   4]+
    |psi|^2 = 0.882

 k =   0.0000000000  0.0721687836  0.0727692038
==== e(   1) =    -4.66750 eV ==== 
     psi = 0.316*[#   1]+0.266*[#   5]+0.266*[#   9]+0.064*[#   2]+0.027*[#   3]+
          +0.027*[#   4]+0.006*[#   7]+0.006*[#   8]+0.006*[#  11]+0.006*[#  12]+
          +0.004*[#   6]+0.004*[#  10]+
    |psi|^2 = 1.000
==== e(   2) =     4.28528 eV ==== 
     psi = 0.418*[#   6]+0.418*[#  10]+0.082*[#   2]+0.039*[#   1]+0.018*[#   5]+
          +0.018*[#   9]+0.002*[#   3]+0.002*[#   4]+
    |psi|^2 = 0.997
==== e(   3) =     7.72622 eV ==== 
     psi = 0.238*[#   7]+0.238*[#   8]+0.238*[#  11]+0.238*[#  12]+0.014*[#   5]+
          +0.014*[#   9]+0.005*[#   3]+0.005*[#   4]+
    |psi|^2 = 0.993
==== e(   4) =     7.91306 eV ==== 
     psi = 0.246*[#   7]+0.246*[#   8]+0.246*[#  11]+0.246*[#  12]+0.005*[#   3]+
          +0.005*[#   4]+
    |psi|^2 = 0.994
==== e(   5) =     9.99113 eV ==== 
     psi = 0.372*[#   1]+0.162*[#   5]+0.162*[#   9]+0.039*[#   3]+0.039*[#   4]+
          +0.029*[#   6]+0.029*[#  10]+0.028*[#   2]+0.002*[#   7]+0.002*[#   8]+
          +0.002*[#  11]+0.002*[#  12]+
    |psi|^2 = 0.870
==== e(   6) =    14.03026 eV ==== 
     psi = 0.180*[#   7]+0.180*[#   8]+0.180*[#  11]+0.180*[#  12]+0.078*[#   3]+
          +0.078*[#   4]+0.024*[#   1]+0.023*[#   5]+0.023*[#   9]+0.002*[#   2]+
    |psi|^2 = 0.950
==== e(   7) =    14.36979 eV ==== 
     psi = 0.194*[#   7]+0.194*[#   8]+0.194*[#  11]+0.194*[#  12]+0.085*[#   3]+
          +0.085*[#   4]+
    |psi|^2 = 0.948
==== e(   8) =    15.97518 eV ==== 
     psi = 0.359*[#   5]+0.359*[#   9]+0.062*[#   6]+0.062*[#  10]+0.010*[#   7]+
          +0.010*[#   8]+0.010*[#  11]+0.010*[#  12]+0.002*[#   3]+0.002*[#   4]+
    |psi|^2 = 0.886

 k =   0.0000000000  0.0721687836  0.1455384075
==== e(   1) =    -4.49250 eV ==== 
     psi = 0.244*[#   5]+0.244*[#   9]+0.223*[#   1]+0.205*[#   2]+0.020*[#   3]+
          +0.020*[#   4]+0.013*[#   6]+0.013*[#  10]+0.005*[#   7]+0.005*[#   8]+
          +0.005*[#  11]+0.005*[#  12]+
    |psi|^2 = 1.000
==== e(   2) =     3.27125 eV ==== 
     psi = 0.386*[#   6]+0.386*[#  10]+0.087*[#   1]+0.057*[#   2]+0.035*[#   5]+
          +0.035*[#   9]+0.004*[#   3]+0.004*[#   4]+
    |psi|^2 = 0.996
==== e(   3) =     7.79568 eV ==== 
     psi = 0.239*[#   7]+0.239*[#   8]+0.239*[#  11]+0.239*[#  12]+0.014*[#   5]+
          +0.014*[#   9]+0.004*[#   3]+0.004*[#   4]+
    |psi|^2 = 0.994
==== e(   4) =     7.97616 eV ==== 
     psi = 0.246*[#   7]+0.246*[#   8]+0.246*[#  11]+0.246*[#  12]+0.004*[#   3]+
          +0.004*[#   4]+
    |psi|^2 = 0.994
==== e(   5) =    11.41754 eV ==== 
     psi = 0.333*[#   1]+0.130*[#   5]+0.130*[#   9]+0.060*[#   6]+0.060*[#  10]+
          +0.047*[#   2]+0.040*[#   3]+0.040*[#   4]+0.004*[#   7]+0.004*[#   8]+
          +0.004*[#  11]+0.004*[#  12]+
    |psi|^2 = 0.855
==== e(   6) =    14.10341 eV ==== 
     psi = 0.182*[#   7]+0.182*[#   8]+0.182*[#  11]+0.182*[#  12]+0.065*[#   3]+
          +0.065*[#   4]+0.028*[#   5]+0.028*[#   9]+0.021*[#   1]+0.006*[#   2]+
    |psi|^2 = 0.945
==== e(   7) =    14.42697 eV ==== 
     psi = 0.199*[#   7]+0.199*[#   8]+0.199*[#  11]+0.199*[#  12]+0.074*[#   3]+
          +0.074*[#   4]+
    |psi|^2 = 0.943
==== e(   8) =    15.81134 eV ==== 
     psi = 0.237*[#   5]+0.237*[#   9]+0.190*[#   6]+0.190*[#  10]+0.008*[#   7]+
          +0.008*[#   8]+0.008*[#  11]+0.008*[#  12]+0.003*[#   3]+0.003*[#   4]+
    |psi|^2 = 0.891

 k =   0.0000000000  0.0721687836  0.2183076113
==== e(   1) =    -4.21936 eV ==== 
     psi = 0.347*[#   2]+0.222*[#   5]+0.222*[#   9]+0.133*[#   1]+0.018*[#   6]+
          +0.018*[#  10]+0.012*[#   3]+0.012*[#   4]+0.004*[#   7]+0.004*[#   8]+
          +0.004*[#  11]+0.004*[#  12]+
    |psi|^2 = 1.000
==== e(   2) =     2.19115 eV ==== 
     psi = 0.374*[#   6]+0.374*[#  10]+0.121*[#   1]+0.046*[#   2]+0.035*[#   5]+
          +0.035*[#   9]+0.006*[#   3]+0.006*[#   4]+
    |psi|^2 = 0.997
==== e(   3) =     7.89420 eV ==== 
     psi = 0.240*[#   7]+0.240*[#   8]+0.240*[#  11]+0.240*[#  12]+0.013*[#   5]+
          +0.013*[#   9]+0.003*[#   3]+0.003*[#   4]+
    |psi|^2 = 0.995
==== e(   4) =     8.06530 eV ==== 
     psi = 0.247*[#   7]+0.247*[#   8]+0.247*[#  11]+0.247*[#  12]+0.003*[#   3]+
          +0.003*[#   4]+
    |psi|^2 = 0.995
==== e(   5) =    13.15781 eV ==== 
     psi = 0.335*[#   1]+0.081*[#   5]+0.081*[#   9]+0.072*[#   6]+0.072*[#  10]+
          +0.052*[#   3]+0.052*[#   4]+0.032*[#   2]+0.014*[#   7]+0.014*[#   8]+
          +0.014*[#  11]+0.014*[#  12]+
    |psi|^2 = 0.834
==== e(   6) =    14.22994 eV ==== 
     psi = 0.178*[#   7]+0.178*[#   8]+0.178*[#  11]+0.178*[#  12]+0.044*[#   5]+
          +0.044*[#   9]+0.042*[#   1]+0.036*[#   3]+0.036*[#   4]+0.012*[#   2]+
          +0.005*[#   6]+0.005*[#  10]+
    |psi|^2 = 0.935
==== e(   7) =    14.50861 eV ==== 
     psi = 0.205*[#   7]+0.205*[#   8]+0.205*[#  11]+0.205*[#  12]+0.056*[#   3]+
          +0.056*[#   4]+
    |psi|^2 = 0.933
==== e(   8) =    15.59111 eV ==== 
     psi = 0.307*[#   6]+0.307*[#  10]+0.125*[#   5]+0.125*[#   9]+0.005*[#   7]+
          +0.005*[#   8]+0.005*[#  11]+0.005*[#  12]+0.005*[#   3]+0.005*[#   4]+
          +0.001*[#   1]+
    |psi|^2 = 0.895

 k =   0.0000000000  0.0721687836  0.2910768150
==== e(   1) =    -3.88761 eV ==== 
     psi = 0.461*[#   2]+0.208*[#   5]+0.208*[#   9]+0.066*[#   1]+0.016*[#   6]+
          +0.016*[#  10]+0.006*[#   3]+0.006*[#   4]+0.003*[#   7]+0.003*[#   8]+
          +0.003*[#  11]+0.003*[#  12]+
    |psi|^2 = 1.000
==== e(   2) =     1.23808 eV ==== 
     psi = 0.377*[#   6]+0.377*[#  10]+0.149*[#   1]+0.033*[#   2]+0.024*[#   5]+
          +0.024*[#   9]+0.007*[#   3]+0.007*[#   4]+
    |psi|^2 = 0.999
==== e(   3) =     7.99767 eV ==== 
     psi = 0.242*[#   7]+0.242*[#   8]+0.242*[#  11]+0.242*[#  12]+0.012*[#   5]+
          +0.012*[#   9]+0.002*[#   3]+0.002*[#   4]+
    |psi|^2 = 0.996
==== e(   4) =     8.15819 eV ==== 
     psi = 0.248*[#   7]+0.248*[#   8]+0.248*[#  11]+0.248*[#  12]+0.002*[#   3]+
          +0.002*[#   4]+
    |psi|^2 = 0.996
==== e(   5) =    14.22703 eV ==== 
     psi = 0.192*[#   7]+0.192*[#   8]+0.192*[#  11]+0.192*[#  12]+0.046*[#   3]+
          +0.046*[#   4]+0.012*[#   1]+0.010*[#   5]+0.010*[#   9]+0.006*[#   6]+
          +0.006*[#  10]+
    |psi|^2 = 0.906
==== e(   6) =    14.59479 eV ==== 
     psi = 0.213*[#   7]+0.213*[#   8]+0.213*[#  11]+0.213*[#  12]+0.032*[#   3]+
          +0.032*[#   4]+
    |psi|^2 = 0.918
==== e(   7) =    15.15043 eV ==== 
     psi = 0.431*[#   1]+0.078*[#   6]+0.078*[#  10]+0.076*[#   5]+0.076*[#   9]+
          +0.026*[#   2]+0.020*[#   3]+0.020*[#   4]+0.007*[#   7]+0.007*[#   8]+
          +0.007*[#  11]+0.007*[#  12]+
    |psi|^2 = 0.833
==== e(   8) =    15.37011 eV ==== 
     psi = 0.381*[#   6]+0.381*[#  10]+0.051*[#   5]+0.051*[#   9]+0.006*[#   3]+
          +0.006*[#   4]+0.003*[#   7]+0.003*[#   8]+0.003*[#  11]+0.003*[#  12]+
          +0.003*[#   1]+
    |psi|^2 = 0.893

 k =   0.0000000000  0.0721687836  0.3638460188
==== e(   1) =    -3.58276 eV ==== 
     psi = 0.541*[#   2]+0.205*[#   5]+0.205*[#   9]+0.019*[#   1]+0.007*[#   6]+
          +0.007*[#  10]+0.003*[#   7]+0.003*[#   8]+0.003*[#  11]+0.003*[#  12]+
          +0.002*[#   3]+0.002*[#   4]+
    |psi|^2 = 1.000
==== e(   2) =     0.54842 eV ==== 
     psi = 0.388*[#   6]+0.388*[#  10]+0.174*[#   1]+0.013*[#   2]+0.009*[#   3]+
          +0.009*[#   4]+0.008*[#   5]+0.008*[#   9]+
    |psi|^2 = 0.999
==== e(   3) =     8.07698 eV ==== 
     psi = 0.243*[#   7]+0.243*[#   8]+0.243*[#  11]+0.243*[#  12]+0.012*[#   5]+
          +0.012*[#   9]+
    |psi|^2 = 0.997
==== e(   4) =     8.22877 eV ==== 
     psi = 0.249*[#   7]+0.249*[#   8]+0.249*[#  11]+0.249*[#  12]+
    |psi|^2 = 0.997
==== e(   5) =    14.34552 eV ==== 
     psi = 0.207*[#   7]+0.207*[#   8]+0.207*[#  11]+0.207*[#  12]+0.024*[#   5]+
          +0.024*[#   9]+0.011*[#   3]+0.011*[#   4]+0.003*[#   2]+0.001*[#   6]+
          +0.001*[#  10]+
    |psi|^2 = 0.901
==== e(   6) =    14.66114 eV ==== 
     psi = 0.220*[#   7]+0.220*[#   8]+0.220*[#  11]+0.220*[#  12]+0.010*[#   3]+
          +0.010*[#   4]+
    |psi|^2 = 0.901
==== e(   7) =    15.20507 eV ==== 
     psi = 0.422*[#   6]+0.422*[#  10]+0.012*[#   5]+0.012*[#   9]+0.009*[#   3]+
          +0.009*[#   4]+0.001*[#   1]+
    |psi|^2 = 0.891
==== e(   8) =    16.84783 eV ==== 
     psi = 0.545*[#   1]+0.087*[#   6]+0.087*[#  10]+0.030*[#   3]+0.030*[#   4]+
          +0.024*[#   5]+0.024*[#   9]+0.009*[#   2]+
    |psi|^2 = 0.837

 k =   0.0000000000  0.0721687836 -0.4366152225
==== e(   1) =    -3.44991 eV ==== 
     psi = 0.575*[#   2]+0.207*[#   5]+0.207*[#   9]+0.003*[#   7]+0.003*[#   8]+
          +0.003*[#  11]+0.003*[#  12]+
    |psi|^2 = 1.000
==== e(   2) =     0.28569 eV ==== 
     psi = 0.396*[#   6]+0.396*[#  10]+0.186*[#   1]+0.010*[#   3]+0.010*[#   4]+
    |psi|^2 = 0.999
==== e(   3) =     8.10685 eV ==== 
     psi = 0.244*[#   7]+0.244*[#   8]+0.244*[#  11]+0.244*[#  12]+0.012*[#   5]+
          +0.012*[#   9]+
    |psi|^2 = 0.997
==== e(   4) =     8.25520 eV ==== 
     psi = 0.249*[#   7]+0.249*[#   8]+0.249*[#  11]+0.249*[#  12]+
    |psi|^2 = 0.997
==== e(   5) =    14.38145 eV ==== 
     psi = 0.210*[#   7]+0.210*[#   8]+0.210*[#  11]+0.210*[#  12]+0.026*[#   5]+
          +0.026*[#   9]+0.003*[#   2]+
    |psi|^2 = 0.895
==== e(   6) =    14.68621 eV ==== 
     psi = 0.223*[#   7]+0.223*[#   8]+0.223*[#  11]+0.223*[#  12]+
    |psi|^2 = 0.894
==== e(   7) =    15.14363 eV ==== 
     psi = 0.435*[#   6]+0.435*[#  10]+0.009*[#   3]+0.009*[#   4]+0.001*[#   1]+
    |psi|^2 = 0.889
==== e(   8) =    17.68746 eV ==== 
     psi = 0.629*[#   1]+0.093*[#   6]+0.093*[#  10]+0.029*[#   3]+0.029*[#   4]+
    |psi|^2 = 0.873

 k =   0.0000000000  0.1443375673  0.0000000000
==== e(   1) =    -4.52224 eV ==== 
     psi = 0.259*[#   1]+0.241*[#   5]+0.241*[#   9]+0.089*[#   3]+0.089*[#   4]+
          +0.020*[#   7]+0.020*[#   8]+0.020*[#  11]+0.020*[#  12]+
    |psi|^2 = 1.000
==== e(   2) =     4.97084 eV ==== 
     psi = 0.447*[#   6]+0.447*[#  10]+0.106*[#   2]+
    |psi|^2 = 0.999
==== e(   3) =     6.78888 eV ==== 
     psi = 0.219*[#   7]+0.219*[#   8]+0.219*[#  11]+0.219*[#  12]+0.043*[#   5]+
          +0.043*[#   9]+0.015*[#   3]+0.015*[#   4]+
    |psi|^2 = 0.994
==== e(   4) =     7.47695 eV ==== 
     psi = 0.242*[#   7]+0.242*[#   8]+0.242*[#  11]+0.242*[#  12]+0.014*[#   3]+
          +0.014*[#   4]+
    |psi|^2 = 0.996
==== e(   5) =     9.55494 eV ==== 
     psi = 0.282*[#   1]+0.181*[#   5]+0.181*[#   9]+0.107*[#   3]+0.107*[#   4]+
          +0.010*[#   7]+0.010*[#   8]+0.010*[#  11]+0.010*[#  12]+
    |psi|^2 = 0.897
==== e(   6) =    13.79520 eV ==== 
     psi = 0.143*[#   7]+0.143*[#   8]+0.143*[#  11]+0.143*[#  12]+0.095*[#   5]+
          +0.095*[#   9]+0.074*[#   1]+0.047*[#   3]+0.047*[#   4]+
    |psi|^2 = 0.932
==== e(   7) =    15.17419 eV ==== 
     psi = 0.197*[#   7]+0.197*[#   8]+0.197*[#  11]+0.197*[#  12]+0.072*[#   3]+
          +0.072*[#   4]+
    |psi|^2 = 0.931
==== e(   8) =    16.76053 eV ==== 
     psi = 0.478*[#   6]+0.478*[#  10]+0.001*[#   2]+
    |psi|^2 = 0.957

 k =   0.0000000000  0.1443375673  0.0727692038
==== e(   1) =    -4.46293 eV ==== 
     psi = 0.236*[#   5]+0.236*[#   9]+0.234*[#   1]+0.081*[#   3]+0.081*[#   4]+
          +0.048*[#   2]+0.019*[#   7]+0.019*[#   8]+0.019*[#  11]+0.019*[#  12]+
          +0.003*[#   6]+0.003*[#  10]+
    |psi|^2 = 1.000
==== e(   2) =     4.48783 eV ==== 
     psi = 0.416*[#   6]+0.416*[#  10]+0.083*[#   2]+0.032*[#   1]+0.018*[#   5]+
          +0.018*[#   9]+0.006*[#   3]+0.006*[#   4]+
    |psi|^2 = 0.997
==== e(   3) =     6.81906 eV ==== 
     psi = 0.220*[#   7]+0.220*[#   8]+0.220*[#  11]+0.220*[#  12]+0.043*[#   5]+
          +0.043*[#   9]+0.014*[#   3]+0.014*[#   4]+0.001*[#   1]+
    |psi|^2 = 0.994
==== e(   4) =     7.49860 eV ==== 
     psi = 0.242*[#   7]+0.242*[#   8]+0.242*[#  11]+0.242*[#  12]+0.014*[#   3]+
          +0.014*[#   4]+
    |psi|^2 = 0.996
==== e(   5) =    10.17059 eV ==== 
     psi = 0.249*[#   1]+0.157*[#   5]+0.157*[#   9]+0.102*[#   3]+0.102*[#   4]+
          +0.031*[#   6]+0.031*[#  10]+0.022*[#   2]+0.011*[#   7]+0.011*[#   8]+
          +0.011*[#  11]+0.011*[#  12]+
    |psi|^2 = 0.893
==== e(   6) =    13.83152 eV ==== 
     psi = 0.142*[#   7]+0.142*[#   8]+0.142*[#  11]+0.142*[#  12]+0.100*[#   5]+
          +0.100*[#   9]+0.067*[#   1]+0.043*[#   3]+0.043*[#   4]+0.007*[#   2]+
          +0.002*[#   6]+0.002*[#  10]+
    |psi|^2 = 0.930
==== e(   7) =    15.19581 eV ==== 
     psi = 0.198*[#   7]+0.198*[#   8]+0.198*[#  11]+0.198*[#  12]+0.069*[#   3]+
          +0.069*[#   4]+
    |psi|^2 = 0.929
==== e(   8) =    16.03124 eV ==== 
     psi = 0.238*[#   6]+0.238*[#  10]+0.135*[#   5]+0.135*[#   9]+0.023*[#   7]+
          +0.023*[#   8]+0.023*[#  11]+0.023*[#  12]+0.018*[#   1]+0.016*[#   3]+
          +0.016*[#   4]+
    |psi|^2 = 0.887

 k =   0.0000000000  0.1443375673  0.1455384075
==== e(   1) =    -4.28977 eV ==== 
     psi = 0.225*[#   5]+0.225*[#   9]+0.175*[#   1]+0.163*[#   2]+0.061*[#   3]+
          +0.061*[#   4]+0.017*[#   7]+0.017*[#   8]+0.017*[#  11]+0.017*[#  12]+
          +0.010*[#   6]+0.010*[#  10]+
    |psi|^2 = 1.000
==== e(   2) =     3.48012 eV ==== 
     psi = 0.381*[#   6]+0.381*[#  10]+0.074*[#   1]+0.058*[#   2]+0.036*[#   5]+
          +0.036*[#   9]+0.013*[#   3]+0.013*[#   4]+
    |psi|^2 = 0.997
==== e(   3) =     6.90045 eV ==== 
     psi = 0.221*[#   7]+0.221*[#   8]+0.221*[#  11]+0.221*[#  12]+0.042*[#   5]+
          +0.042*[#   9]+0.012*[#   3]+0.012*[#   4]+0.001*[#   1]+
    |psi|^2 = 0.994
==== e(   4) =     7.55887 eV ==== 
     psi = 0.243*[#   7]+0.243*[#   8]+0.243*[#  11]+0.243*[#  12]+0.012*[#   3]+
          +0.012*[#   4]+
    |psi|^2 = 0.996
==== e(   5) =    11.57069 eV ==== 
     psi = 0.218*[#   1]+0.114*[#   5]+0.114*[#   9]+0.102*[#   3]+0.102*[#   4]+
          +0.065*[#   6]+0.065*[#  10]+0.035*[#   2]+0.016*[#   7]+0.016*[#   8]+
          +0.016*[#  11]+0.016*[#  12]+
    |psi|^2 = 0.877
==== e(   6) =    13.94178 eV ==== 
     psi = 0.136*[#   7]+0.136*[#   8]+0.136*[#  11]+0.136*[#  12]+0.115*[#   5]+
          +0.115*[#   9]+0.057*[#   1]+0.028*[#   3]+0.028*[#   4]+0.020*[#   2]+
          +0.010*[#   6]+0.010*[#  10]+
    |psi|^2 = 0.926
==== e(   7) =    15.25665 eV ==== 
     psi = 0.202*[#   7]+0.202*[#   8]+0.202*[#  11]+0.202*[#  12]+0.059*[#   3]+
          +0.059*[#   4]+
    |psi|^2 = 0.923
==== e(   8) =    15.45049 eV ==== 
     psi = 0.311*[#   6]+0.311*[#  10]+0.059*[#   5]+0.059*[#   9]+0.024*[#   3]+
          +0.024*[#   4]+0.023*[#   1]+0.020*[#   7]+0.020*[#   8]+0.020*[#  11]+
          +0.020*[#  12]+
    |psi|^2 = 0.890

 k =   0.0000000000  0.1443375673  0.2183076113
==== e(   1) =    -4.01988 eV ==== 
     psi = 0.292*[#   2]+0.215*[#   5]+0.215*[#   9]+0.111*[#   1]+0.040*[#   3]+
          +0.040*[#   4]+0.015*[#   7]+0.015*[#   8]+0.015*[#  11]+0.015*[#  12]+
          +0.015*[#   6]+0.015*[#  10]+
    |psi|^2 = 1.000
==== e(   2) =     2.40709 eV ==== 
     psi = 0.367*[#   6]+0.367*[#  10]+0.106*[#   1]+0.045*[#   2]+0.037*[#   5]+
          +0.037*[#   9]+0.018*[#   3]+0.018*[#   4]+
    |psi|^2 = 0.998
==== e(   3) =     7.01599 eV ==== 
     psi = 0.223*[#   7]+0.223*[#   8]+0.223*[#  11]+0.223*[#  12]+0.041*[#   5]+
          +0.041*[#   9]+0.009*[#   3]+0.009*[#   4]+0.001*[#   6]+0.001*[#  10]+
    |psi|^2 = 0.995
==== e(   4) =     7.64397 eV ==== 
     psi = 0.245*[#   7]+0.245*[#   8]+0.245*[#  11]+0.245*[#  12]+0.009*[#   3]+
          +0.009*[#   4]+
    |psi|^2 = 0.997
==== e(   5) =    13.20443 eV ==== 
     psi = 0.177*[#   1]+0.114*[#   3]+0.114*[#   4]+0.071*[#   6]+0.071*[#  10]+
          +0.050*[#   7]+0.050*[#   8]+0.050*[#  11]+0.050*[#  12]+0.042*[#   5]+
          +0.042*[#   9]+0.013*[#   2]+
    |psi|^2 = 0.846
==== e(   6) =    14.18589 eV ==== 
     psi = 0.156*[#   5]+0.156*[#   9]+0.098*[#   1]+0.095*[#   7]+0.095*[#   8]+
          +0.095*[#  11]+0.095*[#  12]+0.047*[#   6]+0.047*[#  10]+0.037*[#   2]+
    |psi|^2 = 0.920
==== e(   7) =    14.89584 eV ==== 
     psi = 0.326*[#   6]+0.326*[#  10]+0.037*[#   1]+0.033*[#   3]+0.033*[#   4]+
          +0.024*[#   7]+0.024*[#   8]+0.024*[#  11]+0.024*[#  12]+0.022*[#   5]+
          +0.022*[#   9]+0.003*[#   2]+
    |psi|^2 = 0.899
==== e(   8) =    15.34370 eV ==== 
     psi = 0.207*[#   7]+0.207*[#   8]+0.207*[#  11]+0.207*[#  12]+0.043*[#   3]+
          +0.043*[#   4]+
    |psi|^2 = 0.914

 k =   0.0000000000  0.1443375673  0.2910768150
==== e(   1) =    -3.69297 eV ==== 
     psi = 0.404*[#   2]+0.210*[#   5]+0.210*[#   9]+0.057*[#   1]+0.021*[#   3]+
          +0.021*[#   4]+0.013*[#   6]+0.013*[#  10]+0.013*[#   7]+0.013*[#   8]+
          +0.013*[#  11]+0.013*[#  12]+
    |psi|^2 = 1.000
==== e(   2) =     1.46147 eV ==== 
     psi = 0.366*[#   6]+0.366*[#  10]+0.133*[#   1]+0.032*[#   2]+0.025*[#   5]+
          +0.025*[#   9]+0.024*[#   3]+0.024*[#   4]+
    |psi|^2 = 0.999
==== e(   3) =     7.13900 eV ==== 
     psi = 0.226*[#   7]+0.226*[#   8]+0.226*[#  11]+0.226*[#  12]+0.039*[#   5]+
          +0.039*[#   9]+0.005*[#   3]+0.005*[#   4]+
    |psi|^2 = 0.996
==== e(   4) =     7.73255 eV ==== 
     psi = 0.247*[#   7]+0.247*[#   8]+0.247*[#  11]+0.247*[#  12]+0.005*[#   3]+
          +0.005*[#   4]+
    |psi|^2 = 0.997
==== e(   5) =    13.99113 eV ==== 
     psi = 0.124*[#   7]+0.124*[#   8]+0.124*[#  11]+0.124*[#  12]+0.090*[#   6]+
          +0.090*[#  10]+0.062*[#   5]+0.062*[#   9]+0.018*[#   3]+0.018*[#   4]+
          +0.017*[#   1]+0.005*[#   2]+
    |psi|^2 = 0.856
==== e(   6) =    14.42936 eV ==== 
     psi = 0.295*[#   6]+0.295*[#  10]+0.070*[#   3]+0.070*[#   4]+0.040*[#   7]+
          +0.040*[#   8]+0.040*[#  11]+0.040*[#  12]+0.006*[#   1]+0.005*[#   5]+
          +0.005*[#   9]+0.002*[#   2]+
    |psi|^2 = 0.909
==== e(   7) =    15.40128 eV ==== 
     psi = 0.348*[#   1]+0.100*[#   5]+0.100*[#   9]+0.086*[#   6]+0.086*[#  10]+
          +0.050*[#   3]+0.050*[#   4]+0.033*[#   2]+0.006*[#   7]+0.006*[#   8]+
          +0.006*[#  11]+0.006*[#  12]+
    |psi|^2 = 0.874
==== e(   8) =    15.43592 eV ==== 
     psi = 0.213*[#   7]+0.213*[#   8]+0.213*[#  11]+0.213*[#  12]+0.024*[#   3]+
          +0.024*[#   4]+
    |psi|^2 = 0.901

 k =   0.0000000000  0.1443375673  0.3638460188
==== e(   1) =    -3.39384 eV ==== 
     psi = 0.488*[#   2]+0.212*[#   5]+0.212*[#   9]+0.017*[#   1]+0.012*[#   7]+
          +0.012*[#   8]+0.012*[#  11]+0.012*[#  12]+0.006*[#   3]+0.006*[#   4]+
          +0.006*[#   6]+0.006*[#  10]+
    |psi|^2 = 1.000
==== e(   2) =     0.77904 eV ==== 
     psi = 0.374*[#   6]+0.374*[#  10]+0.158*[#   1]+0.031*[#   3]+0.031*[#   4]+
          +0.013*[#   2]+0.009*[#   5]+0.009*[#   9]+
    |psi|^2 = 0.999
==== e(   3) =     7.23480 eV ==== 
     psi = 0.229*[#   7]+0.229*[#   8]+0.229*[#  11]+0.229*[#  12]+0.039*[#   5]+
          +0.039*[#   9]+0.002*[#   3]+0.002*[#   4]+
    |psi|^2 = 0.996
==== e(   4) =     7.79981 eV ==== 
     psi = 0.248*[#   7]+0.248*[#   8]+0.248*[#  11]+0.248*[#  12]+0.001*[#   3]+
          +0.001*[#   4]+
    |psi|^2 = 0.997
==== e(   5) =    13.97728 eV ==== 
     psi = 0.352*[#   6]+0.352*[#  10]+0.021*[#   1]+0.021*[#   3]+0.021*[#   4]+
          +0.017*[#   5]+0.017*[#   9]+0.016*[#   7]+0.016*[#   8]+0.016*[#  11]+
          +0.016*[#  12]+
    |psi|^2 = 0.864
==== e(   6) =    14.30654 eV ==== 
     psi = 0.154*[#   7]+0.154*[#   8]+0.154*[#  11]+0.154*[#  12]+0.076*[#   5]+
          +0.076*[#   9]+0.035*[#   6]+0.035*[#  10]+0.028*[#   3]+0.028*[#   4]+
          +0.011*[#   2]+0.002*[#   1]+
    |psi|^2 = 0.909
==== e(   7) =    15.50715 eV ==== 
     psi = 0.219*[#   7]+0.219*[#   8]+0.219*[#  11]+0.219*[#  12]+0.007*[#   3]+
          +0.007*[#   4]+
    |psi|^2 = 0.889
==== e(   8) =    17.03837 eV ==== 
     psi = 0.457*[#   1]+0.101*[#   6]+0.101*[#  10]+0.069*[#   3]+0.069*[#   4]+
          +0.030*[#   5]+0.030*[#   9]+0.011*[#   2]+
    |psi|^2 = 0.866

 k =   0.0000000000  0.1443375673 -0.4366152225
==== e(   1) =    -3.26404 eV ==== 
     psi = 0.522*[#   2]+0.216*[#   5]+0.216*[#   9]+0.012*[#   7]+0.012*[#   8]+
          +0.012*[#  11]+0.012*[#  12]+
    |psi|^2 = 0.999
==== e(   2) =     0.51987 eV ==== 
     psi = 0.380*[#   6]+0.380*[#  10]+0.170*[#   1]+0.035*[#   3]+0.035*[#   4]+
    |psi|^2 = 0.999
==== e(   3) =     7.27125 eV ==== 
     psi = 0.230*[#   7]+0.230*[#   8]+0.230*[#  11]+0.230*[#  12]+0.038*[#   5]+
          +0.038*[#   9]+
    |psi|^2 = 0.997
==== e(   4) =     7.82496 eV ==== 
     psi = 0.249*[#   7]+0.249*[#   8]+0.249*[#  11]+0.249*[#  12]+
    |psi|^2 = 0.997
==== e(   5) =    13.89221 eV ==== 
     psi = 0.389*[#   6]+0.389*[#  10]+0.038*[#   3]+0.038*[#   4]+0.023*[#   1]+
    |psi|^2 = 0.876
==== e(   6) =    14.33302 eV ==== 
     psi = 0.171*[#   7]+0.171*[#   8]+0.171*[#  11]+0.171*[#  12]+0.100*[#   5]+
          +0.100*[#   9]+0.013*[#   2]+
    |psi|^2 = 0.897
==== e(   7) =    15.53410 eV ==== 
     psi = 0.221*[#   7]+0.221*[#   8]+0.221*[#  11]+0.221*[#  12]+
    |psi|^2 = 0.884
==== e(   8) =    17.84478 eV ==== 
     psi = 0.563*[#   1]+0.108*[#   6]+0.108*[#  10]+0.057*[#   3]+0.057*[#   4]+
    |psi|^2 = 0.894

 k =   0.0000000000  0.2165063509  0.0000000000
==== e(   1) =    -4.18188 eV ==== 
     psi = 0.208*[#   5]+0.208*[#   9]+0.172*[#   1]+0.134*[#   3]+0.134*[#   4]+
          +0.036*[#   7]+0.036*[#   8]+0.036*[#  11]+0.036*[#  12]+
    |psi|^2 = 1.000
==== e(   2) =     5.30028 eV ==== 
     psi = 0.447*[#   6]+0.447*[#  10]+0.105*[#   2]+
    |psi|^2 = 0.999
==== e(   3) =     5.59378 eV ==== 
     psi = 0.202*[#   7]+0.202*[#   8]+0.202*[#  11]+0.202*[#  12]+0.070*[#   5]+
          +0.070*[#   9]+0.021*[#   3]+0.021*[#   4]+0.005*[#   1]+
    |psi|^2 = 0.995
==== e(   4) =     6.97243 eV ==== 
     psi = 0.239*[#   7]+0.239*[#   8]+0.239*[#  11]+0.239*[#  12]+0.021*[#   3]+
          +0.021*[#   4]+
    |psi|^2 = 0.997
==== e(   5) =     9.86664 eV ==== 
     psi = 0.184*[#   1]+0.163*[#   5]+0.163*[#   9]+0.155*[#   3]+0.155*[#   4]+
          +0.022*[#   7]+0.022*[#   8]+0.022*[#  11]+0.022*[#  12]+
    |psi|^2 = 0.908
==== e(   6) =    13.44398 eV ==== 
     psi = 0.183*[#   5]+0.183*[#   9]+0.103*[#   1]+0.101*[#   7]+0.101*[#   8]+
          +0.101*[#  11]+0.101*[#  12]+0.016*[#   3]+0.016*[#   4]+
    |psi|^2 = 0.907
==== e(   7) =    15.74130 eV ==== 
     psi = 0.463*[#   6]+0.463*[#  10]+0.009*[#   2]+
    |psi|^2 = 0.935
==== e(   8) =    16.35184 eV ==== 
     psi = 0.198*[#   7]+0.198*[#   8]+0.198*[#  11]+0.198*[#  12]+0.059*[#   3]+
          +0.059*[#   4]+
    |psi|^2 = 0.910

 k =   0.0000000000  0.2165063509  0.0727692038
==== e(   1) =    -4.12354 eV ==== 
     psi = 0.208*[#   5]+0.208*[#   9]+0.159*[#   1]+0.124*[#   3]+0.124*[#   4]+
          +0.035*[#   7]+0.035*[#   8]+0.035*[#  11]+0.035*[#  12]+0.033*[#   2]+
          +0.002*[#   6]+0.002*[#  10]+
    |psi|^2 = 1.000
==== e(   2) =     4.82023 eV ==== 
     psi = 0.412*[#   6]+0.412*[#  10]+0.083*[#   2]+0.025*[#   1]+0.017*[#   5]+
          +0.017*[#   9]+0.012*[#   3]+0.012*[#   4]+0.002*[#   7]+0.002*[#   8]+
          +0.002*[#  11]+0.002*[#  12]+
    |psi|^2 = 0.998
==== e(   3) =     5.63144 eV ==== 
     psi = 0.202*[#   7]+0.202*[#   8]+0.202*[#  11]+0.202*[#  12]+0.071*[#   5]+
          +0.071*[#   9]+0.017*[#   3]+0.017*[#   4]+0.006*[#   1]+0.003*[#   6]+
          +0.003*[#  10]+
    |psi|^2 = 0.995
==== e(   4) =     6.99303 eV ==== 
     psi = 0.239*[#   7]+0.239*[#   8]+0.239*[#  11]+0.239*[#  12]+0.020*[#   3]+
          +0.020*[#   4]+
    |psi|^2 = 0.997
==== e(   5) =    10.46746 eV ==== 
     psi = 0.160*[#   1]+0.146*[#   3]+0.146*[#   4]+0.136*[#   5]+0.136*[#   9]+
          +0.033*[#   6]+0.033*[#  10]+0.024*[#   7]+0.024*[#   8]+0.024*[#  11]+
          +0.024*[#  12]+0.017*[#   2]+
    |psi|^2 = 0.903
==== e(   6) =    13.48701 eV ==== 
     psi = 0.189*[#   5]+0.189*[#   9]+0.096*[#   7]+0.096*[#   8]+0.096*[#  11]+
          +0.096*[#  12]+0.089*[#   1]+0.012*[#   2]+0.012*[#   3]+0.012*[#   4]+
          +0.007*[#   6]+0.007*[#  10]+
    |psi|^2 = 0.906
==== e(   7) =    15.28610 eV ==== 
     psi = 0.384*[#   6]+0.384*[#  10]+0.047*[#   1]+0.017*[#   3]+0.017*[#   4]+
          +0.012*[#   7]+0.012*[#   8]+0.012*[#  11]+0.012*[#  12]+0.007*[#   5]+
          +0.007*[#   9]+0.003*[#   2]+
    |psi|^2 = 0.916
==== e(   8) =    16.37472 eV ==== 
     psi = 0.199*[#   7]+0.199*[#   8]+0.199*[#  11]+0.199*[#  12]+0.056*[#   3]+
          +0.056*[#   4]+
    |psi|^2 = 0.908

 k =   0.0000000000  0.2165063509  0.1455384075
==== e(   1) =    -3.95342 eV ==== 
     psi = 0.207*[#   5]+0.207*[#   9]+0.126*[#   1]+0.118*[#   2]+0.099*[#   3]+
          +0.099*[#   4]+0.032*[#   7]+0.032*[#   8]+0.032*[#  11]+0.032*[#  12]+
          +0.007*[#   6]+0.007*[#  10]+
    |psi|^2 = 1.000
==== e(   2) =     3.82422 eV ==== 
     psi = 0.376*[#   6]+0.376*[#  10]+0.061*[#   1]+0.057*[#   2]+0.035*[#   5]+
          +0.035*[#   9]+0.023*[#   3]+0.023*[#   4]+0.003*[#   7]+0.003*[#   8]+
          +0.003*[#  11]+0.003*[#  12]+
    |psi|^2 = 0.997
==== e(   3) =     5.72443 eV ==== 
     psi = 0.203*[#   7]+0.203*[#   8]+0.203*[#  11]+0.203*[#  12]+0.071*[#   5]+
          +0.071*[#   9]+0.015*[#   3]+0.015*[#   4]+0.005*[#   1]+0.002*[#   6]+
          +0.002*[#  10]+
    |psi|^2 = 0.995
==== e(   4) =     7.05034 eV ==== 
     psi = 0.241*[#   7]+0.241*[#   8]+0.241*[#  11]+0.241*[#  12]+0.017*[#   3]+
          +0.017*[#   4]+
    |psi|^2 = 0.998
==== e(   5) =    11.81222 eV ==== 
     psi = 0.141*[#   3]+0.141*[#   4]+0.131*[#   1]+0.083*[#   5]+0.083*[#   9]+
          +0.070*[#   6]+0.070*[#  10]+0.035*[#   7]+0.035*[#   8]+0.035*[#  11]+
          +0.035*[#  12]+0.021*[#   2]+
    |psi|^2 = 0.877
==== e(   6) =    13.61254 eV ==== 
     psi = 0.205*[#   5]+0.205*[#   9]+0.072*[#   7]+0.072*[#   8]+0.072*[#  11]+
          +0.072*[#  12]+0.059*[#   1]+0.053*[#   6]+0.053*[#  10]+0.038*[#   2]+
    |psi|^2 = 0.901
==== e(   7) =    14.55956 eV ==== 
     psi = 0.313*[#   6]+0.313*[#  10]+0.100*[#   1]+0.038*[#   3]+0.038*[#   4]+
          +0.028*[#   7]+0.028*[#   8]+0.028*[#  11]+0.028*[#  12]+0.008*[#   5]+
          +0.008*[#   9]+
    |psi|^2 = 0.929
==== e(   8) =    16.43969 eV ==== 
     psi = 0.201*[#   7]+0.201*[#   8]+0.201*[#  11]+0.201*[#  12]+0.048*[#   3]+
          +0.048*[#   4]+
    |psi|^2 = 0.902

 k =   0.0000000000  0.2165063509  0.2183076113
==== e(   1) =    -3.68889 eV ==== 
     psi = 0.224*[#   2]+0.207*[#   5]+0.207*[#   9]+0.085*[#   1]+0.068*[#   3]+
          +0.068*[#   4]+0.030*[#   7]+0.030*[#   8]+0.030*[#  11]+0.030*[#  12]+
          +0.011*[#   6]+0.011*[#  10]+
    |psi|^2 = 1.000
==== e(   2) =     2.76356 eV ==== 
     psi = 0.359*[#   6]+0.359*[#  10]+0.091*[#   1]+0.042*[#   2]+0.037*[#   5]+
          +0.037*[#   9]+0.032*[#   3]+0.032*[#   4]+0.002*[#   7]+0.002*[#   8]+
          +0.002*[#  11]+0.002*[#  12]+
    |psi|^2 = 0.998
==== e(   3) =     5.85786 eV ==== 
     psi = 0.206*[#   7]+0.206*[#   8]+0.206*[#  11]+0.206*[#  12]+0.070*[#   5]+
          +0.070*[#   9]+0.012*[#   3]+0.012*[#   4]+0.003*[#   1]+0.002*[#   6]+
          +0.002*[#  10]+
    |psi|^2 = 0.996
==== e(   4) =     7.13115 eV ==== 
     psi = 0.243*[#   7]+0.243*[#   8]+0.243*[#  11]+0.243*[#  12]+0.012*[#   3]+
          +0.012*[#   4]+
    |psi|^2 = 0.998
==== e(   5) =    13.07966 eV ==== 
     psi = 0.127*[#   6]+0.127*[#  10]+0.073*[#   1]+0.071*[#   7]+0.071*[#   8]+
          +0.071*[#  11]+0.071*[#  12]+0.052*[#   3]+0.052*[#   4]+0.049*[#   5]+
          +0.049*[#   9]+
    |psi|^2 = 0.815
==== e(   6) =    13.75121 eV ==== 
     psi = 0.265*[#   6]+0.265*[#  10]+0.131*[#   3]+0.131*[#   4]+0.026*[#   5]+
          +0.026*[#   9]+0.016*[#   7]+0.016*[#   8]+0.016*[#  11]+0.016*[#  12]+
          +0.008*[#   2]+
    |psi|^2 = 0.918
==== e(   7) =    14.31200 eV ==== 
     psi = 0.233*[#   1]+0.186*[#   5]+0.186*[#   9]+0.060*[#   6]+0.060*[#  10]+
          +0.056*[#   2]+0.044*[#   7]+0.044*[#   8]+0.044*[#  11]+0.044*[#  12]+
    |psi|^2 = 0.958
==== e(   8) =    16.53343 eV ==== 
     psi = 0.206*[#   7]+0.206*[#   8]+0.206*[#  11]+0.206*[#  12]+0.036*[#   3]+
          +0.036*[#   4]+
    |psi|^2 = 0.894

 k =   0.0000000000  0.2165063509  0.2910768150
==== e(   1) =    -3.36983 eV ==== 
     psi = 0.326*[#   2]+0.212*[#   5]+0.212*[#   9]+0.046*[#   1]+0.037*[#   3]+
          +0.037*[#   4]+0.027*[#   7]+0.027*[#   8]+0.027*[#  11]+0.027*[#  12]+
          +0.010*[#   6]+0.010*[#  10]+
    |psi|^2 = 0.999
==== e(   2) =     1.83046 eV ==== 
     psi = 0.354*[#   6]+0.354*[#  10]+0.117*[#   1]+0.043*[#   3]+0.043*[#   4]+
          +0.029*[#   2]+0.026*[#   5]+0.026*[#   9]+0.002*[#   7]+0.002*[#   8]+
          +0.002*[#  11]+0.002*[#  12]+
    |psi|^2 = 0.999
==== e(   3) =     6.00245 eV ==== 
     psi = 0.209*[#   7]+0.209*[#   8]+0.209*[#  11]+0.209*[#  12]+0.070*[#   5]+
          +0.070*[#   9]+0.007*[#   3]+0.007*[#   4]+0.002*[#   1]+0.001*[#   6]+
          +0.001*[#  10]+
    |psi|^2 = 0.996
==== e(   4) =     7.21521 eV ==== 
     psi = 0.246*[#   7]+0.246*[#   8]+0.246*[#  11]+0.246*[#  12]+0.007*[#   3]+
          +0.007*[#   4]+
    |psi|^2 = 0.997
==== e(   5) =    12.91630 eV ==== 
     psi = 0.338*[#   6]+0.338*[#  10]+0.064*[#   1]+0.022*[#   5]+0.022*[#   9]+
          +0.019*[#   3]+0.019*[#   4]+0.011*[#   7]+0.011*[#   8]+0.011*[#  11]+
          +0.011*[#  12]+0.001*[#   2]+
    |psi|^2 = 0.868
==== e(   6) =    13.93398 eV ==== 
     psi = 0.117*[#   7]+0.117*[#   8]+0.117*[#  11]+0.117*[#  12]+0.110*[#   5]+
          +0.110*[#   9]+0.075*[#   3]+0.075*[#   4]+0.027*[#   6]+0.027*[#  10]+
          +0.018*[#   2]+0.005*[#   1]+
    |psi|^2 = 0.914
==== e(   7) =    15.71170 eV ==== 
     psi = 0.294*[#   1]+0.101*[#   6]+0.101*[#  10]+0.098*[#   5]+0.098*[#   9]+
          +0.085*[#   3]+0.085*[#   4]+0.035*[#   2]+
    |psi|^2 = 0.895
==== e(   8) =    16.63340 eV ==== 
     psi = 0.210*[#   7]+0.210*[#   8]+0.210*[#  11]+0.210*[#  12]+0.021*[#   3]+
          +0.021*[#   4]+
    |psi|^2 = 0.885

 k =   0.0000000000  0.2165063509  0.3638460188
==== e(   1) =    -3.07985 eV ==== 
     psi = 0.405*[#   2]+0.222*[#   5]+0.222*[#   9]+0.026*[#   7]+0.026*[#   8]+
          +0.026*[#  11]+0.026*[#  12]+0.014*[#   1]+0.011*[#   3]+0.011*[#   4]+
          +0.005*[#   6]+0.005*[#  10]+
    |psi|^2 = 0.999
==== e(   2) =     1.15984 eV ==== 
     psi = 0.358*[#   6]+0.358*[#  10]+0.140*[#   1]+0.056*[#   3]+0.056*[#   4]+
          +0.011*[#   2]+0.009*[#   5]+0.009*[#   9]+
    |psi|^2 = 0.999
==== e(   3) =     6.11707 eV ==== 
     psi = 0.213*[#   7]+0.213*[#   8]+0.213*[#  11]+0.213*[#  12]+0.070*[#   5]+
          +0.070*[#   9]+0.002*[#   3]+0.002*[#   4]+
    |psi|^2 = 0.996
==== e(   4) =     7.27897 eV ==== 
     psi = 0.248*[#   7]+0.248*[#   8]+0.248*[#  11]+0.248*[#  12]+0.002*[#   3]+
          +0.002*[#   4]+
    |psi|^2 = 0.997
==== e(   5) =    12.55534 eV ==== 
     psi = 0.358*[#   6]+0.358*[#  10]+0.069*[#   1]+0.045*[#   3]+0.045*[#   4]+
          +0.004*[#   5]+0.004*[#   9]+0.002*[#   7]+0.002*[#   8]+0.002*[#  11]+
          +0.002*[#  12]+
    |psi|^2 = 0.893
==== e(   6) =    14.10730 eV ==== 
     psi = 0.172*[#   5]+0.172*[#   9]+0.123*[#   7]+0.123*[#   8]+0.123*[#  11]+
          +0.123*[#  12]+0.028*[#   2]+0.017*[#   3]+0.017*[#   4]+0.003*[#   6]+
          +0.003*[#  10]+0.002*[#   1]+
    |psi|^2 = 0.906
==== e(   7) =    16.71252 eV ==== 
     psi = 0.215*[#   7]+0.215*[#   8]+0.215*[#  11]+0.215*[#  12]+0.006*[#   3]+
          +0.006*[#   4]+
    |psi|^2 = 0.874
==== e(   8) =    17.30217 eV ==== 
     psi = 0.434*[#   1]+0.117*[#   6]+0.117*[#  10]+0.080*[#   3]+0.080*[#   4]+
          +0.026*[#   5]+0.026*[#   9]+0.011*[#   2]+
    |psi|^2 = 0.893

 k =   0.0000000000  0.2165063509 -0.4366152225
==== e(   1) =    -2.95488 eV ==== 
     psi = 0.438*[#   2]+0.228*[#   5]+0.228*[#   9]+0.026*[#   7]+0.026*[#   8]+
          +0.026*[#  11]+0.026*[#  12]+
    |psi|^2 = 0.999
==== e(   2) =     0.90638 eV ==== 
     psi = 0.361*[#   6]+0.361*[#  10]+0.150*[#   1]+0.063*[#   3]+0.063*[#   4]+
    |psi|^2 = 0.999
==== e(   3) =     6.16118 eV ==== 
     psi = 0.214*[#   7]+0.214*[#   8]+0.214*[#  11]+0.214*[#  12]+0.070*[#   5]+
          +0.070*[#   9]+
    |psi|^2 = 0.996
==== e(   4) =     7.30280 eV ==== 
     psi = 0.249*[#   7]+0.249*[#   8]+0.249*[#  11]+0.249*[#  12]+
    |psi|^2 = 0.997
==== e(   5) =    12.41987 eV ==== 
     psi = 0.360*[#   6]+0.360*[#  10]+0.071*[#   1]+0.054*[#   3]+0.054*[#   4]+
    |psi|^2 = 0.899
==== e(   6) =    14.17471 eV ==== 
     psi = 0.189*[#   5]+0.189*[#   9]+0.124*[#   7]+0.124*[#   8]+0.124*[#  11]+
          +0.124*[#  12]+0.030*[#   2]+
    |psi|^2 = 0.904
==== e(   7) =    16.74311 eV ==== 
     psi = 0.217*[#   7]+0.217*[#   8]+0.217*[#  11]+0.217*[#  12]+
    |psi|^2 = 0.869
==== e(   8) =    17.99610 eV ==== 
     psi = 0.632*[#   1]+0.122*[#   6]+0.122*[#  10]+0.029*[#   3]+0.029*[#   4]+
    |psi|^2 = 0.935

 k =   0.0000000000  0.2886751346  0.0000000000
==== e(   1) =    -3.70878 eV ==== 
     psi = 0.186*[#   5]+0.186*[#   9]+0.155*[#   3]+0.155*[#   4]+0.113*[#   1]+
          +0.051*[#   7]+0.051*[#   8]+0.051*[#  11]+0.051*[#  12]+
    |psi|^2 = 1.000
==== e(   2) =     4.29902 eV ==== 
     psi = 0.189*[#   7]+0.189*[#   8]+0.189*[#  11]+0.189*[#  12]+0.093*[#   5]+
          +0.093*[#   9]+0.022*[#   3]+0.022*[#   4]+0.010*[#   1]+
    |psi|^2 = 0.996
==== e(   3) =     5.75358 eV ==== 
     psi = 0.448*[#   6]+0.448*[#  10]+0.102*[#   2]+
    |psi|^2 = 0.998
==== e(   4) =     6.48472 eV ==== 
     psi = 0.237*[#   7]+0.237*[#   8]+0.237*[#  11]+0.237*[#  12]+0.024*[#   3]+
          +0.024*[#   4]+
    |psi|^2 = 0.998
==== e(   5) =    10.28422 eV ==== 
     psi = 0.187*[#   3]+0.187*[#   4]+0.130*[#   5]+0.130*[#   9]+0.121*[#   1]+
          +0.037*[#   7]+0.037*[#   8]+0.037*[#  11]+0.037*[#  12]+
    |psi|^2 = 0.905
==== e(   6) =    13.07921 eV ==== 
     psi = 0.261*[#   5]+0.261*[#   9]+0.109*[#   1]+0.063*[#   7]+0.063*[#   8]+
          +0.063*[#  11]+0.063*[#  12]+
    |psi|^2 = 0.885
==== e(   7) =    14.54403 eV ==== 
     psi = 0.448*[#   6]+0.448*[#  10]+0.033*[#   2]+
    |psi|^2 = 0.929
==== e(   8) =    16.99403 eV ==== 
     psi = 0.273*[#   1]+0.080*[#   5]+0.080*[#   9]+0.065*[#   3]+0.065*[#   4]+
          +0.059*[#   7]+0.059*[#   8]+0.059*[#  11]+0.059*[#  12]+
    |psi|^2 = 0.801

 k =   0.0000000000  0.2886751346  0.0727692038
==== e(   1) =    -3.65179 eV ==== 
     psi = 0.188*[#   5]+0.188*[#   9]+0.146*[#   3]+0.146*[#   4]+0.107*[#   1]+
          +0.050*[#   7]+0.050*[#   8]+0.050*[#  11]+0.050*[#  12]+0.022*[#   2]+
          +0.002*[#   6]+0.002*[#  10]+
    |psi|^2 = 1.000
==== e(   2) =     4.33200 eV ==== 
     psi = 0.188*[#   7]+0.188*[#   8]+0.188*[#  11]+0.188*[#  12]+0.091*[#   5]+
          +0.091*[#   9]+0.023*[#   3]+0.023*[#   4]+0.008*[#   1]+0.002*[#   6]+
          +0.002*[#  10]+0.001*[#   2]+
    |psi|^2 = 0.996
==== e(   3) =     5.29058 eV ==== 
     psi = 0.413*[#   6]+0.413*[#  10]+0.079*[#   2]+0.023*[#   1]+0.019*[#   5]+
          +0.019*[#   9]+0.011*[#   3]+0.011*[#   4]+0.002*[#   7]+0.002*[#   8]+
          +0.002*[#  11]+0.002*[#  12]+
    |psi|^2 = 0.997
==== e(   4) =     6.50440 eV ==== 
     psi = 0.238*[#   7]+0.238*[#   8]+0.238*[#  11]+0.238*[#  12]+0.023*[#   3]+
          +0.023*[#   4]+
    |psi|^2 = 0.998
==== e(   5) =    10.85555 eV ==== 
     psi = 0.173*[#   3]+0.173*[#   4]+0.103*[#   5]+0.103*[#   9]+0.103*[#   1]+
          +0.040*[#   7]+0.040*[#   8]+0.040*[#  11]+0.040*[#  12]+0.035*[#   6]+
          +0.035*[#  10]+0.011*[#   2]+
    |psi|^2 = 0.894
==== e(   6) =    13.11540 eV ==== 
     psi = 0.257*[#   5]+0.257*[#   9]+0.081*[#   1]+0.053*[#   7]+0.053*[#   8]+
          +0.053*[#  11]+0.053*[#  12]+0.028*[#   6]+0.028*[#  10]+0.023*[#   2]+
    |psi|^2 = 0.886
==== e(   7) =    14.15536 eV ==== 
     psi = 0.373*[#   6]+0.373*[#  10]+0.089*[#   1]+0.015*[#   3]+0.015*[#   4]+
          +0.013*[#   2]+0.011*[#   7]+0.011*[#   8]+0.011*[#  11]+0.011*[#  12]+
          +0.007*[#   5]+0.007*[#   9]+
    |psi|^2 = 0.939
==== e(   8) =    17.41354 eV ==== 
     psi = 0.209*[#   1]+0.096*[#   5]+0.096*[#   9]+0.054*[#   3]+0.054*[#   4]+
          +0.054*[#   7]+0.054*[#   8]+0.054*[#  11]+0.054*[#  12]+0.043*[#   6]+
          +0.043*[#  10]+0.008*[#   2]+
    |psi|^2 = 0.817

 k =   0.0000000000  0.2886751346  0.1455384075
==== e(   1) =    -3.48587 eV ==== 
     psi = 0.192*[#   5]+0.192*[#   9]+0.121*[#   3]+0.121*[#   4]+0.089*[#   1]+
          +0.080*[#   2]+0.048*[#   7]+0.048*[#   8]+0.048*[#  11]+0.048*[#  12]+
          +0.005*[#   6]+0.005*[#  10]+
    |psi|^2 = 1.000
==== e(   2) =     4.25689 eV ==== 
     psi = 0.295*[#   6]+0.295*[#  10]+0.048*[#   2]+0.046*[#   3]+0.046*[#   4]+
          +0.046*[#   7]+0.046*[#   8]+0.046*[#  11]+0.046*[#  12]+0.029*[#   5]+
          +0.029*[#   9]+0.027*[#   1]+
    |psi|^2 = 0.998
==== e(   3) =     4.48928 eV ==== 
     psi = 0.147*[#   7]+0.147*[#   8]+0.147*[#  11]+0.147*[#  12]+0.100*[#   5]+
          +0.100*[#   9]+0.081*[#   6]+0.081*[#  10]+0.034*[#   1]+0.006*[#   2]+
          +0.002*[#   3]+0.002*[#   4]+
    |psi|^2 = 0.996
==== e(   4) =     6.55911 eV ==== 
     psi = 0.240*[#   7]+0.240*[#   8]+0.240*[#  11]+0.240*[#  12]+0.019*[#   3]+
          +0.019*[#   4]+
    |psi|^2 = 0.998
==== e(   5) =    12.02258 eV ==== 
     psi = 0.120*[#   3]+0.120*[#   4]+0.089*[#   6]+0.089*[#  10]+0.077*[#   1]+
          +0.057*[#   5]+0.057*[#   9]+0.057*[#   7]+0.057*[#   8]+0.057*[#  11]+
          +0.057*[#  12]+0.003*[#   2]+
    |psi|^2 = 0.839
==== e(   6) =    13.08637 eV ==== 
     psi = 0.246*[#   6]+0.246*[#  10]+0.111*[#   5]+0.111*[#   9]+0.065*[#   3]+
          +0.065*[#   4]+0.049*[#   2]+0.006*[#   7]+0.006*[#   8]+0.006*[#  11]+
          +0.006*[#  12]+
    |psi|^2 = 0.916
==== e(   7) =    13.70761 eV ==== 
     psi = 0.230*[#   1]+0.165*[#   5]+0.165*[#   9]+0.105*[#   6]+0.105*[#  10]+
          +0.042*[#   7]+0.042*[#   8]+0.042*[#  11]+0.042*[#  12]+0.017*[#   2]+
          +0.007*[#   3]+0.007*[#   4]+
    |psi|^2 = 0.968
==== e(   8) =    17.83559 eV ==== 
     psi = 0.195*[#   7]+0.195*[#   8]+0.195*[#  11]+0.195*[#  12]+0.057*[#   3]+
          +0.057*[#   4]+
    |psi|^2 = 0.893

 k =   0.0000000000  0.2886751346  0.2183076113
==== e(   1) =    -3.22864 eV ==== 
     psi = 0.201*[#   5]+0.201*[#   9]+0.158*[#   2]+0.087*[#   3]+0.087*[#   4]+
          +0.064*[#   1]+0.046*[#   7]+0.046*[#   8]+0.046*[#  11]+0.046*[#  12]+
          +0.008*[#   6]+0.008*[#  10]+
    |psi|^2 = 0.999
==== e(   2) =     3.25222 eV ==== 
     psi = 0.352*[#   6]+0.352*[#  10]+0.076*[#   1]+0.046*[#   3]+0.046*[#   4]+
          +0.037*[#   2]+0.034*[#   5]+0.034*[#   9]+0.005*[#   7]+0.005*[#   8]+
          +0.005*[#  11]+0.005*[#  12]+
    |psi|^2 = 0.998
==== e(   3) =     4.60038 eV ==== 
     psi = 0.190*[#   7]+0.190*[#   8]+0.190*[#  11]+0.190*[#  12]+0.099*[#   5]+
          +0.099*[#   9]+0.011*[#   3]+0.011*[#   4]+0.009*[#   1]+0.004*[#   6]+
          +0.004*[#  10]+
    |psi|^2 = 0.996
==== e(   4) =     6.63628 eV ==== 
     psi = 0.243*[#   7]+0.243*[#   8]+0.243*[#  11]+0.243*[#  12]+0.014*[#   3]+
          +0.014*[#   4]+
    |psi|^2 = 0.998
==== e(   5) =    12.11487 eV ==== 
     psi = 0.313*[#   6]+0.313*[#  10]+0.099*[#   1]+0.032*[#   5]+0.032*[#   9]+
          +0.016*[#   7]+0.016*[#   8]+0.016*[#  11]+0.016*[#  12]+0.008*[#   2]+
          +0.003*[#   3]+0.003*[#   4]+
    |psi|^2 = 0.867
==== e(   6) =    13.31535 eV ==== 
     psi = 0.131*[#   3]+0.131*[#   4]+0.090*[#   5]+0.090*[#   9]+0.082*[#   7]+
          +0.082*[#   8]+0.082*[#  11]+0.082*[#  12]+0.060*[#   6]+0.060*[#  10]+
          +0.014*[#   1]+0.004*[#   2]+
    |psi|^2 = 0.908
==== e(   7) =    14.47074 eV ==== 
     psi = 0.221*[#   1]+0.182*[#   5]+0.182*[#   9]+0.079*[#   6]+0.079*[#  10]+
          +0.065*[#   3]+0.065*[#   4]+0.065*[#   2]+0.002*[#   7]+0.002*[#   8]+
          +0.002*[#  11]+0.002*[#  12]+
    |psi|^2 = 0.946
==== e(   8) =    17.92363 eV ==== 
     psi = 0.192*[#   7]+0.192*[#   8]+0.192*[#  11]+0.192*[#  12]+0.063*[#   3]+
          +0.063*[#   4]+
    |psi|^2 = 0.895

 k =   0.0000000000  0.2886751346  0.2910768150
==== e(   1) =    -2.92016 eV ==== 
     psi = 0.239*[#   2]+0.215*[#   5]+0.215*[#   9]+0.049*[#   3]+0.049*[#   4]+
          +0.045*[#   7]+0.045*[#   8]+0.045*[#  11]+0.045*[#  12]+0.036*[#   1]+
          +0.008*[#   6]+0.008*[#  10]+
    |psi|^2 = 0.999
==== e(   2) =     2.33862 eV ==== 
     psi = 0.345*[#   6]+0.345*[#  10]+0.101*[#   1]+0.060*[#   3]+0.060*[#   4]+
          +0.026*[#   5]+0.026*[#   9]+0.024*[#   2]+0.003*[#   7]+0.003*[#   8]+
          +0.003*[#  11]+0.003*[#  12]+
    |psi|^2 = 0.999
==== e(   3) =     4.76325 eV ==== 
     psi = 0.194*[#   7]+0.194*[#   8]+0.194*[#  11]+0.194*[#  12]+0.099*[#   5]+
          +0.099*[#   9]+0.007*[#   3]+0.007*[#   4]+0.004*[#   1]+0.002*[#   6]+
          +0.002*[#  10]+0.002*[#   2]+
    |psi|^2 = 0.997
==== e(   4) =     6.71643 eV ==== 
     psi = 0.246*[#   7]+0.246*[#   8]+0.246*[#  11]+0.246*[#  12]+0.007*[#   3]+
          +0.007*[#   4]+
    |psi|^2 = 0.998
==== e(   5) =    11.51056 eV ==== 
     psi = 0.342*[#   6]+0.342*[#  10]+0.120*[#   1]+0.030*[#   3]+0.030*[#   4]+
          +0.010*[#   5]+0.010*[#   9]+0.005*[#   7]+0.005*[#   8]+0.005*[#  11]+
          +0.005*[#  12]+0.002*[#   2]+
    |psi|^2 = 0.907
==== e(   6) =    13.64411 eV ==== 
     psi = 0.196*[#   5]+0.196*[#   9]+0.087*[#   7]+0.087*[#   8]+0.087*[#  11]+
          +0.087*[#  12]+0.050*[#   3]+0.050*[#   4]+0.038*[#   2]+0.016*[#   1]+
          +0.007*[#   6]+0.007*[#  10]+
    |psi|^2 = 0.908
==== e(   7) =    16.09619 eV ==== 
     psi = 0.268*[#   1]+0.116*[#   6]+0.116*[#  10]+0.111*[#   3]+0.111*[#   4]+
          +0.072*[#   5]+0.072*[#   9]+0.031*[#   2]+0.002*[#   7]+0.002*[#   8]+
          +0.002*[#  11]+0.002*[#  12]+
    |psi|^2 = 0.903
==== e(   8) =    17.98376 eV ==== 
     psi = 0.155*[#   7]+0.155*[#   8]+0.155*[#  11]+0.155*[#  12]+0.146*[#   3]+
          +0.146*[#   4]+
    |psi|^2 = 0.911

 k =   0.0000000000  0.2886751346  0.3638460188
==== e(   1) =    -2.64227 eV ==== 
     psi = 0.306*[#   2]+0.232*[#   5]+0.232*[#   9]+0.045*[#   7]+0.045*[#   8]+
          +0.045*[#  11]+0.045*[#  12]+0.015*[#   3]+0.015*[#   4]+0.011*[#   1]+
          +0.003*[#   6]+0.003*[#  10]+
    |psi|^2 = 0.999
==== e(   2) =     1.68441 eV ==== 
     psi = 0.345*[#   6]+0.345*[#  10]+0.122*[#   1]+0.077*[#   3]+0.077*[#   4]+
          +0.009*[#   5]+0.009*[#   9]+0.009*[#   2]+0.001*[#   7]+0.001*[#   8]+
          +0.001*[#  11]+0.001*[#  12]+
    |psi|^2 = 0.999
==== e(   3) =     4.89575 eV ==== 
     psi = 0.197*[#   7]+0.197*[#   8]+0.197*[#  11]+0.197*[#  12]+0.100*[#   5]+
          +0.100*[#   9]+0.002*[#   3]+0.002*[#   4]+0.002*[#   2]+0.001*[#   1]+
    |psi|^2 = 0.997
==== e(   4) =     6.77718 eV ==== 
     psi = 0.248*[#   7]+0.248*[#   8]+0.248*[#  11]+0.248*[#  12]+0.002*[#   3]+
          +0.002*[#   4]+
    |psi|^2 = 0.997
==== e(   5) =    11.06962 eV ==== 
     psi = 0.345*[#   6]+0.345*[#  10]+0.126*[#   1]+0.047*[#   3]+0.047*[#   4]+
          +0.002*[#   5]+0.002*[#   9]+0.001*[#   7]+0.001*[#   8]+0.001*[#  11]+
          +0.001*[#  12]+
    |psi|^2 = 0.922
==== e(   6) =    13.87190 eV ==== 
     psi = 0.245*[#   5]+0.245*[#   9]+0.084*[#   7]+0.084*[#   8]+0.084*[#  11]+
          +0.084*[#  12]+0.053*[#   2]+0.013*[#   3]+0.013*[#   4]+0.005*[#   1]+
    |psi|^2 = 0.913
==== e(   7) =    17.50373 eV ==== 
     psi = 0.572*[#   1]+0.132*[#   6]+0.132*[#  10]+0.035*[#   3]+0.035*[#   4]+
          +0.009*[#   5]+0.009*[#   9]+0.004*[#   2]+0.002*[#   7]+0.002*[#   8]+
          +0.002*[#  11]+0.002*[#  12]+
    |psi|^2 = 0.932
==== e(   8) =    17.77710 eV ==== 
     psi = 0.424*[#   3]+0.424*[#   4]+0.009*[#   7]+0.009*[#   8]+0.009*[#  11]+
          +0.009*[#  12]+
    |psi|^2 = 0.886

 k =   0.0000000000  0.2886751346 -0.4366152225
==== e(   1) =    -2.52354 eV ==== 
     psi = 0.334*[#   2]+0.241*[#   5]+0.241*[#   9]+0.046*[#   7]+0.046*[#   8]+
          +0.046*[#  11]+0.046*[#  12]+
    |psi|^2 = 0.999
==== e(   2) =     1.43855 eV ==== 
     psi = 0.347*[#   6]+0.347*[#  10]+0.132*[#   1]+0.087*[#   3]+0.087*[#   4]+
    |psi|^2 = 0.999
==== e(   3) =     4.94743 eV ==== 
     psi = 0.198*[#   7]+0.198*[#   8]+0.198*[#  11]+0.198*[#  12]+0.101*[#   5]+
          +0.101*[#   9]+0.002*[#   2]+
    |psi|^2 = 0.997
==== e(   4) =     6.79989 eV ==== 
     psi = 0.249*[#   7]+0.249*[#   8]+0.249*[#  11]+0.249*[#  12]+
    |psi|^2 = 0.997
==== e(   5) =    10.91139 eV ==== 
     psi = 0.346*[#   6]+0.346*[#  10]+0.128*[#   1]+0.054*[#   3]+0.054*[#   4]+
    |psi|^2 = 0.927
==== e(   6) =    13.96154 eV ==== 
     psi = 0.262*[#   5]+0.262*[#   9]+0.083*[#   7]+0.083*[#   8]+0.083*[#  11]+
          +0.083*[#  12]+0.057*[#   2]+
    |psi|^2 = 0.915
==== e(   7) =    17.75659 eV ==== 
     psi = 0.715*[#   1]+0.117*[#   6]+0.117*[#  10]+0.002*[#   3]+0.002*[#   4]+
    |psi|^2 = 0.953
==== e(   8) =    18.18401 eV ==== 
     psi = 0.213*[#   7]+0.213*[#   8]+0.213*[#  11]+0.213*[#  12]+
    |psi|^2 = 0.853

 k =   0.0000000000  0.3608439182  0.0000000000
==== e(   1) =    -3.10680 eV ==== 
     psi = 0.174*[#   5]+0.174*[#   9]+0.157*[#   3]+0.157*[#   4]+0.075*[#   1]+
          +0.066*[#   7]+0.066*[#   8]+0.066*[#  11]+0.066*[#  12]+
    |psi|^2 = 0.999
==== e(   2) =     3.00264 eV ==== 
     psi = 0.177*[#   7]+0.177*[#   8]+0.177*[#  11]+0.177*[#  12]+0.112*[#   5]+
          +0.112*[#   9]+0.023*[#   3]+0.023*[#   4]+0.017*[#   1]+
    |psi|^2 = 0.997
==== e(   3) =     6.07146 eV ==== 
     psi = 0.237*[#   7]+0.237*[#   8]+0.237*[#  11]+0.237*[#  12]+0.025*[#   3]+
          +0.025*[#   4]+
    |psi|^2 = 0.999
==== e(   4) =     6.31719 eV ==== 
     psi = 0.452*[#   6]+0.452*[#  10]+0.092*[#   2]+
    |psi|^2 = 0.997
==== e(   5) =    10.77112 eV ==== 
     psi = 0.199*[#   3]+0.199*[#   4]+0.099*[#   5]+0.099*[#   9]+0.079*[#   1]+
          +0.052*[#   7]+0.052*[#   8]+0.052*[#  11]+0.052*[#  12]+
    |psi|^2 = 0.882
==== e(   6) =    12.79362 eV ==== 
     psi = 0.313*[#   5]+0.313*[#   9]+0.102*[#   1]+0.031*[#   7]+0.031*[#   8]+
          +0.031*[#  11]+0.031*[#  12]+0.011*[#   3]+0.011*[#   4]+
    |psi|^2 = 0.875
==== e(   7) =    13.30220 eV ==== 
     psi = 0.432*[#   6]+0.432*[#  10]+0.076*[#   2]+
    |psi|^2 = 0.941
==== e(   8) =    16.57205 eV ==== 
     psi = 0.472*[#   1]+0.078*[#   3]+0.078*[#   4]+0.042*[#   7]+0.042*[#   8]+
          +0.042*[#  11]+0.042*[#  12]+0.013*[#   5]+0.013*[#   9]+
    |psi|^2 = 0.824

 k =   0.0000000000  0.3608439182  0.0727692038
==== e(   1) =    -3.05155 eV ==== 
     psi = 0.176*[#   5]+0.176*[#   9]+0.149*[#   3]+0.149*[#   4]+0.072*[#   1]+
          +0.065*[#   7]+0.065*[#   8]+0.065*[#  11]+0.065*[#  12]+0.014*[#   2]+
          +0.001*[#   6]+0.001*[#  10]+
    |psi|^2 = 0.999
==== e(   2) =     3.04160 eV ==== 
     psi = 0.177*[#   7]+0.177*[#   8]+0.177*[#  11]+0.177*[#  12]+0.112*[#   5]+
          +0.112*[#   9]+0.023*[#   3]+0.023*[#   4]+0.015*[#   1]+
    |psi|^2 = 0.997
==== e(   3) =     5.86344 eV ==== 
     psi = 0.417*[#   6]+0.417*[#  10]+0.073*[#   2]+0.018*[#   1]+0.016*[#   3]+
          +0.016*[#   4]+0.016*[#   5]+0.016*[#   9]+0.002*[#   7]+0.002*[#   8]+
          +0.002*[#  11]+0.002*[#  12]+
    |psi|^2 = 0.996
==== e(   4) =     6.09042 eV ==== 
     psi = 0.238*[#   7]+0.238*[#   8]+0.238*[#  11]+0.238*[#  12]+0.024*[#   3]+
          +0.024*[#   4]+
    |psi|^2 = 0.999
==== e(   5) =    11.25624 eV ==== 
     psi = 0.161*[#   3]+0.161*[#   4]+0.079*[#   5]+0.079*[#   9]+0.065*[#   1]+
          +0.055*[#   7]+0.055*[#   8]+0.055*[#  11]+0.055*[#  12]+0.043*[#   6]+
          +0.043*[#  10]+0.001*[#   2]+
    |psi|^2 = 0.855
==== e(   6) =    12.67877 eV ==== 
     psi = 0.222*[#   6]+0.222*[#  10]+0.141*[#   5]+0.141*[#   9]+0.070*[#   2]+
          +0.043*[#   3]+0.043*[#   4]+0.007*[#   7]+0.007*[#   8]+0.007*[#  11]+
          +0.007*[#  12]+0.005*[#   1]+
    |psi|^2 = 0.916
==== e(   7) =    13.15054 eV ==== 
     psi = 0.178*[#   1]+0.172*[#   5]+0.172*[#   9]+0.165*[#   6]+0.165*[#  10]+
          +0.021*[#   7]+0.021*[#   8]+0.021*[#  11]+0.021*[#  12]+0.003*[#   2]+
    |psi|^2 = 0.940
==== e(   8) =    17.03970 eV ==== 
     psi = 0.391*[#   1]+0.070*[#   3]+0.070*[#   4]+0.041*[#   6]+0.041*[#  10]+
          +0.039*[#   7]+0.039*[#   8]+0.039*[#  11]+0.039*[#  12]+0.021*[#   5]+
          +0.021*[#   9]+0.011*[#   2]+
    |psi|^2 = 0.821

 k =   0.0000000000  0.3608439182  0.1455384075
==== e(   1) =    -2.89088 eV ==== 
     psi = 0.183*[#   5]+0.183*[#   9]+0.127*[#   3]+0.127*[#   4]+0.065*[#   7]+
          +0.065*[#   8]+0.065*[#  11]+0.065*[#  12]+0.062*[#   1]+0.051*[#   2]+
          +0.004*[#   6]+0.004*[#  10]+
    |psi|^2 = 0.999
==== e(   2) =     3.15204 eV ==== 
     psi = 0.177*[#   7]+0.177*[#   8]+0.177*[#  11]+0.177*[#  12]+0.112*[#   5]+
          +0.112*[#   9]+0.022*[#   3]+0.022*[#   4]+0.011*[#   1]+0.003*[#   2]+
          +0.003*[#   6]+0.003*[#  10]+
    |psi|^2 = 0.997
==== e(   3) =     4.90762 eV ==== 
     psi = 0.374*[#   6]+0.374*[#  10]+0.047*[#   1]+0.045*[#   2]+0.035*[#   5]+
          +0.035*[#   9]+0.035*[#   3]+0.035*[#   4]+0.005*[#   7]+0.005*[#   8]+
          +0.005*[#  11]+0.005*[#  12]+
    |psi|^2 = 0.997
==== e(   4) =     6.14313 eV ==== 
     psi = 0.240*[#   7]+0.240*[#   8]+0.240*[#  11]+0.240*[#  12]+0.020*[#   3]+
          +0.020*[#   4]+
    |psi|^2 = 0.999
==== e(   5) =    11.56580 eV ==== 
     psi = 0.273*[#   6]+0.273*[#  10]+0.098*[#   1]+0.044*[#   5]+0.044*[#   9]+
          +0.024*[#   7]+0.024*[#   8]+0.024*[#  11]+0.024*[#  12]+0.022*[#   2]+
          +0.004*[#   3]+0.004*[#   4]+
    |psi|^2 = 0.856
==== e(   6) =    12.61003 eV ==== 
     psi = 0.151*[#   3]+0.151*[#   4]+0.120*[#   6]+0.120*[#  10]+0.067*[#   5]+
          +0.067*[#   9]+0.053*[#   7]+0.053*[#   8]+0.053*[#  11]+0.053*[#  12]+
          +0.016*[#   1]+0.010*[#   2]+
    |psi|^2 = 0.914
==== e(   7) =    13.56481 eV ==== 
     psi = 0.248*[#   5]+0.248*[#   9]+0.206*[#   1]+0.050*[#   2]+0.048*[#   3]+
          +0.048*[#   4]+0.045*[#   6]+0.045*[#  10]+0.005*[#   7]+0.005*[#   8]+
          +0.005*[#  11]+0.005*[#  12]+
    |psi|^2 = 0.959
==== e(   8) =    17.96680 eV ==== 
     psi = 0.329*[#   1]+0.090*[#   6]+0.090*[#  10]+0.061*[#   3]+0.061*[#   4]+
          +0.041*[#   5]+0.041*[#   9]+0.034*[#   7]+0.034*[#   8]+0.034*[#  11]+
          +0.034*[#  12]+0.007*[#   2]+
    |psi|^2 = 0.857

 k =   0.0000000000  0.3608439182  0.2183076113
==== e(   1) =    -2.64274 eV ==== 
     psi = 0.197*[#   5]+0.197*[#   9]+0.103*[#   2]+0.093*[#   3]+0.093*[#   4]+
          +0.064*[#   7]+0.064*[#   8]+0.064*[#  11]+0.064*[#  12]+0.046*[#   1]+
          +0.007*[#   6]+0.007*[#  10]+
    |psi|^2 = 0.999
==== e(   2) =     3.30731 eV ==== 
     psi = 0.175*[#   7]+0.175*[#   8]+0.175*[#  11]+0.175*[#  12]+0.104*[#   5]+
          +0.104*[#   9]+0.026*[#   3]+0.026*[#   4]+0.014*[#   6]+0.014*[#  10]+
          +0.008*[#   2]+0.002*[#   1]+
    |psi|^2 = 0.998
==== e(   3) =     3.89612 eV ==== 
     psi = 0.340*[#   6]+0.340*[#  10]+0.074*[#   1]+0.049*[#   5]+0.049*[#   9]+
          +0.042*[#   3]+0.042*[#   4]+0.024*[#   2]+0.009*[#   7]+0.009*[#   8]+
          +0.009*[#  11]+0.009*[#  12]+
    |psi|^2 = 0.997
==== e(   4) =     6.21739 eV ==== 
     psi = 0.243*[#   7]+0.243*[#   8]+0.243*[#  11]+0.243*[#  12]+0.014*[#   3]+
          +0.014*[#   4]+
    |psi|^2 = 0.998
==== e(   5) =    10.82648 eV ==== 
     psi = 0.334*[#   6]+0.334*[#  10]+0.149*[#   1]+0.016*[#   2]+0.014*[#   5]+
          +0.014*[#   9]+0.012*[#   3]+0.012*[#   4]+0.008*[#   7]+0.008*[#   8]+
          +0.008*[#  11]+0.008*[#  12]+
    |psi|^2 = 0.917
==== e(   6) =    13.05147 eV ==== 
     psi = 0.200*[#   5]+0.200*[#   9]+0.067*[#   3]+0.067*[#   4]+0.065*[#   7]+
          +0.065*[#   8]+0.065*[#  11]+0.065*[#  12]+0.039*[#   1]+0.022*[#   2]+
          +0.016*[#   6]+0.016*[#  10]+
    |psi|^2 = 0.889
==== e(   7) =    14.89529 eV ==== 
     psi = 0.179*[#   1]+0.129*[#   3]+0.129*[#   4]+0.116*[#   5]+0.116*[#   9]+
          +0.101*[#   6]+0.101*[#  10]+0.052*[#   2]+0.003*[#   7]+0.003*[#   8]+
          +0.003*[#  11]+0.003*[#  12]+
    |psi|^2 = 0.933
==== e(   8) =    18.52372 eV ==== 
     psi = 0.429*[#   1]+0.127*[#   6]+0.127*[#  10]+0.063*[#   3]+0.063*[#   4]+
          +0.040*[#   5]+0.040*[#   9]+0.017*[#   2]+0.014*[#   7]+0.014*[#   8]+
          +0.014*[#  11]+0.014*[#  12]+
    |psi|^2 = 0.961

 k =   0.0000000000  0.3608439182  0.2910768150
==== e(   1) =    -2.34715 eV ==== 
     psi = 0.217*[#   5]+0.217*[#   9]+0.159*[#   2]+0.065*[#   7]+0.065*[#   8]+
          +0.065*[#  11]+0.065*[#  12]+0.054*[#   3]+0.054*[#   4]+0.027*[#   1]+
          +0.006*[#   6]+0.006*[#  10]+
    |psi|^2 = 0.999
==== e(   2) =     2.96552 eV ==== 
     psi = 0.333*[#   6]+0.333*[#  10]+0.079*[#   1]+0.078*[#   3]+0.078*[#   4]+
          +0.020*[#   5]+0.020*[#   9]+0.019*[#   2]+0.010*[#   7]+0.010*[#   8]+
          +0.010*[#  11]+0.010*[#  12]+
    |psi|^2 = 0.999
==== e(   3) =     3.52819 eV ==== 
     psi = 0.175*[#   7]+0.175*[#   8]+0.175*[#  11]+0.175*[#  12]+0.129*[#   5]+
          +0.129*[#   9]+0.013*[#   1]+0.010*[#   6]+0.010*[#  10]+0.002*[#   3]+
          +0.002*[#   4]+0.002*[#   2]+
    |psi|^2 = 0.997
==== e(   4) =     6.29448 eV ==== 
     psi = 0.246*[#   7]+0.246*[#   8]+0.246*[#  11]+0.246*[#  12]+0.007*[#   3]+
          +0.007*[#   4]+
    |psi|^2 = 0.998
==== e(   5) =    10.11200 eV ==== 
     psi = 0.338*[#   6]+0.338*[#  10]+0.171*[#   1]+0.028*[#   3]+0.028*[#   4]+
          +0.006*[#   5]+0.006*[#   9]+0.006*[#   2]+0.004*[#   7]+0.004*[#   8]+
          +0.004*[#  11]+0.004*[#  12]+
    |psi|^2 = 0.938
==== e(   6) =    13.38422 eV ==== 
     psi = 0.258*[#   5]+0.258*[#   9]+0.063*[#   2]+0.059*[#   7]+0.059*[#   8]+
          +0.059*[#  11]+0.059*[#  12]+0.031*[#   3]+0.031*[#   4]+0.029*[#   1]+
          +0.002*[#   6]+0.002*[#  10]+
    |psi|^2 = 0.907
==== e(   7) =    16.53762 eV ==== 
     psi = 0.286*[#   1]+0.130*[#   6]+0.130*[#  10]+0.122*[#   3]+0.122*[#   4]+
          +0.038*[#   5]+0.038*[#   9]+0.020*[#   2]+0.005*[#   7]+0.005*[#   8]+
          +0.005*[#  11]+0.005*[#  12]+
    |psi|^2 = 0.908
==== e(   8) =    17.80797 eV ==== 
     psi = 0.424*[#   3]+0.424*[#   4]+0.004*[#   7]+0.004*[#   8]+0.004*[#  11]+
          +0.004*[#  12]+
    |psi|^2 = 0.864

 k =   0.0000000000  0.3608439182  0.3638460188
==== e(   1) =    -2.08361 eV ==== 
     psi = 0.240*[#   5]+0.240*[#   9]+0.205*[#   2]+0.067*[#   7]+0.067*[#   8]+
          +0.067*[#  11]+0.067*[#  12]+0.017*[#   3]+0.017*[#   4]+0.009*[#   1]+
          +0.003*[#   6]+0.003*[#  10]+
    |psi|^2 = 0.999
==== e(   2) =     2.33997 eV ==== 
     psi = 0.338*[#   6]+0.338*[#  10]+0.105*[#   1]+0.094*[#   3]+0.094*[#   4]+
          +0.008*[#   5]+0.008*[#   9]+0.006*[#   2]+0.002*[#   7]+0.002*[#   8]+
          +0.002*[#  11]+0.002*[#  12]+
    |psi|^2 = 0.999
==== e(   3) =     3.66916 eV ==== 
     psi = 0.182*[#   7]+0.182*[#   8]+0.182*[#  11]+0.182*[#  12]+0.128*[#   5]+
          +0.128*[#   9]+0.004*[#   2]+0.002*[#   1]+0.002*[#   3]+0.002*[#   4]+
          +0.001*[#   6]+0.001*[#  10]+
    |psi|^2 = 0.997
==== e(   4) =     6.35286 eV ==== 
     psi = 0.248*[#   7]+0.248*[#   8]+0.248*[#  11]+0.248*[#  12]+0.002*[#   3]+
          +0.002*[#   4]+
    |psi|^2 = 0.997
==== e(   5) =     9.62347 eV ==== 
     psi = 0.338*[#   6]+0.338*[#  10]+0.180*[#   1]+0.041*[#   3]+0.041*[#   4]+
          +0.002*[#   5]+0.002*[#   9]+0.001*[#   7]+0.001*[#   8]+0.001*[#  11]+
          +0.001*[#  12]+0.001*[#   2]+
    |psi|^2 = 0.948
==== e(   6) =    13.64708 eV ==== 
     psi = 0.293*[#   5]+0.293*[#   9]+0.088*[#   2]+0.055*[#   7]+0.055*[#   8]+
          +0.055*[#  11]+0.055*[#  12]+0.010*[#   1]+0.009*[#   3]+0.009*[#   4]+
    |psi|^2 = 0.923
==== e(   7) =    17.33068 eV ==== 
     psi = 0.661*[#   1]+0.131*[#   6]+0.131*[#  10]+0.002*[#   7]+0.002*[#   8]+
          +0.002*[#  11]+0.002*[#  12]+
    |psi|^2 = 0.933
==== e(   8) =    17.35504 eV ==== 
     psi = 0.444*[#   3]+0.444*[#   4]+
    |psi|^2 = 0.893

 k =   0.0000000000  0.3608439182 -0.4366152225
==== e(   1) =    -1.97210 eV ==== 
     psi = 0.251*[#   5]+0.251*[#   9]+0.225*[#   2]+0.068*[#   7]+0.068*[#   8]+
          +0.068*[#  11]+0.068*[#  12]+
    |psi|^2 = 0.999
==== e(   2) =     2.10394 eV ==== 
     psi = 0.339*[#   6]+0.339*[#  10]+0.114*[#   1]+0.104*[#   3]+0.104*[#   4]+
    |psi|^2 = 0.999
==== e(   3) =     3.72733 eV ==== 
     psi = 0.184*[#   7]+0.184*[#   8]+0.184*[#  11]+0.184*[#  12]+0.129*[#   5]+
          +0.129*[#   9]+0.005*[#   2]+
    |psi|^2 = 0.997
==== e(   4) =     6.37466 eV ==== 
     psi = 0.249*[#   7]+0.249*[#   8]+0.249*[#  11]+0.249*[#  12]+
    |psi|^2 = 0.997
==== e(   5) =     9.44921 eV ==== 
     psi = 0.339*[#   6]+0.339*[#  10]+0.182*[#   1]+0.046*[#   3]+0.046*[#   4]+
    |psi|^2 = 0.951
==== e(   6) =    13.75480 eV ==== 
     psi = 0.308*[#   5]+0.308*[#   9]+0.097*[#   2]+0.054*[#   7]+0.054*[#   8]+
          +0.054*[#  11]+0.054*[#  12]+
    |psi|^2 = 0.929
==== e(   7) =    17.20008 eV ==== 
     psi = 0.452*[#   3]+0.452*[#   4]+
    |psi|^2 = 0.903
==== e(   8) =    17.26009 eV ==== 
     psi = 0.664*[#   1]+0.120*[#   6]+0.120*[#  10]+0.007*[#   3]+0.007*[#   4]+
    |psi|^2 = 0.917

 k =   0.0000000000  0.4330127019  0.0000000000
==== e(   1) =    -2.38263 eV ==== 
     psi = 0.169*[#   5]+0.169*[#   9]+0.145*[#   3]+0.145*[#   4]+0.080*[#   7]+
          +0.080*[#   8]+0.080*[#  11]+0.080*[#  12]+0.051*[#   1]+
    |psi|^2 = 0.999
==== e(   2) =     1.75933 eV ==== 
     psi = 0.167*[#   7]+0.167*[#   8]+0.167*[#  11]+0.167*[#  12]+0.125*[#   5]+
          +0.125*[#   9]+0.027*[#   3]+0.027*[#   4]+0.026*[#   1]+
    |psi|^2 = 0.998
==== e(   3) =     5.76212 eV ==== 
     psi = 0.237*[#   7]+0.237*[#   8]+0.237*[#  11]+0.237*[#  12]+0.025*[#   3]+
          +0.025*[#   4]+
    |psi|^2 = 0.999
==== e(   4) =     6.95739 eV ==== 
     psi = 0.461*[#   6]+0.461*[#  10]+0.071*[#   2]+
    |psi|^2 = 0.993
==== e(   5) =    11.23920 eV ==== 
     psi = 0.158*[#   3]+0.158*[#   4]+0.110*[#   5]+0.110*[#   9]+0.061*[#   7]+
          +0.061*[#   8]+0.061*[#  11]+0.061*[#  12]+0.043*[#   1]+
    |psi|^2 = 0.823
==== e(   6) =    12.13134 eV ==== 
     psi = 0.415*[#   6]+0.415*[#  10]+0.131*[#   2]+
    |psi|^2 = 0.962
==== e(   7) =    12.67779 eV ==== 
     psi = 0.302*[#   5]+0.302*[#   9]+0.091*[#   1]+0.082*[#   3]+0.082*[#   4]+
          +0.011*[#   7]+0.011*[#   8]+0.011*[#  11]+0.011*[#  12]+
    |psi|^2 = 0.902
==== e(   8) =    15.86241 eV ==== 
     psi = 0.624*[#   1]+0.072*[#   3]+0.072*[#   4]+0.027*[#   7]+0.027*[#   8]+
          +0.027*[#  11]+0.027*[#  12]+0.002*[#   5]+0.002*[#   9]+
    |psi|^2 = 0.877

 k =   0.0000000000  0.4330127019  0.0727692038
==== e(   1) =    -2.32943 eV ==== 
     psi = 0.171*[#   5]+0.171*[#   9]+0.138*[#   3]+0.138*[#   4]+0.080*[#   7]+
          +0.080*[#   8]+0.080*[#  11]+0.080*[#  12]+0.049*[#   1]+0.008*[#   2]+
    |psi|^2 = 0.999
==== e(   2) =     1.80194 eV ==== 
     psi = 0.167*[#   7]+0.167*[#   8]+0.167*[#  11]+0.167*[#  12]+0.125*[#   5]+
          +0.125*[#   9]+0.026*[#   3]+0.026*[#   4]+0.024*[#   1]+0.001*[#   2]+
    |psi|^2 = 0.998
==== e(   3) =     5.78057 eV ==== 
     psi = 0.238*[#   7]+0.238*[#   8]+0.238*[#  11]+0.238*[#  12]+0.024*[#   3]+
          +0.024*[#   4]+
    |psi|^2 = 0.999
==== e(   4) =     6.52061 eV ==== 
     psi = 0.424*[#   6]+0.424*[#  10]+0.057*[#   2]+0.019*[#   3]+0.019*[#   4]+
          +0.013*[#   1]+0.013*[#   5]+0.013*[#   9]+0.003*[#   7]+0.003*[#   8]+
          +0.003*[#  11]+0.003*[#  12]+
    |psi|^2 = 0.993
==== e(   5) =    11.26201 eV ==== 
     psi = 0.208*[#   6]+0.208*[#  10]+0.067*[#   1]+0.067*[#   5]+0.067*[#   9]+
          +0.042*[#   2]+0.032*[#   7]+0.032*[#   8]+0.032*[#  11]+0.032*[#  12]+
          +0.028*[#   3]+0.028*[#   4]+
    |psi|^2 = 0.844
==== e(   6) =    12.02104 eV ==== 
     psi = 0.188*[#   6]+0.188*[#  10]+0.110*[#   3]+0.110*[#   4]+0.064*[#   5]+
          +0.064*[#   9]+0.062*[#   2]+0.032*[#   7]+0.032*[#   8]+0.032*[#  11]+
          +0.032*[#  12]+0.006*[#   1]+
    |psi|^2 = 0.922
==== e(   7) =    12.97841 eV ==== 
     psi = 0.268*[#   5]+0.268*[#   9]+0.143*[#   1]+0.091*[#   3]+0.091*[#   4]+
          +0.023*[#   6]+0.023*[#  10]+0.008*[#   2]+0.005*[#   7]+0.005*[#   8]+
          +0.005*[#  11]+0.005*[#  12]+
    |psi|^2 = 0.936
==== e(   8) =    16.35376 eV ==== 
     psi = 0.532*[#   1]+0.067*[#   3]+0.067*[#   4]+0.040*[#   6]+0.040*[#  10]+
          +0.025*[#   7]+0.025*[#   8]+0.025*[#  11]+0.025*[#  12]+0.018*[#   2]+
    |psi|^2 = 0.862

 k =   0.0000000000  0.4330127019  0.1455384075
==== e(   1) =    -2.17501 eV ==== 
     psi = 0.180*[#   5]+0.180*[#   9]+0.119*[#   3]+0.119*[#   4]+0.080*[#   7]+
          +0.080*[#   8]+0.080*[#  11]+0.080*[#  12]+0.043*[#   1]+0.031*[#   2]+
          +0.003*[#   6]+0.003*[#  10]+
    |psi|^2 = 0.999
==== e(   2) =     1.92397 eV ==== 
     psi = 0.167*[#   7]+0.167*[#   8]+0.167*[#  11]+0.167*[#  12]+0.127*[#   5]+
          +0.127*[#   9]+0.024*[#   3]+0.024*[#   4]+0.019*[#   1]+0.005*[#   2]+
          +0.002*[#   6]+0.002*[#  10]+
    |psi|^2 = 0.998
==== e(   3) =     5.59188 eV ==== 
     psi = 0.378*[#   6]+0.378*[#  10]+0.043*[#   3]+0.043*[#   4]+0.036*[#   2]+
          +0.035*[#   1]+0.030*[#   5]+0.030*[#   9]+0.005*[#   7]+0.005*[#   8]+
          +0.005*[#  11]+0.005*[#  12]+
    |psi|^2 = 0.995
==== e(   4) =     5.83184 eV ==== 
     psi = 0.240*[#   7]+0.240*[#   8]+0.240*[#  11]+0.240*[#  12]+0.020*[#   3]+
          +0.020*[#   4]+
    |psi|^2 = 0.999
==== e(   5) =    10.48988 eV ==== 
     psi = 0.327*[#   6]+0.327*[#  10]+0.138*[#   1]+0.053*[#   2]+0.017*[#   5]+
          +0.017*[#   9]+0.010*[#   7]+0.010*[#   8]+0.010*[#  11]+0.010*[#  12]+
          +0.002*[#   3]+0.002*[#   4]+
    |psi|^2 = 0.923
==== e(   6) =    12.46482 eV ==== 
     psi = 0.208*[#   5]+0.208*[#   9]+0.061*[#   3]+0.061*[#   4]+0.050*[#   7]+
          +0.050*[#   8]+0.050*[#  11]+0.050*[#  12]+0.038*[#   1]+0.035*[#   6]+
          +0.035*[#  10]+
    |psi|^2 = 0.847
==== e(   7) =    13.93045 eV ==== 
     psi = 0.159*[#   3]+0.159*[#   4]+0.147*[#   5]+0.147*[#   9]+0.141*[#   1]+
          +0.071*[#   6]+0.071*[#  10]+0.042*[#   2]+0.005*[#   7]+0.005*[#   8]+
          +0.005*[#  11]+0.005*[#  12]+
    |psi|^2 = 0.956
==== e(   8) =    17.38273 eV ==== 
     psi = 0.448*[#   1]+0.097*[#   6]+0.097*[#  10]+0.060*[#   3]+0.060*[#   4]+
          +0.021*[#   7]+0.021*[#   8]+0.021*[#  11]+0.021*[#  12]+0.011*[#   2]+
          +0.006*[#   5]+0.006*[#   9]+
    |psi|^2 = 0.871

 k =   0.0000000000  0.4330127019  0.2183076113
==== e(   1) =    -1.93750 eV ==== 
     psi = 0.196*[#   5]+0.196*[#   9]+0.089*[#   3]+0.089*[#   4]+0.081*[#   7]+
          +0.081*[#   8]+0.081*[#  11]+0.081*[#  12]+0.062*[#   2]+0.033*[#   1]+
          +0.005*[#   6]+0.005*[#  10]+
    |psi|^2 = 0.999
==== e(   2) =     2.10625 eV ==== 
     psi = 0.167*[#   7]+0.167*[#   8]+0.167*[#  11]+0.167*[#  12]+0.131*[#   5]+
          +0.131*[#   9]+0.019*[#   3]+0.019*[#   4]+0.012*[#   1]+0.008*[#   2]+
          +0.004*[#   6]+0.004*[#  10]+
    |psi|^2 = 0.998
==== e(   3) =     4.59619 eV ==== 
     psi = 0.352*[#   6]+0.352*[#  10]+0.061*[#   3]+0.061*[#   4]+0.056*[#   1]+
          +0.035*[#   5]+0.035*[#   9]+0.020*[#   2]+0.006*[#   7]+0.006*[#   8]+
          +0.006*[#  11]+0.006*[#  12]+
    |psi|^2 = 0.997
==== e(   4) =     5.90403 eV ==== 
     psi = 0.243*[#   7]+0.243*[#   8]+0.243*[#  11]+0.243*[#  12]+0.014*[#   3]+
          +0.014*[#   4]+
    |psi|^2 = 0.998
==== e(   5) =     9.57995 eV ==== 
     psi = 0.333*[#   6]+0.333*[#  10]+0.189*[#   1]+0.027*[#   2]+0.013*[#   3]+
          +0.013*[#   4]+0.007*[#   5]+0.007*[#   9]+0.007*[#   7]+0.007*[#   8]+
          +0.007*[#  11]+0.007*[#  12]+
    |psi|^2 = 0.949
==== e(   6) =    12.83735 eV ==== 
     psi = 0.271*[#   5]+0.271*[#   9]+0.053*[#   1]+0.043*[#   7]+0.043*[#   8]+
          +0.043*[#  11]+0.043*[#  12]+0.037*[#   2]+0.029*[#   3]+0.029*[#   4]+
          +0.005*[#   6]+0.005*[#  10]+
    |psi|^2 = 0.873
==== e(   7) =    15.44923 eV ==== 
     psi = 0.176*[#   3]+0.176*[#   4]+0.148*[#   1]+0.111*[#   6]+0.111*[#  10]+
          +0.065*[#   5]+0.065*[#   9]+0.033*[#   2]+0.009*[#   7]+0.009*[#   8]+
          +0.009*[#  11]+0.009*[#  12]+
    |psi|^2 = 0.922
==== e(   8) =    18.04821 eV ==== 
     psi = 0.469*[#   1]+0.138*[#   6]+0.138*[#  10]+0.057*[#   3]+0.057*[#   4]+
          +0.024*[#   2]+0.021*[#   5]+0.021*[#   9]+0.010*[#   7]+0.010*[#   8]+
          +0.010*[#  11]+0.010*[#  12]+
    |psi|^2 = 0.963

 k =   0.0000000000  0.4330127019  0.2910768150
==== e(   1) =    -1.65662 eV ==== 
     psi = 0.219*[#   5]+0.219*[#   9]+0.094*[#   2]+0.083*[#   7]+0.083*[#   8]+
          +0.083*[#  11]+0.083*[#  12]+0.052*[#   3]+0.052*[#   4]+0.020*[#   1]+
          +0.005*[#   6]+0.005*[#  10]+
    |psi|^2 = 0.999
==== e(   2) =     2.31191 eV ==== 
     psi = 0.169*[#   7]+0.169*[#   8]+0.169*[#  11]+0.169*[#  12]+0.136*[#   5]+
          +0.136*[#   9]+0.014*[#   3]+0.014*[#   4]+0.011*[#   2]+0.005*[#   1]+
          +0.004*[#   6]+0.004*[#  10]+
    |psi|^2 = 0.998
==== e(   3) =     3.72560 eV ==== 
     psi = 0.340*[#   6]+0.340*[#  10]+0.080*[#   3]+0.080*[#   4]+0.073*[#   1]+
          +0.029*[#   5]+0.029*[#   9]+0.009*[#   2]+0.005*[#   7]+0.005*[#   8]+
          +0.005*[#  11]+0.005*[#  12]+
    |psi|^2 = 0.998
==== e(   4) =     5.97893 eV ==== 
     psi = 0.246*[#   7]+0.246*[#   8]+0.246*[#  11]+0.246*[#  12]+0.007*[#   3]+
          +0.007*[#   4]+
    |psi|^2 = 0.998
==== e(   5) =     8.80512 eV ==== 
     psi = 0.333*[#   6]+0.333*[#  10]+0.215*[#   1]+0.023*[#   3]+0.023*[#   4]+
          +0.010*[#   2]+0.004*[#   7]+0.004*[#   8]+0.004*[#  11]+0.004*[#  12]+
          +0.004*[#   5]+0.004*[#   9]+
    |psi|^2 = 0.961
==== e(   6) =    13.17954 eV ==== 
     psi = 0.298*[#   5]+0.298*[#   9]+0.089*[#   2]+0.039*[#   1]+0.038*[#   7]+
          +0.038*[#   8]+0.038*[#  11]+0.038*[#  12]+0.015*[#   3]+0.015*[#   4]+
    |psi|^2 = 0.907
==== e(   7) =    16.94092 eV ==== 
     psi = 0.403*[#   1]+0.145*[#   6]+0.145*[#  10]+0.090*[#   3]+0.090*[#   4]+
          +0.010*[#   5]+0.010*[#   9]+0.007*[#   7]+0.007*[#   8]+0.007*[#  11]+
          +0.007*[#  12]+0.001*[#   2]+
    |psi|^2 = 0.923
==== e(   8) =    17.97310 eV ==== 
     psi = 0.205*[#   1]+0.150*[#   3]+0.150*[#   4]+0.101*[#   6]+0.101*[#  10]+
          +0.073*[#   2]+0.036*[#   5]+0.036*[#   9]+0.004*[#   7]+0.004*[#   8]+
          +0.004*[#  11]+0.004*[#  12]+
    |psi|^2 = 0.868

 k =   0.0000000000  0.4330127019  0.3638460188
==== e(   1) =    -1.40885 eV ==== 
     psi = 0.244*[#   5]+0.244*[#   9]+0.119*[#   2]+0.087*[#   7]+0.087*[#   8]+
          +0.087*[#  11]+0.087*[#  12]+0.016*[#   3]+0.016*[#   4]+0.006*[#   1]+
          +0.002*[#   6]+0.002*[#  10]+
    |psi|^2 = 0.999
==== e(   2) =     2.48412 eV ==== 
     psi = 0.170*[#   7]+0.170*[#   8]+0.170*[#  11]+0.170*[#  12]+0.142*[#   5]+
          +0.142*[#   9]+0.011*[#   2]+0.007*[#   3]+0.007*[#   4]+0.004*[#   6]+
          +0.004*[#  10]+
    |psi|^2 = 0.998
==== e(   3) =     3.10834 eV ==== 
     psi = 0.335*[#   6]+0.335*[#  10]+0.101*[#   3]+0.101*[#   4]+0.086*[#   1]+
[...]
          +0.059*[#   8]+0.059*[#  11]+0.059*[#  12]+0.043*[#   5]+0.043*[#   9]+
          +0.007*[#   2]+0.005*[#   1]+
    |psi|^2 = 0.827

 k =   0.2500000000  0.5773502692  0.2183076113
==== e(   1) =     0.23551 eV ==== 
     psi = 0.229*[#   5]+0.229*[#   9]+0.101*[#   7]+0.101*[#   8]+0.101*[#  11]+
          +0.101*[#  12]+0.064*[#   3]+0.064*[#   4]+0.005*[#   6]+0.005*[#  10]+
    |psi|^2 = 0.999
==== e(   2) =     0.84014 eV ==== 
     psi = 0.157*[#   7]+0.157*[#   8]+0.157*[#  11]+0.157*[#  12]+0.140*[#   5]+
          +0.140*[#   9]+0.023*[#   3]+0.023*[#   4]+0.019*[#   1]+0.018*[#   2]+
          +0.004*[#   6]+0.004*[#  10]+
    |psi|^2 = 0.999
==== e(   3) =     2.79600 eV ==== 
     psi = 0.207*[#   7]+0.207*[#   8]+0.207*[#  11]+0.207*[#  12]+0.051*[#   5]+
          +0.051*[#   9]+0.022*[#   2]+0.019*[#   1]+0.011*[#   3]+0.011*[#   4]+
          +0.001*[#   6]+0.001*[#  10]+
    |psi|^2 = 0.998
==== e(   4) =     6.57199 eV ==== 
     psi = 0.364*[#   6]+0.364*[#  10]+0.098*[#   3]+0.098*[#   4]+0.021*[#   5]+
          +0.021*[#   9]+0.007*[#   7]+0.007*[#   8]+0.007*[#  11]+0.007*[#  12]+
    |psi|^2 = 0.992
==== e(   5) =     7.81241 eV ==== 
     psi = 0.349*[#   6]+0.349*[#  10]+0.099*[#   3]+0.099*[#   4]+0.036*[#   1]+
          +0.010*[#   2]+0.008*[#   7]+0.008*[#   8]+0.008*[#  11]+0.008*[#  12]+
          +0.007*[#   5]+0.007*[#   9]+
    |psi|^2 = 0.987
==== e(   6) =    13.22519 eV ==== 
     psi = 0.780*[#   1]+0.118*[#   2]+0.016*[#   3]+0.016*[#   4]+0.009*[#   6]+
          +0.009*[#  10]+0.004*[#   7]+0.004*[#   8]+0.004*[#  11]+0.004*[#  12]+
    |psi|^2 = 0.964
==== e(   7) =    16.55854 eV ==== 
     psi = 0.120*[#   5]+0.120*[#   9]+0.077*[#   2]+0.077*[#   3]+0.077*[#   4]+
          +0.068*[#   7]+0.068*[#   8]+0.068*[#  11]+0.068*[#  12]+0.041*[#   6]+
          +0.041*[#  10]+
    |psi|^2 = 0.827
==== e(   8) =    16.84110 eV ==== 
     psi = 0.280*[#   3]+0.280*[#   4]+0.098*[#   6]+0.098*[#  10]+0.033*[#   7]+
          +0.033*[#   8]+0.033*[#  11]+0.033*[#  12]+
    |psi|^2 = 0.888

 k =   0.2500000000  0.5773502692  0.2910768150
==== e(   1) =     0.47862 eV ==== 
     psi = 0.248*[#   5]+0.248*[#   9]+0.105*[#   7]+0.105*[#   8]+0.105*[#  11]+
          +0.105*[#  12]+0.036*[#   3]+0.036*[#   4]+0.005*[#   6]+0.005*[#  10]+
    |psi|^2 = 0.998
==== e(   2) =     1.06574 eV ==== 
     psi = 0.160*[#   7]+0.160*[#   8]+0.160*[#  11]+0.160*[#  12]+0.145*[#   5]+
          +0.145*[#   9]+0.026*[#   2]+0.012*[#   3]+0.012*[#   4]+0.011*[#   1]+
          +0.003*[#   6]+0.003*[#  10]+
    |psi|^2 = 0.999
==== e(   3) =     2.96296 eV ==== 
     psi = 0.208*[#   7]+0.208*[#   8]+0.208*[#  11]+0.208*[#  12]+0.054*[#   5]+
          +0.054*[#   9]+0.031*[#   2]+0.009*[#   1]+0.006*[#   3]+0.006*[#   4]+
          +0.001*[#   6]+0.001*[#  10]+
    |psi|^2 = 0.998
==== e(   4) =     5.76051 eV ==== 
     psi = 0.354*[#   6]+0.354*[#  10]+0.119*[#   3]+0.119*[#   4]+0.016*[#   5]+
          +0.016*[#   9]+0.005*[#   7]+0.005*[#   8]+0.005*[#  11]+0.005*[#  12]+
    |psi|^2 = 0.996
==== e(   5) =     7.00011 eV ==== 
     psi = 0.342*[#   6]+0.342*[#  10]+0.111*[#   3]+0.111*[#   4]+0.048*[#   1]+
          +0.006*[#   5]+0.006*[#   7]+0.006*[#   8]+0.006*[#   9]+0.006*[#  11]+
          +0.006*[#  12]+0.004*[#   2]+
    |psi|^2 = 0.992
==== e(   6) =    12.39330 eV ==== 
     psi = 0.850*[#   1]+0.046*[#   2]+0.023*[#   3]+0.023*[#   4]+0.009*[#   6]+
          +0.009*[#  10]+0.002*[#   7]+0.002*[#   8]+0.002*[#  11]+0.002*[#  12]+
    |psi|^2 = 0.969
==== e(   7) =    17.12416 eV ==== 
     psi = 0.188*[#   2]+0.177*[#   5]+0.177*[#   9]+0.070*[#   7]+0.070*[#   8]+
          +0.070*[#  11]+0.070*[#  12]+0.016*[#   3]+0.016*[#   4]+0.011*[#   6]+
          +0.011*[#  10]+0.002*[#   1]+
    |psi|^2 = 0.878
==== e(   8) =    18.45499 eV ==== 
     psi = 0.244*[#   3]+0.244*[#   4]+0.092*[#   6]+0.092*[#  10]+0.041*[#   7]+
          +0.041*[#   8]+0.041*[#  11]+0.041*[#  12]+0.012*[#   5]+0.012*[#   9]+
    |psi|^2 = 0.863

 k =   0.2500000000  0.5773502692  0.3638460188
==== e(   1) =     0.69011 eV ==== 
     psi = 0.268*[#   5]+0.268*[#   9]+0.109*[#   7]+0.109*[#   8]+0.109*[#  11]+
          +0.109*[#  12]+0.011*[#   3]+0.011*[#   4]+0.002*[#   6]+0.002*[#  10]+
    |psi|^2 = 0.998
==== e(   2) =     1.25501 eV ==== 
     psi = 0.164*[#   7]+0.164*[#   8]+0.164*[#  11]+0.164*[#  12]+0.149*[#   5]+
          +0.149*[#   9]+0.031*[#   2]+0.004*[#   1]+0.004*[#   3]+0.004*[#   4]+
          +0.001*[#   6]+0.001*[#  10]+
    |psi|^2 = 0.999
==== e(   3) =     3.09747 eV ==== 
     psi = 0.210*[#   7]+0.210*[#   8]+0.210*[#  11]+0.210*[#  12]+0.057*[#   5]+
          +0.057*[#   9]+0.036*[#   2]+0.002*[#   1]+0.002*[#   3]+0.002*[#   4]+
    |psi|^2 = 0.998
==== e(   4) =     5.19439 eV ==== 
     psi = 0.355*[#   6]+0.355*[#  10]+0.135*[#   3]+0.135*[#   4]+0.006*[#   5]+
          +0.006*[#   9]+0.002*[#   7]+0.002*[#   8]+0.002*[#  11]+0.002*[#  12]+
    |psi|^2 = 0.998
==== e(   5) =     6.44265 eV ==== 
     psi = 0.344*[#   6]+0.344*[#  10]+0.118*[#   3]+0.118*[#   4]+0.057*[#   1]+
          +0.002*[#   5]+0.002*[#   9]+0.002*[#   7]+0.002*[#   8]+0.002*[#  11]+
          +0.002*[#  12]+
    |psi|^2 = 0.995
==== e(   6) =    11.85654 eV ==== 
     psi = 0.888*[#   1]+0.027*[#   3]+0.027*[#   4]+0.010*[#   2]+0.009*[#   6]+
          +0.009*[#  10]+
    |psi|^2 = 0.973
==== e(   7) =    17.38900 eV ==== 
     psi = 0.247*[#   2]+0.191*[#   5]+0.191*[#   9]+0.069*[#   7]+0.069*[#   8]+
          +0.069*[#  11]+0.069*[#  12]+0.002*[#   3]+0.002*[#   4]+0.002*[#   6]+
          +0.002*[#  10]+
    |psi|^2 = 0.913
==== e(   8) =    19.86159 eV ==== 
     psi = 0.160*[#   3]+0.160*[#   4]+0.073*[#   5]+0.073*[#   9]+0.072*[#   7]+
          +0.072*[#   8]+0.072*[#  11]+0.072*[#  12]+0.061*[#   6]+0.061*[#  10]+
    |psi|^2 = 0.877

 k =   0.2500000000  0.5773502692 -0.4366152225
==== e(   1) =     0.77757 eV ==== 
     psi = 0.277*[#   5]+0.277*[#   9]+0.111*[#   7]+0.111*[#   8]+0.111*[#  11]+
          +0.111*[#  12]+
    |psi|^2 = 0.998
==== e(   2) =     1.33097 eV ==== 
     psi = 0.166*[#   7]+0.166*[#   8]+0.166*[#  11]+0.166*[#  12]+0.151*[#   5]+
          +0.151*[#   9]+0.032*[#   2]+
    |psi|^2 = 0.999
==== e(   3) =     3.15020 eV ==== 
     psi = 0.211*[#   7]+0.211*[#   8]+0.211*[#  11]+0.211*[#  12]+0.059*[#   5]+
          +0.059*[#   9]+0.037*[#   2]+
    |psi|^2 = 0.998
==== e(   4) =     4.98687 eV ==== 
     psi = 0.358*[#   6]+0.358*[#  10]+0.141*[#   3]+0.141*[#   4]+
    |psi|^2 = 0.999
==== e(   5) =     6.24066 eV ==== 
     psi = 0.346*[#   6]+0.346*[#  10]+0.122*[#   3]+0.122*[#   4]+0.060*[#   1]+
    |psi|^2 = 0.996
==== e(   6) =    11.67038 eV ==== 
     psi = 0.899*[#   1]+0.029*[#   3]+0.029*[#   4]+0.009*[#   6]+0.009*[#  10]+
    |psi|^2 = 0.975
==== e(   7) =    17.47068 eV ==== 
     psi = 0.264*[#   2]+0.194*[#   5]+0.194*[#   9]+0.068*[#   7]+0.068*[#   8]+
          +0.068*[#  11]+0.068*[#  12]+
    |psi|^2 = 0.924
==== e(   8) =    20.53880 eV ==== 
     psi = 0.192*[#   5]+0.192*[#   9]+0.131*[#   7]+0.131*[#   8]+0.131*[#  11]+
          +0.131*[#  12]+
    |psi|^2 = 0.909

 k =   0.3125000000  0.5412658774  0.0000000000
==== e(   1) =    -0.02438 eV ==== 
     psi = 0.186*[#   5]+0.186*[#   9]+0.110*[#   7]+0.110*[#   8]+0.110*[#  11]+
          +0.110*[#  12]+0.090*[#   3]+0.090*[#   4]+0.006*[#   1]+
    |psi|^2 = 0.999
==== e(   2) =     0.74009 eV ==== 
     psi = 0.188*[#   5]+0.188*[#   9]+0.121*[#   7]+0.121*[#   8]+0.121*[#  11]+
          +0.121*[#  12]+0.069*[#   3]+0.069*[#   4]+
    |psi|^2 = 0.998
==== e(   3) =     1.94770 eV ==== 
     psi = 0.228*[#   7]+0.228*[#   8]+0.228*[#  11]+0.228*[#  12]+0.056*[#   1]+
          +0.011*[#   5]+0.011*[#   9]+0.005*[#   3]+0.005*[#   4]+
    |psi|^2 = 0.999
==== e(   4) =     9.05911 eV ==== 
     psi = 0.483*[#   6]+0.483*[#  10]+0.006*[#   2]+
    |psi|^2 = 0.972
==== e(   5) =     9.89171 eV ==== 
     psi = 0.482*[#   6]+0.482*[#  10]+
    |psi|^2 = 0.963
==== e(   6) =    13.59345 eV ==== 
     psi = 0.372*[#   3]+0.372*[#   4]+0.042*[#   7]+0.042*[#   8]+0.042*[#  11]+
          +0.042*[#  12]+0.018*[#   5]+0.018*[#   9]+0.006*[#   1]+
    |psi|^2 = 0.953
==== e(   7) =    14.06390 eV ==== 
     psi = 0.371*[#   3]+0.371*[#   4]+0.048*[#   7]+0.048*[#   8]+0.048*[#  11]+
          +0.048*[#  12]+
    |psi|^2 = 0.938
==== e(   8) =    16.68876 eV ==== 
     psi = 0.891*[#   1]+0.019*[#   7]+0.019*[#   8]+0.019*[#  11]+0.019*[#  12]+
          +0.008*[#   5]+0.008*[#   9]+0.001*[#   3]+0.001*[#   4]+
    |psi|^2 = 0.986

 k =   0.3125000000  0.5412658774  0.0727692038
==== e(   1) =     0.02226 eV ==== 
     psi = 0.189*[#   5]+0.189*[#   9]+0.110*[#   7]+0.110*[#   8]+0.110*[#  11]+
          +0.110*[#  12]+0.086*[#   3]+0.086*[#   4]+0.006*[#   1]+
    |psi|^2 = 0.999
==== e(   2) =     0.78495 eV ==== 
     psi = 0.190*[#   5]+0.190*[#   9]+0.121*[#   7]+0.121*[#   8]+0.121*[#  11]+
          +0.121*[#  12]+0.066*[#   3]+0.066*[#   4]+
    |psi|^2 = 0.998
==== e(   3) =     1.98649 eV ==== 
     psi = 0.227*[#   7]+0.227*[#   8]+0.227*[#  11]+0.227*[#  12]+0.054*[#   1]+
          +0.011*[#   5]+0.011*[#   9]+0.005*[#   2]+0.005*[#   3]+0.005*[#   4]+
    |psi|^2 = 0.999
==== e(   4) =     8.64478 eV ==== 
     psi = 0.442*[#   6]+0.442*[#  10]+0.031*[#   3]+0.031*[#   4]+0.006*[#   5]+
          +0.006*[#   9]+0.005*[#   2]+0.003*[#   7]+0.003*[#   8]+0.003*[#  11]+
          +0.003*[#  12]+0.001*[#   1]+
    |psi|^2 = 0.977
==== e(   5) =     9.46470 eV ==== 
     psi = 0.438*[#   6]+0.438*[#  10]+0.036*[#   3]+0.036*[#   4]+0.004*[#   7]+
          +0.004*[#   8]+0.004*[#  11]+0.004*[#  12]+0.003*[#   5]+0.003*[#   9]+
    |psi|^2 = 0.970
==== e(   6) =    14.13019 eV ==== 
     psi = 0.339*[#   3]+0.339*[#   4]+0.039*[#   7]+0.039*[#   8]+0.039*[#  11]+
          +0.039*[#  12]+0.038*[#   6]+0.038*[#  10]+0.011*[#   5]+0.011*[#   9]+
          +0.009*[#   1]+
    |psi|^2 = 0.940
==== e(   7) =    14.59958 eV ==== 
     psi = 0.331*[#   3]+0.331*[#   4]+0.046*[#   7]+0.046*[#   8]+0.046*[#  11]+
          +0.046*[#  12]+0.039*[#   6]+0.039*[#  10]+
    |psi|^2 = 0.923
==== e(   8) =    15.32593 eV ==== 
     psi = 0.536*[#   1]+0.396*[#   2]+0.006*[#   7]+0.006*[#   8]+0.006*[#  11]+
          +0.006*[#  12]+0.003*[#   3]+0.003*[#   4]+
    |psi|^2 = 0.965

 k =   0.3125000000  0.5412658774  0.1455384075
==== e(   1) =     0.15713 eV ==== 
     psi = 0.197*[#   5]+0.197*[#   9]+0.112*[#   7]+0.112*[#   8]+0.112*[#  11]+
          +0.112*[#  12]+0.073*[#   3]+0.073*[#   4]+0.005*[#   1]+0.003*[#   6]+
          +0.003*[#  10]+0.002*[#   2]+
    |psi|^2 = 0.999
==== e(   2) =     0.91453 eV ==== 
     psi = 0.196*[#   5]+0.196*[#   9]+0.123*[#   7]+0.123*[#   8]+0.123*[#  11]+
          +0.123*[#  12]+0.055*[#   3]+0.055*[#   4]+0.003*[#   6]+0.003*[#  10]+
    |psi|^2 = 0.998
==== e(   3) =     2.09599 eV ==== 
     psi = 0.226*[#   7]+0.226*[#   8]+0.226*[#  11]+0.226*[#  12]+0.046*[#   1]+
          +0.018*[#   2]+0.011*[#   5]+0.011*[#   9]+0.004*[#   3]+0.004*[#   4]+
    |psi|^2 = 0.999
==== e(   4) =     7.76334 eV ==== 
     psi = 0.389*[#   6]+0.389*[#  10]+0.072*[#   3]+0.072*[#   4]+0.015*[#   5]+
          +0.015*[#   9]+0.007*[#   7]+0.007*[#   8]+0.007*[#  11]+0.007*[#  12]+
          +0.003*[#   2]+0.003*[#   1]+
    |psi|^2 = 0.985
==== e(   5) =     8.57419 eV ==== 
     psi = 0.386*[#   6]+0.386*[#  10]+0.082*[#   3]+0.082*[#   4]+0.008*[#   5]+
          +0.008*[#   9]+0.007*[#   7]+0.007*[#   8]+0.007*[#  11]+0.007*[#  12]+
    |psi|^2 = 0.980
==== e(   6) =    14.06204 eV ==== 
     psi = 0.682*[#   1]+0.264*[#   2]+0.004*[#   7]+0.004*[#   8]+0.004*[#  11]+
          +0.004*[#  12]+0.003*[#   6]+0.003*[#  10]+
    |psi|^2 = 0.967
==== e(   7) =    15.38105 eV ==== 
     psi = 0.299*[#   3]+0.299*[#   4]+0.079*[#   6]+0.079*[#  10]+0.038*[#   7]+
          +0.038*[#   8]+0.038*[#  11]+0.038*[#  12]+
    |psi|^2 = 0.909
==== e(   8) =    15.79868 eV ==== 
     psi = 0.270*[#   3]+0.270*[#   4]+0.077*[#   6]+0.077*[#  10]+0.046*[#   7]+
          +0.046*[#   8]+0.046*[#  11]+0.046*[#  12]+0.007*[#   5]+0.007*[#   9]+
    |psi|^2 = 0.891

 k =   0.3125000000  0.5412658774  0.2183076113
==== e(   1) =     0.36286 eV ==== 
     psi = 0.209*[#   5]+0.209*[#   9]+0.114*[#   7]+0.114*[#   8]+0.114*[#  11]+
          +0.114*[#  12]+0.053*[#   3]+0.053*[#   4]+0.005*[#   6]+0.005*[#  10]+
          +0.005*[#   2]+0.004*[#   1]+
    |psi|^2 = 0.999
==== e(   2) =     1.11163 eV ==== 
     psi = 0.204*[#   5]+0.204*[#   9]+0.126*[#   7]+0.126*[#   8]+0.126*[#  11]+
          +0.126*[#  12]+0.039*[#   3]+0.039*[#   4]+0.005*[#   6]+0.005*[#  10]+
    |psi|^2 = 0.998
==== e(   3) =     2.25476 eV ==== 
     psi = 0.225*[#   7]+0.225*[#   8]+0.225*[#  11]+0.225*[#  12]+0.034*[#   2]+
          +0.033*[#   1]+0.012*[#   5]+0.012*[#   9]+0.003*[#   3]+0.003*[#   4]+
    |psi|^2 = 0.999
==== e(   4) =     6.82324 eV ==== 
     psi = 0.361*[#   6]+0.361*[#  10]+0.100*[#   3]+0.100*[#   4]+0.017*[#   5]+
          +0.017*[#   9]+0.007*[#   7]+0.007*[#   8]+0.007*[#  11]+0.007*[#  12]+
          +0.006*[#   1]+0.002*[#   2]+
    |psi|^2 = 0.991
==== e(   5) =     7.63820 eV ==== 
     psi = 0.359*[#   6]+0.359*[#  10]+0.110*[#   3]+0.110*[#   4]+0.010*[#   5]+
          +0.010*[#   9]+0.008*[#   7]+0.008*[#   8]+0.008*[#  11]+0.008*[#  12]+
    |psi|^2 = 0.988
==== e(   6) =    12.96507 eV ==== 
     psi = 0.806*[#   1]+0.143*[#   2]+0.003*[#   7]+0.003*[#   8]+0.003*[#  11]+
          +0.003*[#  12]+0.002*[#   3]+0.002*[#   4]+0.002*[#   6]+0.002*[#  10]+
    |psi|^2 = 0.968
==== e(   7) =    16.87578 eV ==== 
     psi = 0.253*[#   3]+0.253*[#   4]+0.090*[#   6]+0.090*[#  10]+0.042*[#   7]+
          +0.042*[#   8]+0.042*[#  11]+0.042*[#  12]+0.005*[#   5]+0.005*[#   9]+
          +0.004*[#   2]+
    |psi|^2 = 0.871
==== e(   8) =    17.17377 eV ==== 
     psi = 0.203*[#   3]+0.203*[#   4]+0.077*[#   6]+0.077*[#  10]+0.056*[#   7]+
          +0.056*[#   8]+0.056*[#  11]+0.056*[#  12]+0.041*[#   5]+0.041*[#   9]+
    |psi|^2 = 0.864

 k =   0.3125000000  0.5412658774  0.2910768150
==== e(   1) =     0.60252 eV ==== 
     psi = 0.224*[#   5]+0.224*[#   9]+0.118*[#   7]+0.118*[#   8]+0.118*[#  11]+
          +0.118*[#  12]+0.029*[#   3]+0.029*[#   4]+0.007*[#   2]+0.005*[#   6]+
          +0.005*[#  10]+0.003*[#   1]+
    |psi|^2 = 0.998
==== e(   2) =     1.34012 eV ==== 
     psi = 0.214*[#   5]+0.214*[#   9]+0.129*[#   7]+0.129*[#   8]+0.129*[#  11]+
          +0.129*[#  12]+0.022*[#   3]+0.022*[#   4]+0.005*[#   6]+0.005*[#  10]+
    |psi|^2 = 0.998
==== e(   3) =     2.42622 eV ==== 
     psi = 0.225*[#   7]+0.225*[#   8]+0.225*[#  11]+0.225*[#  12]+0.048*[#   2]+
          +0.018*[#   1]+0.013*[#   5]+0.013*[#   9]+0.002*[#   3]+0.002*[#   4]+
    |psi|^2 = 0.999
==== e(   4) =     6.01079 eV ==== 
     psi = 0.352*[#   6]+0.352*[#  10]+0.118*[#   3]+0.118*[#   4]+0.013*[#   5]+
          +0.013*[#   9]+0.008*[#   1]+0.005*[#   7]+0.005*[#   8]+0.005*[#  11]+
          +0.005*[#  12]+
    |psi|^2 = 0.995
==== e(   5) =     6.83729 eV ==== 
     psi = 0.352*[#   6]+0.352*[#  10]+0.126*[#   3]+0.126*[#   4]+0.008*[#   5]+
          +0.008*[#   9]+0.005*[#   7]+0.005*[#   8]+0.005*[#  11]+0.005*[#  12]+
    |psi|^2 = 0.993
==== e(   6) =    12.10488 eV ==== 
     psi = 0.898*[#   1]+0.056*[#   2]+0.003*[#   3]+0.003*[#   4]+0.002*[#   7]+
          +0.002*[#   8]+0.002*[#  11]+0.002*[#  12]+0.002*[#   6]+0.002*[#  10]+
    |psi|^2 = 0.971
==== e(   7) =    18.22497 eV ==== 
     psi = 0.137*[#   3]+0.137*[#   4]+0.125*[#   2]+0.061*[#   7]+0.061*[#   8]+
          +0.061*[#  11]+0.061*[#  12]+0.055*[#   5]+0.055*[#   9]+0.051*[#   6]+
          +0.051*[#  10]+0.003*[#   1]+
    |psi|^2 = 0.856
==== e(   8) =    18.37157 eV ==== 
     psi = 0.123*[#   5]+0.123*[#   9]+0.109*[#   3]+0.109*[#   4]+0.079*[#   7]+
          +0.079*[#   8]+0.079*[#  11]+0.079*[#  12]+0.046*[#   6]+0.046*[#  10]+
    |psi|^2 = 0.872

 k =   0.3125000000  0.5412658774  0.3638460188
==== e(   1) =     0.80937 eV ==== 
     psi = 0.239*[#   5]+0.239*[#   9]+0.122*[#   7]+0.122*[#   8]+0.122*[#  11]+
          +0.122*[#  12]+0.009*[#   3]+0.009*[#   4]+0.008*[#   2]+0.002*[#   6]+
          +0.002*[#  10]+
    |psi|^2 = 0.998
==== e(   2) =     1.53601 eV ==== 
     psi = 0.224*[#   5]+0.224*[#   9]+0.133*[#   7]+0.133*[#   8]+0.133*[#  11]+
          +0.133*[#  12]+0.006*[#   3]+0.006*[#   4]+0.002*[#   6]+0.002*[#  10]+
    |psi|^2 = 0.998
==== e(   3) =     2.56178 eV ==== 
     psi = 0.226*[#   7]+0.226*[#   8]+0.226*[#  11]+0.226*[#  12]+0.057*[#   2]+
          +0.015*[#   5]+0.015*[#   9]+0.005*[#   1]+
    |psi|^2 = 0.999
==== e(   4) =     5.44595 eV ==== 
     psi = 0.354*[#   6]+0.354*[#  10]+0.132*[#   3]+0.132*[#   4]+0.009*[#   1]+
          +0.005*[#   5]+0.005*[#   9]+0.002*[#   7]+0.002*[#   8]+0.002*[#  11]+
          +0.002*[#  12]+
    |psi|^2 = 0.998
==== e(   5) =     6.28563 eV ==== 
     psi = 0.354*[#   6]+0.354*[#  10]+0.137*[#   3]+0.137*[#   4]+0.003*[#   5]+
          +0.003*[#   9]+0.002*[#   7]+0.002*[#   8]+0.002*[#  11]+0.002*[#  12]+
    |psi|^2 = 0.996
==== e(   6) =    11.55136 eV ==== 
     psi = 0.949*[#   1]+0.012*[#   2]+0.004*[#   3]+0.004*[#   4]+0.002*[#   6]+
          +0.002*[#  10]+
    |psi|^2 = 0.976
==== e(   7) =    18.76016 eV ==== 
     psi = 0.456*[#   2]+0.086*[#   5]+0.086*[#   9]+0.055*[#   7]+0.055*[#   8]+
          +0.055*[#  11]+0.055*[#  12]+0.012*[#   3]+0.012*[#   4]+0.004*[#   6]+
          +0.004*[#  10]+0.004*[#   1]+
    |psi|^2 = 0.884
==== e(   8) =    19.07643 eV ==== 
     psi = 0.216*[#   5]+0.216*[#   9]+0.102*[#   7]+0.102*[#   8]+0.102*[#  11]+
          +0.102*[#  12]+0.025*[#   3]+0.025*[#   4]+0.011*[#   6]+0.011*[#  10]+
    |psi|^2 = 0.912

 k =   0.3125000000  0.5412658774 -0.4366152225
==== e(   1) =     0.89432 eV ==== 
     psi = 0.245*[#   5]+0.245*[#   9]+0.125*[#   7]+0.125*[#   8]+0.125*[#  11]+
          +0.125*[#  12]+0.009*[#   2]+
    |psi|^2 = 0.998
==== e(   2) =     1.61599 eV ==== 
     psi = 0.229*[#   5]+0.229*[#   9]+0.135*[#   7]+0.135*[#   8]+0.135*[#  11]+
          +0.135*[#  12]+
    |psi|^2 = 0.998
==== e(   3) =     2.61399 eV ==== 
     psi = 0.227*[#   7]+0.227*[#   8]+0.227*[#  11]+0.227*[#  12]+0.059*[#   2]+
          +0.016*[#   5]+0.016*[#   9]+
    |psi|^2 = 0.999
==== e(   4) =     5.23939 eV ==== 
     psi = 0.356*[#   6]+0.356*[#  10]+0.138*[#   3]+0.138*[#   4]+0.010*[#   1]+
    |psi|^2 = 0.999
==== e(   5) =     6.08536 eV ==== 
     psi = 0.357*[#   6]+0.357*[#  10]+0.142*[#   3]+0.142*[#   4]+
    |psi|^2 = 0.997
==== e(   6) =    11.35943 eV ==== 
     psi = 0.965*[#   1]+0.005*[#   3]+0.005*[#   4]+0.002*[#   6]+0.002*[#  10]+
    |psi|^2 = 0.978
==== e(   7) =    18.85788 eV ==== 
     psi = 0.522*[#   2]+0.084*[#   5]+0.084*[#   9]+0.050*[#   7]+0.050*[#   8]+
          +0.050*[#  11]+0.050*[#  12]+
    |psi|^2 = 0.892
==== e(   8) =    19.28192 eV ==== 
     psi = 0.247*[#   5]+0.247*[#   9]+0.109*[#   7]+0.109*[#   8]+0.109*[#  11]+
          +0.109*[#  12]+
    |psi|^2 = 0.930

Lowdin Charges: 

     Atom #   1: total charge =   1.1864, s =  0.2516, 
     Atom #   1: total charge =   1.1864, p =  0.9348, pz=  0.2705, px=  0.3321, py=  0.3321, 
     Atom #   2: total charge =   3.3959, s =  0.7401, 
     Atom #   2: total charge =   3.3959, p =  2.6558, pz=  0.8055, px=  0.9251, py=  0.9251, 
     Atom #   3: total charge =   3.3959, s =  0.7401, 
     Atom #   3: total charge =   3.3959, p =  2.6558, pz=  0.8055, px=  0.9251, py=  0.9251, 
     Spilling Parameter:   0.0027

     PROJWFC      :    16.64s CPU        19.95s WALL


   This run was terminated on:  22:39:43  16Mar2017            

=------------------------------------------------------------------------------=
   JOB DONE.
=------------------------------------------------------------------------------=
