
     Program PWSCF v.6.7GPU starts on  4Feb2021 at 15:36:28 

     This program is part of the open-source Quantum ESPRESSO suite
     for quantum simulation of materials; please cite
         "P. Giannozzi et al., J. Phys.:Condens. Matter 21 395502 (2009);
         "P. Giannozzi et al., J. Phys.:Condens. Matter 29 465901 (2017);
         "P. Giannozzi et al., J. Chem. Phys. 152 154105 (2020);
          URL http://www.quantum-espresso.org", 
     in publications or presentations arising from this work. More details at
     http://www.quantum-espresso.org/quote

     Serial version
     Reading input from vdw-d2.in

     Current dimensions of program PWSCF are:
     Max number of different atomic species (ntypx) = 10
     Max number of k-points (npk) =  40000
     Max angular momentum in pseudopotentials (lmaxx) =  3

     -------------------------------------------------
     Parameters for Dispersion (Grimme-D2) Correction:
     -------------------------------------------------
       atom      VdW radius       C_6     

        C          2.744         60.710

     gamma-point specific algorithms are used

     G-vector sticks info
     --------------------
     sticks:   dense  smooth     PW     G-vecs:    dense   smooth      PW
     Sum         301     109     31                10915     2349     287

     Using Slab Decomposition



     bravais-lattice index     =            4
     lattice parameter (alat)  =       4.6600  a.u.
     unit-cell volume          =     227.8567 (a.u.)^3
     number of atoms/cell      =            4
     number of atomic types    =            1
     number of electrons       =        16.00
     number of Kohn-Sham states=           12
     kinetic-energy cutoff     =      18.0000  Ry
     charge density cutoff     =     200.0000  Ry
     scf convergence threshold =      1.0E-06
     mixing beta               =       0.5000
     number of iterations used =            8  plain     mixing
     Exchange-correlation= SLA  PW   PBE  PBE
                           (   1   4   3   4   0   0   0)

     celldm(1)=   4.660000  celldm(2)=   0.000000  celldm(3)=   2.600000
     celldm(4)=   0.000000  celldm(5)=   0.000000  celldm(6)=   0.000000

     crystal axes: (cart. coord. in units of alat)
               a(1) = (   1.000000   0.000000   0.000000 )  
               a(2) = (  -0.500000   0.866025   0.000000 )  
               a(3) = (   0.000000   0.000000   2.600000 )  

     reciprocal axes: (cart. coord. in units 2 pi/alat)
               b(1) = (  1.000000  0.577350 -0.000000 )  
               b(2) = (  0.000000  1.154701  0.000000 )  
               b(3) = (  0.000000 -0.000000  0.384615 )  


     PseudoPot. # 1 for C  read from file:
     /users/fdossant/codes/gitlab_q-e/test-suite/..//pseudo/C.pbe-van_bm.UPF
     MD5 check sum: 221bd0865b555dfe45f643e49cead3b6
     Pseudo is Ultrasoft, Zval =  4.0
     Generated by new atomic code, or converted to UPF format
     Using radial grid of  721 points,  4 beta functions with: 
                l(1) =   0
                l(2) =   0
                l(3) =   1
                l(4) =   1
     Q(r) pseudized with  8 coefficients,  rinner =    0.800   0.800   0.800


     atomic species   valence    mass     pseudopotential
        C              4.00    12.00000     C ( 1.00)

     24 Sym. Ops., with inversion, found (12 have fractional translation)



   Cartesian axes

     site n.     atom                  positions (alat units)
         1           C   tau(   1) = (  -0.5000000   0.8660254   1.9500000  )
         2           C   tau(   2) = (   0.5000005   0.2886748   1.9500000  )
         3           C   tau(   3) = (  -0.5000000   0.8660254   0.6500000  )
         4           C   tau(   4) = (  -0.0000005   0.5773506   0.6500000  )

     number of k points=     1  Marzari-Vanderbilt smearing, width (Ry)=  0.0200
                       cart. coord. in units 2pi/alat
        k(    1) = (   0.0000000   0.0000000   0.0000000), wk =   2.0000000

     Dense  grid:     5458 G-vectors     FFT dimensions: (  24,  24,  60)

     Smooth grid:     1175 G-vectors     FFT dimensions: (  15,  15,  36)

     Estimated max dynamical RAM per process >       9.49 MB

     Initial potential from superposition of free atoms

     starting charge   15.99984, renormalised to   16.00000
     Starting wfcs are   16 randomized atomic wfcs

     total cpu time spent up to now is        0.2 secs

     Self-consistent Calculation

     iteration #  1     ecut=    18.00 Ry     beta= 0.50
     Davidson diagonalization with overlap
     ethr =  1.00E-02,  avg # of iterations =  3.0

     total cpu time spent up to now is        0.7 secs

     total energy              =     -44.19851383 Ry
     estimated scf accuracy    <       0.66145270 Ry

     iteration #  2     ecut=    18.00 Ry     beta= 0.50
     Davidson diagonalization with overlap
     ethr =  4.13E-03,  avg # of iterations =  1.0

     total cpu time spent up to now is        0.7 secs

     total energy              =     -44.18818118 Ry
     estimated scf accuracy    <       0.09950645 Ry

     iteration #  3     ecut=    18.00 Ry     beta= 0.50
     Davidson diagonalization with overlap
     ethr =  6.22E-04,  avg # of iterations =  2.0

     total cpu time spent up to now is        0.7 secs

     total energy              =     -44.19764028 Ry
     estimated scf accuracy    <       0.00289743 Ry

     iteration #  4     ecut=    18.00 Ry     beta= 0.50
     Davidson diagonalization with overlap
     ethr =  1.81E-05,  avg # of iterations =  2.0

     total cpu time spent up to now is        0.8 secs

     total energy              =     -44.19780269 Ry
     estimated scf accuracy    <       0.00013382 Ry

     iteration #  5     ecut=    18.00 Ry     beta= 0.50
     Davidson diagonalization with overlap
     ethr =  8.36E-07,  avg # of iterations =  2.0

     total cpu time spent up to now is        0.8 secs

     End of self-consistent calculation

          k = 0.0000 0.0000 0.0000 (   144 PWs)   bands (ev):

   -11.7003 -11.2371  -0.8836   1.6723   5.7116   5.7116   5.8668   5.8668
    12.1732  16.7961  16.7962  16.8299

     the Fermi energy is     8.9347 ev

!    total energy              =     -44.19783207 Ry
     estimated scf accuracy    <       0.00000084 Ry
     smearing contrib. (-TS)   =       0.00000000 Ry
     internal energy E=F+TS    =     -44.19783207 Ry

     The total energy is F=E-TS. E is the sum of the following terms:
     one-electron contribution =      -6.74528244 Ry
     hartree contribution      =      12.73870735 Ry
     xc contribution           =     -14.27883228 Ry
     ewald contribution        =     -35.87244982 Ry
     Dispersion Correction     =      -0.03997490 Ry

     convergence has been achieved in   5 iterations

     Forces acting on atoms (cartesian axes, Ry/au):

     atom    1 type  1   force =     0.00000000   -0.00000000    0.00000000
     atom    2 type  1   force =     0.00000000   -0.00000000   -0.00000000
     atom    3 type  1   force =    -0.00000000    0.00000000   -0.00000000
     atom    4 type  1   force =    -0.00000000    0.00000000    0.00000000

     Total force =     0.000000     Total SCF correction =     0.000429


     Computing stress (Cartesian axis) and pressure

          total   stress  (Ry/bohr**3)                   (kbar)     P=     -383.14
  -0.00277946   0.00000000  -0.00000000         -408.87        0.00       -0.00
   0.00000000  -0.00277946  -0.00000000            0.00     -408.87       -0.00
  -0.00000000  -0.00000000  -0.00225459           -0.00       -0.00     -331.66


     Writing output data file ./pwscf.save/

     init_run     :      0.15s CPU      0.16s WALL (       1 calls)
     electrons    :      0.60s CPU      0.63s WALL (       1 calls)
     forces       :      0.42s CPU      0.44s WALL (       1 calls)
     stress       :      0.70s CPU      0.71s WALL (       1 calls)

     Called by init_run:
     wfcinit      :      0.00s CPU      0.00s WALL (       1 calls)
     potinit      :      0.03s CPU      0.03s WALL (       1 calls)
     hinit0       :      0.11s CPU      0.12s WALL (       1 calls)

     Called by electrons:
     c_bands      :      0.01s CPU      0.02s WALL (       5 calls)
     sum_band     :      0.01s CPU      0.02s WALL (       5 calls)
     v_of_rho     :      0.12s CPU      0.13s WALL (       6 calls)
     newd         :      0.01s CPU      0.02s WALL (       6 calls)
     mix_rho      :      0.00s CPU      0.00s WALL (       5 calls)

     Called by c_bands:
     init_us_2    :      0.00s CPU      0.00s WALL (      11 calls)
     regterg      :      0.01s CPU      0.02s WALL (       5 calls)

     Called by *egterg:
     rdiaghg      :      0.00s CPU      0.00s WALL (      15 calls)
     h_psi        :      0.01s CPU      0.01s WALL (      16 calls)
     s_psi        :      0.00s CPU      0.00s WALL (      16 calls)
     g_psi        :      0.00s CPU      0.00s WALL (      10 calls)

     Called by h_psi:
     h_psi:calbec :      0.00s CPU      0.00s WALL (      16 calls)
     vloc_psi     :      0.01s CPU      0.01s WALL (      16 calls)
     add_vuspsi   :      0.00s CPU      0.00s WALL (      16 calls)

     General routines
     calbec       :      0.00s CPU      0.00s WALL (      26 calls)
     fft          :      0.02s CPU      0.03s WALL (      71 calls)
     ffts         :      0.00s CPU      0.00s WALL (      11 calls)
     fftw         :      0.01s CPU      0.01s WALL (     190 calls)
     interpolate  :      0.00s CPU      0.00s WALL (       6 calls)


     PWSCF        :      1.91s CPU      1.97s WALL


   This run was terminated on:  15:36:30   4Feb2021            

=------------------------------------------------------------------------------=
   JOB DONE.
=------------------------------------------------------------------------------=
