 BEGIN_INFO
   #
   # this is a Band-XCRYSDEN-Structure-File
   # aimed at Visualization of Fermi Surface
   #
   # Case:   ni                                                                              
   #
 Fermi Energy:         15.1163
 END_INFO
 BEGIN_BLOCK_BANDGRID_3D
 band_energies
 BANDGRID_3D_BANDS
    4
   13   13   13
  0.000000  0.000000  0.000000
 -1.000000 -1.000000  1.000000
  1.000000  1.000000  1.000000
 -1.000000  1.000000 -1.000000
BAND:   3
   13.0166   13.0840   13.2206   13.2531   13.1457   13.0273
   12.9800   13.0273   13.1457   13.2531   13.2206   13.0840
   13.0166   13.0840   13.1322   13.2690   13.2866   13.1155
   13.1842   13.1040   13.1056   13.0151   13.1804   13.2679
   13.1849   13.0840   13.2206   13.2690   13.4683   13.4011
   13.0946   12.8950   13.0703   13.1612   12.7439   12.9319
   13.1728   13.2679   13.2206   13.2531   13.2866   13.4011
   13.5613   13.3983   13.1651   13.0149   12.8860   12.5550
   12.5525   12.9319   13.1804   13.2531   13.1457   13.1155
   13.0946   13.3983   14.2335   14.1414   13.7538   13.2857
   12.7816   12.5550   12.7439   13.0151   13.1457   13.0273
   13.1842   12.8950   13.1651   14.1414   15.0506   14.7649
   14.0509   13.2857   12.8860   13.1612   13.1056   13.0273
   12.9800   13.1040   13.0703   13.0149   13.7538   14.7649
   15.1073   14.7649   13.7538   13.0149   13.0703   13.1040
   12.9800   13.0273   13.1056   13.1612   12.8860   13.2857
   14.0509   14.7649   15.0506   14.1414   13.1651   12.8950
   13.1842   13.0273   13.1457   13.0151   12.7439   12.5550
   12.7816   13.2857   13.7538   14.1414   14.2335   13.3983
   13.0946   13.1155   13.1457   13.2531   13.1804   12.9319
   12.5525   12.5550   12.8860   13.0149   13.1651   13.3983
   13.5613   13.4011   13.2866   13.2531   13.2206   13.2679
   13.1728   12.9319   12.7439   13.1612   13.0703   12.8950
   13.0946   13.4011   13.4683   13.2690   13.2206   13.0840
   13.1849   13.2679   13.1804   13.0151   13.1056   13.1040
   13.1842   13.1155   13.2866   13.2690   13.1322   13.0840
   13.0166   13.0840   13.2206   13.2531   13.1457   13.0273
   12.9800   13.0273   13.1457   13.2531   13.2206   13.0840
   13.0166   13.0840   13.1322   13.2690   13.2866   13.1155
   13.1842   13.1040   13.1056   13.0151   13.1804   13.2679
   13.1849   13.0840   13.1322   13.0840   13.1849   13.2679
   13.1804   13.0151   13.1056   13.1040   13.1842   13.1155
   13.2866   13.2690   13.1322   13.2690   13.1849   13.2690
   13.3241   13.1495   12.9037   13.0150   13.3160   13.0150
   12.9037   13.1495   13.3241   13.2690   13.2866   13.2679
   13.3241   13.4011   13.1976   12.9048   12.7446   12.8567
   12.7331   12.5350   12.8519   13.1495   13.2866   13.1155
   13.1804   13.1495   13.1976   13.3983   13.3937   13.1921
   12.9620   12.6625   12.2858   12.5350   12.9037   13.1155
   13.1842   13.0151   12.9037   12.9048   13.3937   14.1414
   14.1115   13.7005   13.1346   12.6625   12.7331   13.0150
   13.1842   13.1040   13.1056   13.0150   12.7446   13.1921
   14.1115   14.7649   14.4648   13.7005   12.9620   12.8567
   13.3160   13.1040   13.1056   13.1040   13.3160   12.8567
   12.9620   13.7005   14.4648   14.7649   14.1115   13.1921
   12.7446   13.0150   13.1056   13.0151   13.1842   13.0150
   12.7331   12.6625   13.1346   13.7005   14.1115   14.1414
   13.3937   12.9048   12.9037   13.0151   13.1804   13.1155
   12.9037   12.5350   12.2858   12.6625   12.9620   13.1921
   13.3937   13.3983   13.1976   13.1495   13.1804   13.2679
   13.2866   13.1495   12.8519   12.5350   12.7331   12.8567
   12.7446   12.9048   13.1976   13.4011   13.3241   13.2679
   13.1849   13.2690   13.3241   13.1495   12.9037   13.0150
   13.3160   13.0150   12.9037   13.1495   13.3241   13.2690
   13.1849   13.0840   13.1322   13.2690   13.2866   13.1155
   13.1842   13.1040   13.1056   13.0151   13.1804   13.2679
   13.1849   13.0840   13.2206   13.2690   13.4683   13.4011
   13.0946   12.8950   13.0703   13.1612   12.7439   12.9319
   13.1728   13.2679   13.2206   13.2690   13.1849   13.2690
   13.3241   13.1495   12.9037   13.0150   13.3160   13.0150
   12.9037   13.1495   13.3241   13.2690   13.4683   13.2690
   13.2206   13.2679   13.1728   12.9319   12.7439   13.1612
   13.0703   12.8950   13.0946   13.4011   13.4683   13.4011
   13.3241   13.2679   13.2866   13.1495   12.8519   12.5350
   12.7331   12.8567   12.7446   12.9048   13.1976   13.4011
   13.0946   13.1495   13.1728   13.1495   13.0946   12.9048
   12.6026   12.4344   12.5298   12.4344   12.6026   12.9048
   13.0946   12.8950   12.9037   12.9319   12.8519   12.9048
   13.1651   13.1921   12.9682   12.6558   12.2621   12.4344
   12.7446   12.8950   13.0703   13.0150   12.7439   12.5350
   12.6026   13.1921   13.7538   13.7005   13.2480   12.6558
   12.5298   12.8567   13.0703   13.1612   13.3160   13.1612
   12.7331   12.4344   12.9682   13.7005   14.0509   13.7005
   12.9682   12.4344   12.7331   13.1612   12.7439   13.0150
   13.0703   12.8567   12.5298   12.6558   13.2480   13.7005
   13.7538   13.1921   12.6026   12.5350   12.7439   12.9319
   12.9037   12.8950   12.7446   12.4344   12.2621   12.6558
   12.9682   13.1921   13.1651   12.9048   12.8519   12.9319
   13.1728   13.1495   13.0946   12.9048   12.6026   12.4344
   12.5298   12.4344   12.6026   12.9048   13.0946   13.1495
   13.1728   13.2679   13.3241   13.4011   13.1976   12.9048
   12.7446   12.8567   12.7331   12.5350   12.8519   13.1495
   13.2866   13.2679   13.2206   13.2690   13.4683   13.4011
   13.0946   12.8950   13.0703   13.1612   12.7439   12.9319
   13.1728   13.2679   13.2206   13.2531   13.2866   13.4011
   13.5613   13.3983   13.1651   13.0149   12.8860   12.5550
   12.5525   12.9319   13.1804   13.2531   13.2866   13.2679
   13.3241   13.4011   13.1976   12.9048   12.7446   12.8567
   12.7331   12.5350   12.8519   13.1495   13.2866   13.4011
   13.3241   13.2679   13.2866   13.1495   12.8519   12.5350
   12.7331   12.8567   12.7446   12.9048   13.1976   13.4011
   13.5613   13.4011   13.2866   13.2531   13.1804   12.9319
   12.5525   12.5550   12.8860   13.0149   13.1651   13.3983
   13.5613   13.3983   13.1976   13.1495   13.1804   13.1155
   12.9037   12.5350   12.2858   12.6625   12.9620   13.1921
   13.3937   13.3983   13.1651   12.9048   12.8519   12.9319
   12.9037   12.8950   12.7446   12.4344   12.2621   12.6558
   12.9682   13.1921   13.1651   13.0149   12.7446   12.5350
   12.5525   12.5350   12.7446   13.0149   12.9620   12.6558
   12.2445   12.6558   12.9620   13.0149   12.8860   12.8567
   12.7331   12.5550   12.2858   12.4344   12.9620   13.2857
   13.1346   12.6558   12.2621   12.6625   12.8860   12.5550
   12.7331   12.8567   12.8860   12.6625   12.2621   12.6558
   13.1346   13.2857   12.9620   12.4344   12.2858   12.5550
   12.5525   12.5350   12.7446   13.0149   12.9620   12.6558
   12.2445   12.6558   12.9620   13.0149   12.7446   12.5350
   12.5525   12.9319   12.8519   12.9048   13.1651   13.1921
   12.9682   12.6558   12.2621   12.4344   12.7446   12.8950
   12.9037   12.9319   13.1804   13.1495   13.1976   13.3983
   13.3937   13.1921   12.9620   12.6625   12.2858   12.5350
   12.9037   13.1155   13.1804   13.2531   13.2866   13.4011
   13.5613   13.3983   13.1651   13.0149   12.8860   12.5550
   12.5525   12.9319   13.1804   13.2531   13.1457   13.1155
   13.0946   13.3983   14.2335   14.1414   13.7538   13.2857
   12.7816   12.5550   12.7439   13.0151   13.1457   13.1155
   13.1804   13.1495   13.1976   13.3983   13.3937   13.1921
   12.9620   12.6625   12.2858   12.5350   12.9037   13.1155
   13.0946   13.1495   13.1728   13.1495   13.0946   12.9048
   12.6026   12.4344   12.5298   12.4344   12.6026   12.9048
   13.0946   13.3983   13.1976   13.1495   13.1804   13.1155
   12.9037   12.5350   12.2858   12.6625   12.9620   13.1921
   13.3937   13.3983   14.2335   13.3983   13.0946   13.1155
   13.1457   13.0151   12.7439   12.5550   12.7816   13.2857
   13.7538   14.1414   14.2335   14.1414   13.3937   12.9048
   12.9037   13.0151   13.1842   13.0150   12.7331   12.6625
   13.1346   13.7005   14.1115   14.1414   13.7538   13.1921
   12.6026   12.5350   12.7439   13.0150   13.0703   12.8567
   12.5298   12.6558   13.2480   13.7005   13.7538   13.2857
   12.9620   12.4344   12.2858   12.5550   12.7331   12.8567
   12.8860   12.6625   12.2621   12.6558   13.1346   13.2857
   12.7816   12.6625   12.5298   12.6625   12.7816   12.6625
   12.5298   12.6625   12.7816   12.6625   12.5298   12.6625
   12.7816   12.5550   12.2858   12.4344   12.9620   13.2857
   13.1346   12.6558   12.2621   12.6625   12.8860   12.8567
   12.7331   12.5550   12.7439   12.5350   12.6026   13.1921
   13.7538   13.7005   13.2480   12.6558   12.5298   12.8567
   13.0703   13.0150   12.7439   13.0151   12.9037   12.9048
   13.3937   14.1414   14.1115   13.7005   13.1346   12.6625
   12.7331   13.0150   13.1842   13.0151   13.1457   13.1155
   13.0946   13.3983   14.2335   14.1414   13.7538   13.2857
   12.7816   12.5550   12.7439   13.0151   13.1457   13.0273
   13.1842   12.8950   13.1651   14.1414   15.0506   14.7649
   14.0509   13.2857   12.8860   13.1612   13.1056   13.0273
   13.1842   13.0151   12.9037   12.9048   13.3937   14.1414
   14.1115   13.7005   13.1346   12.6625   12.7331   13.0150
   13.1842   12.8950   12.9037   12.9319   12.8519   12.9048
   13.1651   13.1921   12.9682   12.6558   12.2621   12.4344
   12.7446   12.8950   13.1651   12.9048   12.8519   12.9319
   12.9037   12.8950   12.7446   12.4344   12.2621   12.6558
   12.9682   13.1921   13.1651   14.1414   13.3937   12.9048
   12.9037   13.0151   13.1842   13.0150   12.7331   12.6625
   13.1346   13.7005   14.1115   14.1414   15.0506   14.1414
   13.1651   12.8950   13.1842   13.0273   13.1056   13.1612
   12.8860   13.2857   14.0509   14.7649   15.0506   14.7649
   14.1115   13.1921   12.7446   13.0150   13.1056   13.1040
   13.3160   12.8567   12.9620   13.7005   14.4648   14.7649
   14.0509   13.7005   12.9682   12.4344   12.7331   13.1612
   13.3160   13.1612   12.7331   12.4344   12.9682   13.7005
   14.0509   13.2857   13.1346   12.6558   12.2621   12.6625
   12.8860   12.8567   12.7331   12.5550   12.2858   12.4344
   12.9620   13.2857   12.8860   12.6625   12.2621   12.6558
   13.1346   13.2857   12.9620   12.4344   12.2858   12.5550
   12.7331   12.8567   12.8860   13.1612   12.7331   12.4344
   12.9682   13.7005   14.0509   13.7005   12.9682   12.4344
   12.7331   13.1612   13.3160   13.1612   13.1056   13.0150
   12.7446   13.1921   14.1115   14.7649   14.4648   13.7005
   12.9620   12.8567   13.3160   13.1040   13.1056   13.0273
   13.1842   12.8950   13.1651   14.1414   15.0506   14.7649
   14.0509   13.2857   12.8860   13.1612   13.1056   13.0273
   12.9800   13.1040   13.0703   13.0149   13.7538   14.7649
   15.1073   14.7649   13.7538   13.0149   13.0703   13.1040
   12.9800   13.1040   13.1056   13.0150   12.7446   13.1921
   14.1115   14.7649   14.4648   13.7005   12.9620   12.8567
   13.3160   13.1040   13.0703   13.0150   12.7439   12.5350
   12.6026   13.1921   13.7538   13.7005   13.2480   12.6558
   12.5298   12.8567   13.0703   13.0149   12.7446   12.5350
   12.5525   12.5350   12.7446   13.0149   12.9620   12.6558
   12.2445   12.6558   12.9620   13.0149   13.7538   13.1921
   12.6026   12.5350   12.7439   13.0150   13.0703   12.8567
   12.5298   12.6558   13.2480   13.7005   13.7538   14.7649
   14.1115   13.1921   12.7446   13.0150   13.1056   13.1040
   13.3160   12.8567   12.9620   13.7005   14.4648   14.7649
   15.1073   14.7649   13.7538   13.0149   13.0703   13.1040
   12.9800   13.1040   13.0703   13.0149   13.7538   14.7649
   15.1073   14.7649   14.4648   13.7005   12.9620   12.8567
   13.3160   13.1040   13.1056   13.0150   12.7446   13.1921
   14.1115   14.7649   13.7538   13.7005   13.2480   12.6558
   12.5298   12.8567   13.0703   13.0150   12.7439   12.5350
   12.6026   13.1921   13.7538   13.0149   12.9620   12.6558
   12.2445   12.6558   12.9620   13.0149   12.7446   12.5350
   12.5525   12.5350   12.7446   13.0149   13.0703   12.8567
   12.5298   12.6558   13.2480   13.7005   13.7538   13.1921
   12.6026   12.5350   12.7439   13.0150   13.0703   13.1040
   13.3160   12.8567   12.9620   13.7005   14.4648   14.7649
   14.1115   13.1921   12.7446   13.0150   13.1056   13.1040
   12.9800   13.1040   13.0703   13.0149   13.7538   14.7649
   15.1073   14.7649   13.7538   13.0149   13.0703   13.1040
   12.9800   13.0273   13.1056   13.1612   12.8860   13.2857
   14.0509   14.7649   15.0506   14.1414   13.1651   12.8950
   13.1842   13.0273   13.1056   13.1040   13.3160   12.8567
   12.9620   13.7005   14.4648   14.7649   14.1115   13.1921
   12.7446   13.0150   13.1056   13.1612   13.3160   13.1612
   12.7331   12.4344   12.9682   13.7005   14.0509   13.7005
   12.9682   12.4344   12.7331   13.1612   12.8860   12.8567
   12.7331   12.5550   12.2858   12.4344   12.9620   13.2857
   13.1346   12.6558   12.2621   12.6625   12.8860   13.2857
   12.9620   12.4344   12.2858   12.5550   12.7331   12.8567
   12.8860   12.6625   12.2621   12.6558   13.1346   13.2857
   14.0509   13.7005   12.9682   12.4344   12.7331   13.1612
   13.3160   13.1612   12.7331   12.4344   12.9682   13.7005
   14.0509   14.7649   14.4648   13.7005   12.9620   12.8567
   13.3160   13.1040   13.1056   13.0150   12.7446   13.1921
   14.1115   14.7649   15.0506   14.7649   14.0509   13.2857
   12.8860   13.1612   13.1056   13.0273   13.1842   12.8950
   13.1651   14.1414   15.0506   14.1414   14.1115   13.7005
   13.1346   12.6625   12.7331   13.0150   13.1842   13.0151
   12.9037   12.9048   13.3937   14.1414   13.1651   13.1921
   12.9682   12.6558   12.2621   12.4344   12.7446   12.8950
   12.9037   12.9319   12.8519   12.9048   13.1651   12.8950
   12.7446   12.4344   12.2621   12.6558   12.9682   13.1921
   13.1651   12.9048   12.8519   12.9319   12.9037   12.8950
   13.1842   13.0150   12.7331   12.6625   13.1346   13.7005
   14.1115   14.1414   13.3937   12.9048   12.9037   13.0151
   13.1842   13.0273   13.1056   13.1612   12.8860   13.2857
   14.0509   14.7649   15.0506   14.1414   13.1651   12.8950
   13.1842   13.0273   13.1457   13.0151   12.7439   12.5550
   12.7816   13.2857   13.7538   14.1414   14.2335   13.3983
   13.0946   13.1155   13.1457   13.0151   13.1842   13.0150
   12.7331   12.6625   13.1346   13.7005   14.1115   14.1414
   13.3937   12.9048   12.9037   13.0151   12.7439   13.0150
   13.0703   12.8567   12.5298   12.6558   13.2480   13.7005
   13.7538   13.1921   12.6026   12.5350   12.7439   12.5550
   12.7331   12.8567   12.8860   12.6625   12.2621   12.6558
   13.1346   13.2857   12.9620   12.4344   12.2858   12.5550
   12.7816   12.6625   12.5298   12.6625   12.7816   12.6625
   12.5298   12.6625   12.7816   12.6625   12.5298   12.6625
   12.7816   13.2857   13.1346   12.6558   12.2621   12.6625
   12.8860   12.8567   12.7331   12.5550   12.2858   12.4344
   12.9620   13.2857   13.7538   13.7005   13.2480   12.6558
   12.5298   12.8567   13.0703   13.0150   12.7439   12.5350
   12.6026   13.1921   13.7538   14.1414   14.1115   13.7005
   13.1346   12.6625   12.7331   13.0150   13.1842   13.0151
   12.9037   12.9048   13.3937   14.1414   14.2335   14.1414
   13.7538   13.2857   12.7816   12.5550   12.7439   13.0151
   13.1457   13.1155   13.0946   13.3983   14.2335   13.3983
   13.3937   13.1921   12.9620   12.6625   12.2858   12.5350
   12.9037   13.1155   13.1804   13.1495   13.1976   13.3983
   13.0946   12.9048   12.6026   12.4344   12.5298   12.4344
   12.6026   12.9048   13.0946   13.1495   13.1728   13.1495
   13.0946   13.1155   12.9037   12.5350   12.2858   12.6625
   12.9620   13.1921   13.3937   13.3983   13.1976   13.1495
   13.1804   13.1155   13.1457   13.0151   12.7439   12.5550
   12.7816   13.2857   13.7538   14.1414   14.2335   13.3983
   13.0946   13.1155   13.1457   13.2531   13.1804   12.9319
   12.5525   12.5550   12.8860   13.0149   13.1651   13.3983
   13.5613   13.4011   13.2866   13.2531   13.1804   13.1155
   12.9037   12.5350   12.2858   12.6625   12.9620   13.1921
   13.3937   13.3983   13.1976   13.1495   13.1804   12.9319
   12.9037   12.8950   12.7446   12.4344   12.2621   12.6558
   12.9682   13.1921   13.1651   12.9048   12.8519   12.9319
   12.5525   12.5350   12.7446   13.0149   12.9620   12.6558
   12.2445   12.6558   12.9620   13.0149   12.7446   12.5350
   12.5525   12.5550   12.2858   12.4344   12.9620   13.2857
   13.1346   12.6558   12.2621   12.6625   12.8860   12.8567
   12.7331   12.5550   12.8860   12.6625   12.2621   12.6558
   13.1346   13.2857   12.9620   12.4344   12.2858   12.5550
   12.7331   12.8567   12.8860   13.0149   12.9620   12.6558
   12.2445   12.6558   12.9620   13.0149   12.7446   12.5350
   12.5525   12.5350   12.7446   13.0149   13.1651   13.1921
   12.9682   12.6558   12.2621   12.4344   12.7446   12.8950
   12.9037   12.9319   12.8519   12.9048   13.1651   13.3983
   13.3937   13.1921   12.9620   12.6625   12.2858   12.5350
   12.9037   13.1155   13.1804   13.1495   13.1976   13.3983
   13.5613   13.3983   13.1651   13.0149   12.8860   12.5550
   12.5525   12.9319   13.1804   13.2531   13.2866   13.4011
   13.5613   13.4011   13.1976   12.9048   12.7446   12.8567
   12.7331   12.5350   12.8519   13.1495   13.2866   13.2679
   13.3241   13.4011   13.2866   13.1495   12.8519   12.5350
   12.7331   12.8567   12.7446   12.9048   13.1976   13.4011
   13.3241   13.2679   13.2866   13.2531   13.1804   12.9319
   12.5525   12.5550   12.8860   13.0149   13.1651   13.3983
   13.5613   13.4011   13.2866   13.2531   13.2206   13.2679
   13.1728   12.9319   12.7439   13.1612   13.0703   12.8950
   13.0946   13.4011   13.4683   13.2690   13.2206   13.2679
   13.2866   13.1495   12.8519   12.5350   12.7331   12.8567
   12.7446   12.9048   13.1976   13.4011   13.3241   13.2679
   13.1728   13.1495   13.0946   12.9048   12.6026   12.4344
   12.5298   12.4344   12.6026   12.9048   13.0946   13.1495
   13.1728   12.9319   12.8519   12.9048   13.1651   13.1921
   12.9682   12.6558   12.2621   12.4344   12.7446   12.8950
   12.9037   12.9319   12.7439   12.5350   12.6026   13.1921
   13.7538   13.7005   13.2480   12.6558   12.5298   12.8567
   13.0703   13.0150   12.7439   13.1612   12.7331   12.4344
   12.9682   13.7005   14.0509   13.7005   12.9682   12.4344
   12.7331   13.1612   13.3160   13.1612   13.0703   12.8567
   12.5298   12.6558   13.2480   13.7005   13.7538   13.1921
   12.6026   12.5350   12.7439   13.0150   13.0703   12.8950
   12.7446   12.4344   12.2621   12.6558   12.9682   13.1921
   13.1651   12.9048   12.8519   12.9319   12.9037   12.8950
   13.0946   12.9048   12.6026   12.4344   12.5298   12.4344
   12.6026   12.9048   13.0946   13.1495   13.1728   13.1495
   13.0946   13.4011   13.1976   12.9048   12.7446   12.8567
   12.7331   12.5350   12.8519   13.1495   13.2866   13.2679
   13.3241   13.4011   13.4683   13.4011   13.0946   12.8950
   13.0703   13.1612   12.7439   12.9319   13.1728   13.2679
   13.2206   13.2690   13.4683   13.2690   13.3241   13.1495
   12.9037   13.0150   13.3160   13.0150   12.9037   13.1495
   13.3241   13.2690   13.1849   13.2690   13.2206   13.2679
   13.1728   12.9319   12.7439   13.1612   13.0703   12.8950
   13.0946   13.4011   13.4683   13.2690   13.2206   13.0840
   13.1849   13.2679   13.1804   13.0151   13.1056   13.1040
   13.1842   13.1155   13.2866   13.2690   13.1322   13.0840
   13.1849   13.2690   13.3241   13.1495   12.9037   13.0150
   13.3160   13.0150   12.9037   13.1495   13.3241   13.2690
   13.1849   13.2679   13.3241   13.4011   13.1976   12.9048
   12.7446   12.8567   12.7331   12.5350   12.8519   13.1495
   13.2866   13.2679   13.1804   13.1495   13.1976   13.3983
   13.3937   13.1921   12.9620   12.6625   12.2858   12.5350
   12.9037   13.1155   13.1804   13.0151   12.9037   12.9048
   13.3937   14.1414   14.1115   13.7005   13.1346   12.6625
   12.7331   13.0150   13.1842   13.0151   13.1056   13.0150
   12.7446   13.1921   14.1115   14.7649   14.4648   13.7005
   12.9620   12.8567   13.3160   13.1040   13.1056   13.1040
   13.3160   12.8567   12.9620   13.7005   14.4648   14.7649
   14.1115   13.1921   12.7446   13.0150   13.1056   13.1040
   13.1842   13.0150   12.7331   12.6625   13.1346   13.7005
   14.1115   14.1414   13.3937   12.9048   12.9037   13.0151
   13.1842   13.1155   12.9037   12.5350   12.2858   12.6625
   12.9620   13.1921   13.3937   13.3983   13.1976   13.1495
   13.1804   13.1155   13.2866   13.1495   12.8519   12.5350
   12.7331   12.8567   12.7446   12.9048   13.1976   13.4011
   13.3241   13.2679   13.2866   13.2690   13.3241   13.1495
   12.9037   13.0150   13.3160   13.0150   12.9037   13.1495
   13.3241   13.2690   13.1849   13.2690   13.1322   13.2690
   13.2866   13.1155   13.1842   13.1040   13.1056   13.0151
   13.1804   13.2679   13.1849   13.0840   13.1322   13.0840
   13.1849   13.2679   13.1804   13.0151   13.1056   13.1040
   13.1842   13.1155   13.2866   13.2690   13.1322   13.0840
   13.0166   13.0840   13.2206   13.2531   13.1457   13.0273
   12.9800   13.0273   13.1457   13.2531   13.2206   13.0840
   13.0166   13.0840   13.1322   13.2690   13.2866   13.1155
   13.1842   13.1040   13.1056   13.0151   13.1804   13.2679
   13.1849   13.0840   13.2206   13.2690   13.4683   13.4011
   13.0946   12.8950   13.0703   13.1612   12.7439   12.9319
   13.1728   13.2679   13.2206   13.2531   13.2866   13.4011
   13.5613   13.3983   13.1651   13.0149   12.8860   12.5550
   12.5525   12.9319   13.1804   13.2531   13.1457   13.1155
   13.0946   13.3983   14.2335   14.1414   13.7538   13.2857
   12.7816   12.5550   12.7439   13.0151   13.1457   13.0273
   13.1842   12.8950   13.1651   14.1414   15.0506   14.7649
   14.0509   13.2857   12.8860   13.1612   13.1056   13.0273
   12.9800   13.1040   13.0703   13.0149   13.7538   14.7649
   15.1073   14.7649   13.7538   13.0149   13.0703   13.1040
   12.9800   13.0273   13.1056   13.1612   12.8860   13.2857
   14.0509   14.7649   15.0506   14.1414   13.1651   12.8950
   13.1842   13.0273   13.1457   13.0151   12.7439   12.5550
   12.7816   13.2857   13.7538   14.1414   14.2335   13.3983
   13.0946   13.1155   13.1457   13.2531   13.1804   12.9319
   12.5525   12.5550   12.8860   13.0149   13.1651   13.3983
   13.5613   13.4011   13.2866   13.2531   13.2206   13.2679
   13.1728   12.9319   12.7439   13.1612   13.0703   12.8950
   13.0946   13.4011   13.4683   13.2690   13.2206   13.0840
   13.1849   13.2679   13.1804   13.0151   13.1056   13.1040
   13.1842   13.1155   13.2866   13.2690   13.1322   13.0840
   13.0166   13.0840   13.2206   13.2531   13.1457   13.0273
   12.9800   13.0273   13.1457   13.2531   13.2206   13.0840
   13.0166
BAND:   4
   13.0166   13.0840   13.2206   13.2531   13.1457   14.0575
   14.9663   14.0575   13.1457   13.2531   13.2206   13.0840
   13.0166   13.0840   13.1322   13.2776   13.3680   13.3098
   13.1888   13.8628   13.7490   13.1989   13.3352   13.3502
   13.1980   13.0840   13.2206   13.2776   13.4683   13.6493
   13.6681   13.5667   13.4560   13.4055   13.4460   13.5760
   13.6359   13.3502   13.2206   13.2531   13.3680   13.6493
   13.9837   14.1467   14.0933   13.9724   13.8668   13.8106
   13.7745   13.5760   13.3352   13.2531   13.1457   13.3098
   13.6681   14.1467   14.5828   14.6502   14.5374   14.3787
   14.1532   13.8106   13.4460   13.1989   13.1457   14.0575
   13.1888   13.5667   14.0933   14.6502   15.0931   14.9736
   14.7774   14.3787   13.8668   13.4055   13.7490   14.0575
   14.9663   13.8628   13.4560   13.9724   14.5374   14.9736
   15.2996   14.9736   14.5374   13.9724   13.4560   13.8628
   14.9663   14.0575   13.7490   13.4055   13.8668   14.3787
   14.7774   14.9736   15.0931   14.6502   14.0933   13.5667
   13.1888   14.0575   13.1457   13.1989   13.4460   13.8106
   14.1532   14.3787   14.5374   14.6502   14.5828   14.1467
   13.6681   13.3098   13.1457   13.2531   13.3352   13.5760
   13.7745   13.8106   13.8668   13.9724   14.0933   14.1467
   13.9837   13.6493   13.3680   13.2531   13.2206   13.3502
   13.6359   13.5760   13.4460   13.4055   13.4560   13.5667
   13.6681   13.6493   13.4683   13.2776   13.2206   13.0840
   13.1980   13.3502   13.3352   13.1989   13.7490   13.8628
   13.1888   13.3098   13.3680   13.2776   13.1322   13.0840
   13.0166   13.0840   13.2206   13.2531   13.1457   14.0575
   14.9663   14.0575   13.1457   13.2531   13.2206   13.0840
   13.0166   13.0840   13.1322   13.2776   13.3680   13.3098
   13.1888   13.8628   13.7490   13.1989   13.3352   13.3502
   13.1980   13.0840   13.1322   13.0840   13.1980   13.3502
   13.3352   13.1989   13.7490   13.8628   13.1888   13.3098
   13.3680   13.2776   13.1322   13.2776   13.1980   13.2776
   13.4836   13.5949   13.4909   13.3772   13.3389   13.3772
   13.4909   13.5949   13.4836   13.2776   13.3680   13.3502
   13.4836   13.6493   13.9860   13.9933   13.8551   13.7289
   13.7108   13.8095   13.9340   13.5949   13.3680   13.3098
   13.3352   13.5949   13.9860   14.1467   14.5804   14.4482
   14.2382   14.0847   14.0132   13.8095   13.4909   13.3098
   13.1888   13.1989   13.4909   13.9933   14.5804   14.6502
   14.9172   14.6769   14.4006   14.0847   13.7108   13.3772
   13.1888   13.8628   13.7490   13.3772   13.8551   14.4482
   14.9172   14.9736   14.9272   14.6769   14.2382   13.7289
   13.3389   13.8628   13.7490   13.8628   13.3389   13.7289
   14.2382   14.6769   14.9272   14.9736   14.9172   14.4482
   13.8551   13.3772   13.7490   13.1989   13.1888   13.3772
   13.7108   14.0847   14.4006   14.6769   14.9172   14.6502
   14.5804   13.9933   13.4909   13.1989   13.3352   13.3098
   13.4909   13.8095   14.0132   14.0847   14.2382   14.4482
   14.5804   14.1467   13.9860   13.5949   13.3352   13.3502
   13.3680   13.5949   13.9340   13.8095   13.7108   13.7289
   13.8551   13.9933   13.9860   13.6493   13.4836   13.3502
   13.1980   13.2776   13.4836   13.5949   13.4909   13.3772
   13.3389   13.3772   13.4909   13.5949   13.4836   13.2776
   13.1980   13.0840   13.1322   13.2776   13.3680   13.3098
   13.1888   13.8628   13.7490   13.1989   13.3352   13.3502
   13.1980   13.0840   13.2206   13.2776   13.4683   13.6493
   13.6681   13.5667   13.4560   13.4055   13.4460   13.5760
   13.6359   13.3502   13.2206   13.2776   13.1980   13.2776
   13.4836   13.5949   13.4909   13.3772   13.3389   13.3772
   13.4909   13.5949   13.4836   13.2776   13.4683   13.2776
   13.2206   13.3502   13.6359   13.5760   13.4460   13.4055
   13.4560   13.5667   13.6681   13.6493   13.4683   13.6493
   13.4836   13.3502   13.3680   13.5949   13.9340   13.8095
   13.7108   13.7289   13.8551   13.9933   13.9860   13.6493
   13.6681   13.5949   13.6359   13.5949   13.6681   13.9933
   14.3162   14.1475   14.0387   14.1475   14.3162   13.9933
   13.6681   13.5667   13.4909   13.5760   13.9340   13.9933
   14.0933   14.4482   14.4953   14.2649   14.1803   14.1475
   13.8551   13.5667   13.4560   13.3772   13.4460   13.8095
   14.3162   14.4482   14.5374   14.6769   14.4843   14.2649
   14.0387   13.7289   13.4560   13.4055   13.3389   13.4055
   13.7108   14.1475   14.4953   14.6769   14.7774   14.6769
   14.4953   14.1475   13.7108   13.4055   13.4460   13.3772
   13.4560   13.7289   14.0387   14.2649   14.4843   14.6769
   14.5374   14.4482   14.3162   13.8095   13.4460   13.5760
   13.4909   13.5667   13.8551   14.1475   14.1803   14.2649
   14.4953   14.4482   14.0933   13.9933   13.9340   13.5760
   13.6359   13.5949   13.6681   13.9933   14.3162   14.1475
   14.0387   14.1475   14.3162   13.9933   13.6681   13.5949
   13.6359   13.3502   13.4836   13.6493   13.9860   13.9933
   13.8551   13.7289   13.7108   13.8095   13.9340   13.5949
   13.3680   13.3502   13.2206   13.2776   13.4683   13.6493
   13.6681   13.5667   13.4560   13.4055   13.4460   13.5760
   13.6359   13.3502   13.2206   13.2531   13.3680   13.6493
   13.9837   14.1467   14.0933   13.9724   13.8668   13.8106
   13.7745   13.5760   13.3352   13.2531   13.3680   13.3502
   13.4836   13.6493   13.9860   13.9933   13.8551   13.7289
   13.7108   13.8095   13.9340   13.5949   13.3680   13.6493
   13.4836   13.3502   13.3680   13.5949   13.9340   13.8095
   13.7108   13.7289   13.8551   13.9933   13.9860   13.6493
   13.9837   13.6493   13.3680   13.2531   13.3352   13.5760
   13.7745   13.8106   13.8668   13.9724   14.0933   14.1467
   13.9837   14.1467   13.9860   13.5949   13.3352   13.3098
   13.4909   13.8095   14.0132   14.0847   14.2382   14.4482
   14.5804   14.1467   14.0933   13.9933   13.9340   13.5760
   13.4909   13.5667   13.8551   14.1475   14.1803   14.2649
   14.4953   14.4482   14.0933   13.9724   13.8551   13.8095
   13.7745   13.8095   13.8551   13.9724   14.2382   14.2649
   14.1950   14.2649   14.2382   13.9724   13.8668   13.7289
   13.7108   13.8106   14.0132   14.1475   14.2382   14.3787
   14.4006   14.2649   14.1803   14.0847   13.8668   13.8106
   13.7108   13.7289   13.8668   14.0847   14.1803   14.2649
   14.4006   14.3787   14.2382   14.1475   14.0132   13.8106
   13.7745   13.8095   13.8551   13.9724   14.2382   14.2649
   14.1950   14.2649   14.2382   13.9724   13.8551   13.8095
   13.7745   13.5760   13.9340   13.9933   14.0933   14.4482
   14.4953   14.2649   14.1803   14.1475   13.8551   13.5667
   13.4909   13.5760   13.3352   13.5949   13.9860   14.1467
   14.5804   14.4482   14.2382   14.0847   14.0132   13.8095
   13.4909   13.3098   13.3352   13.2531   13.3680   13.6493
   13.9837   14.1467   14.0933   13.9724   13.8668   13.8106
   13.7745   13.5760   13.3352   13.2531   13.1457   13.3098
   13.6681   14.1467   14.5828   14.6502   14.5374   14.3787
   14.1532   13.8106   13.4460   13.1989   13.1457   13.3098
   13.3352   13.5949   13.9860   14.1467   14.5804   14.4482
   14.2382   14.0847   14.0132   13.8095   13.4909   13.3098