 BEGIN_INFO
   #
   # this is a Band-XCRYSDEN-Structure-File
   # aimed at Visualization of Fermi Surface
   #
   # Case:   ni                                                                              
   #
 Fermi Energy:         15.2788
 END_INFO
 BEGIN_BLOCK_BANDGRID_3D
 band_energies
 BANDGRID_3D_BANDS
    4
   17   17   17
  0.000000  0.000000  0.000000
 -1.000000 -1.000000  1.000000
  1.000000  1.000000  1.000000
 -1.000000  1.000000 -1.000000
BAND:   3
   12.5900   12.6283   12.7247   12.8195   12.8373   12.7737
   12.6844   12.6150   12.5893   12.6150   12.6844   12.7737
   12.8373   12.8195   12.7247   12.6283   12.5900   12.6283
   12.6542   12.7405   12.8405   12.8590   12.7724   12.6890
   12.7055   12.6581   12.6595   12.7111   12.7118   12.8076
   12.8488   12.7973   12.6833   12.6283   12.7247   12.7405
   12.8434   12.9563   12.9222   12.7566   12.5940   12.6885
   12.8585   12.8340   12.8601   12.5408   12.6913   12.8130
   12.8546   12.7973   12.7247   12.8195   12.8405   12.9563
   13.1459   13.0579   12.8257   12.6189   12.5216   12.6267
   12.7319   12.5859   12.2695   12.4782   12.6774   12.8130
   12.8488   12.8195   12.8373   12.8590   12.9222   13.0579
   13.2209   13.1148   12.9328   12.7715   12.6628   12.5731
   12.3984   12.0953   12.2094   12.4782   12.6913   12.8076
   12.8373   12.7737   12.7724   12.7566   12.8257   13.1148
   13.6625   13.6451   13.4235   13.1642   12.8741   12.5468
   12.2201   12.0953   12.2695   12.5408   12.7118   12.7737
   12.6844   12.6890   12.5940   12.6189   12.9328   13.6451
   14.3913   14.2385   13.8813   13.4443   12.9691   12.5468
   12.3984   12.5859   12.8601   12.7111   12.6844   12.6150
   12.7055   12.6885   12.5216   12.7715   13.4235   14.2385
   14.6535   14.5335   14.0484   13.4443   12.8741   12.5731
   12.7319   12.8340   12.6595   12.6150   12.5893   12.6581
   12.8585   12.6267   12.6628   13.1642   13.8813   14.5335
   14.6850   14.5335   13.8813   13.1642   12.6628   12.6267
   12.8585   12.6581   12.5893   12.6150   12.6595   12.8340
   12.7319   12.5731   12.8741   13.4443   14.0484   14.5335
   14.6535   14.2385   13.4235   12.7715   12.5216   12.6885
   12.7055   12.6150   12.6844   12.7111   12.8601   12.5859
   12.3984   12.5468   12.9691   13.4443   13.8813   14.2385
   14.3913   13.6451   12.9328   12.6189   12.5940   12.6890
   12.6844   12.7737   12.7118   12.5408   12.2695   12.0953
   12.2201   12.5468   12.8741   13.1642   13.4235   13.6451
   13.6625   13.1148   12.8257   12.7566   12.7724   12.7737
   12.8373   12.8076   12.6913   12.4782   12.2094   12.0953
   12.3984   12.5731   12.6628   12.7715   12.9328   13.1148
   13.2209   13.0579   12.9222   12.8590   12.8373   12.8195
   12.8488   12.8130   12.6774   12.4782   12.2695   12.5859
   12.7319   12.6267   12.5216   12.6189   12.8257   13.0579
   13.1459   12.9563   12.8405   12.8195   12.7247   12.7973
   12.8546   12.8130   12.6913   12.5408   12.8601   12.8340
   12.8585   12.6885   12.5940   12.7566   12.9222   12.9563
   12.8434   12.7405   12.7247   12.6283   12.6833   12.7973
   12.8488   12.8076   12.7118   12.7111   12.6595   12.6581
   12.7055   12.6890   12.7724   12.8590   12.8405   12.7405
   12.6542   12.6283   12.5900   12.6283   12.7247   12.8195
   12.8373   12.7737   12.6844   12.6150   12.5893   12.6150
   12.6844   12.7737   12.8373   12.8195   12.7247   12.6283
   12.5900   12.6283   12.6542   12.7405   12.8405   12.8590
   12.7724   12.6890   12.7055   12.6581   12.6595   12.7111
   12.7118   12.8076   12.8488   12.7973   12.6833   12.6283
   12.6542   12.6283   12.6833   12.7973   12.8488   12.8076
   12.7118   12.7111   12.6595   12.6581   12.7055   12.6890
   12.7724   12.8590   12.8405   12.7405   12.6542   12.7405
   12.6833   12.7405   12.8437   12.8827   12.8045   12.6608
   12.6172   12.8014   12.7788   12.8014   12.6172   12.6608
   12.8045   12.8827   12.8437   12.7405   12.8405   12.7973
   12.8437   12.9563   12.9757   12.8230   12.6181   12.4623
   12.5801   12.8332   12.7901   12.4367   12.4530   12.6465
   12.8114   12.8827   12.8405   12.8590   12.8488   12.8827
   12.9757   13.0579   12.9337   12.7308   12.5466   12.4664
   12.5143   12.4936   12.2479   12.1726   12.4182   12.6465
   12.8045   12.8590   12.7724   12.8076   12.8045   12.8230
   12.9337   13.1148   13.1234   12.9857   12.8181   12.6537
   12.4641   12.1931   11.9243   12.1726   12.4530   12.6608
   12.7724   12.6890   12.7118   12.6608   12.6181   12.7308
   13.1234   13.6451   13.6846   13.4765   13.1825   12.8273
   12.4466   12.1931   12.2479   12.4367   12.6172   12.6890
   12.7055   12.7111   12.6172   12.4623   12.5466   12.9857
   13.6846   14.2385   14.1503   13.8151   13.3390   12.8273
   12.4641   12.4936   12.7901   12.8014   12.7055   12.6581
   12.6595   12.8014   12.5801   12.4664   12.8181   13.4765
   14.1503   14.5335   14.3378   13.8151   13.1825   12.6537
   12.5143   12.8332   12.7788   12.6581   12.6595   12.6581
   12.7788   12.8332   12.5143   12.6537   13.1825   13.8151
   14.3378   14.5335   14.1503   13.4765   12.8181   12.4664
   12.5801   12.8014   12.6595   12.7111   12.7055   12.8014
   12.7901   12.4936   12.4641   12.8273   13.3390   13.8151
   14.1503   14.2385   13.6846   12.9857   12.5466   12.4623
   12.6172   12.7111   12.7118   12.6890   12.6172   12.4367
   12.2479   12.1931   12.4466   12.8273   13.1825   13.4765
   13.6846   13.6451   13.1234   12.7308   12.6181   12.6608
   12.7118   12.8076   12.7724   12.6608   12.4530   12.1726
   11.9243   12.1931   12.4641   12.6537   12.8181   12.9857
   13.1234   13.1148   12.9337   12.8230   12.8045   12.8076
   12.8488   12.8590   12.8045   12.6465   12.4182   12.1726
   12.2479   12.4936   12.5143   12.4664   12.5466   12.7308
   12.9337   13.0579   12.9757   12.8827   12.8488   12.7973
   12.8405   12.8827   12.8114   12.6465   12.4530   12.4367
   12.7901   12.8332   12.5801   12.4623   12.6181   12.8230
   12.9757   12.9563   12.8437   12.7973   12.6833   12.7405
   12.8437   12.8827   12.8045   12.6608   12.6172   12.8014
   12.7788   12.8014   12.6172   12.6608   12.8045   12.8827
   12.8437   12.7405   12.6833   12.6283   12.6542   12.7405
   12.8405   12.8590   12.7724   12.6890   12.7055   12.6581
   12.6595   12.7111   12.7118   12.8076   12.8488   12.7973
   12.6833   12.6283   12.7247   12.7405   12.8434   12.9563
   12.9222   12.7566   12.5940   12.6885   12.8585   12.8340
   12.8601   12.5408   12.6913   12.8130   12.8546   12.7973
   12.7247   12.7405   12.6833   12.7405   12.8437   12.8827
   12.8045   12.6608   12.6172   12.8014   12.7788   12.8014
   12.6172   12.6608   12.8045   12.8827   12.8437   12.7405
   12.8434   12.7405   12.7247   12.7973   12.8546   12.8130
   12.6913   12.5408   12.8601   12.8340   12.8585   12.6885
   12.5940   12.7566   12.9222   12.9563   12.8434   12.9563
   12.8437   12.7973   12.8405   12.8827   12.8114   12.6465
   12.4530   12.4367   12.7901   12.8332   12.5801   12.4623
   12.6181   12.8230   12.9757   12.9563   12.9222   12.8827
   12.8546   12.8827   12.9222   12.8230   12.6229   12.3947
   12.2370   12.3793   12.5154   12.3793   12.2370   12.3947
   12.6229   12.8230   12.9222   12.7566   12.8045   12.8130
   12.8114   12.8230   12.8257   12.7308   12.5545   12.3742
   12.2856   12.2897   12.1824   11.9663   12.1294   12.3947
   12.6181   12.7566   12.5940   12.6608   12.6913   12.6465
   12.6229   12.7308   12.9328   12.9857   12.8665   12.6836
   12.4737   12.2157   11.9190   11.9663   12.2370   12.4623
   12.5940   12.6885   12.6172   12.5408   12.4530   12.3947
   12.5545   12.9857   13.4235   13.4765   13.2791   12.9630
   12.5723   12.2157   12.1824   12.3793   12.5801   12.6885
   12.8585   12.8014   12.8601   12.4367   12.2370   12.3742
   12.8665   13.4765   13.8813   13.8151   13.4617   12.9630
   12.4737   12.2897   12.5154   12.8332   12.8585   12.8340
   12.7788   12.8340   12.7901   12.3793   12.2856   12.6836
   13.2791   13.8151   14.0484   13.8151   13.2791   12.6836
   12.2856   12.3793   12.7901   12.8340   12.8601   12.8014
   12.8585   12.8332   12.5154   12.2897   12.4737   12.9630
   13.4617   13.8151   13.8813   13.4765   12.8665   12.3742
   12.2370   12.4367   12.8601   12.5408   12.6172   12.6885
   12.5801   12.3793   12.1824   12.2157   12.5723   12.9630
   13.2791   13.4765   13.4235   12.9857   12.5545   12.3947
   12.4530   12.5408   12.6913   12.6608   12.5940   12.4623
   12.2370   11.9663   11.9190   12.2157   12.4737   12.6836
   12.8665   12.9857   12.9328   12.7308   12.6229   12.6465
   12.6913   12.8130   12.8045   12.7566   12.6181   12.3947
   12.1294   11.9663   12.1824   12.2897   12.2856   12.3742
   12.5545   12.7308   12.8257   12.8230   12.8114   12.8130
   12.8546   12.8827   12.9222   12.8230   12.6229   12.3947
   12.2370   12.3793   12.5154   12.3793   12.2370   12.3947
   12.6229   12.8230   12.9222   12.8827   12.8546   12.7973
   12.8437   12.9563   12.9757   12.8230   12.6181   12.4623
   12.5801   12.8332   12.7901   12.4367   12.4530   12.6465
   12.8114   12.8827   12.8405   12.7973   12.7247   12.7405
   12.8434   12.9563   12.9222   12.7566   12.5940   12.6885
   12.8585   12.8340   12.8601   12.5408   12.6913   12.8130
   12.8546   12.7973   12.7247   12.8195   12.8405   12.9563
   13.1459   13.0579   12.8257   12.6189   12.5216   12.6267
   12.7319   12.5859   12.2695   12.4782   12.6774   12.8130
   12.8488   12.8195   12.8405   12.7973   12.8437   12.9563
   12.9757   12.8230   12.6181   12.4623   12.5801   12.8332
   12.7901   12.4367   12.4530   12.6465   12.8114   12.8827
   12.8405   12.9563   12.8437   12.7973   12.8405   12.8827
   12.8114   12.6465   12.4530   12.4367   12.7901   12.8332
   12.5801   12.4623   12.6181   12.8230   12.9757   12.9563
   13.1459   12.9563   12.8405   12.8195   12.8488   12.8130
   12.6774   12.4782   12.2695   12.5859   12.7319   12.6267
   12.5216   12.6189   12.8257   13.0579   13.1459   13.0579
   12.9757   12.8827   12.8488   12.8590   12.8045   12.6465
   12.4182   12.1726   12.2479   12.4936   12.5143   12.4664
   12.5466   12.7308   12.9337   13.0579   12.8257   12.8230
   12.8114   12.8130   12.8045   12.7566   12.6181   12.3947
   12.1294   11.9663   12.1824   12.2897   12.2856   12.3742
   12.5545   12.7308   12.8257   12.6189   12.6181   12.6465
   12.6774   12.6465   12.6181   12.6189   12.5466   12.3742
   12.1714   12.0509   12.0517   12.0509   12.1714   12.3742
   12.5466   12.6189   12.5216   12.4623   12.4530   12.4782
   12.4182   12.3947   12.5466   12.7715   12.8181   12.6836
   12.4670   12.2034   11.8991   12.0509   12.2856   12.4664
   12.5216   12.6267   12.5801   12.4367   12.2695   12.1726
   12.1294   12.3742   12.8181   13.1642   13.1825   12.9630
   12.6102   12.2034   12.0517   12.2897   12.5143   12.6267
   12.7319   12.8332   12.7901   12.5859   12.2479   11.9663
   12.1714   12.6836   13.1825   13.4443   13.3390   12.9630
   12.4670   12.0509   12.1824   12.4936   12.7319   12.5859
   12.7901   12.8332   12.7319   12.4936   12.1824   12.0509
   12.4670   12.9630   13.3390   13.4443   13.1825   12.6836
   12.1714   11.9663   12.2479   12.5859   12.2695   12.4367
   12.5801   12.6267   12.5143   12.2897   12.0517   12.2034
   12.6102   12.9630   13.1825   13.1642   12.8181   12.3742
   12.1294   12.1726   12.2695   12.4782   12.4530   12.4623
   12.5216   12.4664   12.2856   12.0509   11.8991   12.2034
   12.4670   12.6836   12.8181   12.7715   12.5466   12.3947
   12.4182   12.4782   12.6774   12.6465   12.6181   12.6189
   12.5466   12.3742   12.1714   12.0509   12.0517   12.0509
   12.1714   12.3742   12.5466   12.6189   12.6181   12.6465
   12.6774   12.8130   12.8114   12.8230   12.8257   12.7308
   12.5545   12.3742   12.2856   12.2897   12.1824   11.9663
   12.1294   12.3947   12.6181   12.7566   12.8045   12.8130
   12.8488   12.8827   12.9757   13.0579   12.9337   12.7308
   12.5466   12.4664   12.5143   12.4936   12.2479   12.1726
   12.4182   12.6465   12.8045   12.8590   12.8488   12.8195
   12.8405   12.9563   13.1459   13.0579   12.8257   12.6189
   12.5216   12.6267   12.7319   12.5859   12.2695   12.4782
   12.6774   12.8130   12.8488   12.8195   12.8373   12.8590
   12.9222   13.0579   13.2209   13.1148   12.9328   12.7715
   12.6628   12.5731   12.3984   12.0953   12.2094   12.4782
   12.6913   12.8076   12.8373   12.8590   12.8488   12.8827
   12.9757   13.0579   12.9337   12.7308   12.5466   12.4664
   12.5143   12.4936   12.2479   12.1726   12.4182   12.6465
   12.8045   12.8590   12.9222   12.8827   12.8546   12.8827
   12.9222   12.8230   12.6229   12.3947   12.2370   12.3793
   12.5154   12.3793   12.2370   12.3947   12.6229   12.8230
   12.9222   13.0579   12.9757   12.8827   12.8488   12.8590
   12.8045   12.6465   12.4182   12.1726   12.2479   12.4936
   12.5143   12.4664   12.5466   12.7308   12.9337   13.0579
   13.2209   13.0579   12.9222   12.8590   12.8373   12.8076
   12.6913   12.4782   12.2094   12.0953   12.3984   12.5731
   12.6628   12.7715   12.9328   13.1148   13.2209   13.1148
   12.9337   12.8230   12.8045   12.8076   12.7724   12.6608
   12.4530   12.1726   11.9243   12.1931   12.4641   12.6537
   12.8181   12.9857   13.1234   13.1148   12.9328   12.7308
   12.6229   12.6465   12.6913   12.6608   12.5940   12.4623
   12.2370   11.9663   11.9190   12.2157   12.4737   12.6836
   12.8665   12.9857   12.9328   12.7715   12.5466   12.3947
   12.4182   12.4782   12.4530   12.4623   12.5216   12.4664
   12.2856   12.0509   11.8991   12.2034   12.4670   12.6836
   12.8181   12.7715   12.6628   12.4664   12.2370   12.1726
   12.2094   12.1726   12.2370   12.4664   12.6628   12.6537
   12.4737   12.2034   11.8891   12.2034   12.4737   12.6537
   12.6628   12.5731   12.5143   12.3793   12.2479   12.0953
   11.9243   11.9663   12.2856   12.6537   12.8741   12.8273
   12.5723   12.2034   11.8991   12.2157   12.4641   12.5731
   12.3984   12.4936   12.5154   12.4936   12.3984   12.1931
   11.9190   12.0509   12.4737   12.8273   12.9691   12.8273
   12.4737   12.0509   11.9190   12.1931   12.3984   12.0953
   12.2479   12.3793   12.5143   12.5731   12.4641   12.2157
   11.8991   12.2034   12.5723   12.8273   12.8741   12.6537
   12.2856   11.9663   11.9243   12.0953   12.2094   12.1726
   12.2370   12.4664   12.6628   12.6537   12.4737   12.2034
   11.8891   12.2034   12.4737   12.6537   12.6628   12.4664
   12.2370   12.1726   12.2094   12.4782   12.4182   12.3947
   12.5466   12.7715   12.8181   12.6836   12.4670   12.2034
   11.8991   12.0509   12.2856   12.4664   12.5216   12.4623
   12.4530   12.4782   12.6913   12.6465   12.6229   12.7308
   12.9328   12.9857   12.8665   12.6836   12.4737   12.2157
   11.9190   11.9663   12.2370   12.4623   12.5940   12.6608
   12.6913   12.8076   12.8045   12.8230   12.9337   13.1148
   13.1234   12.9857   12.8181   12.6537   12.4641   12.1931
   11.9243   12.1726   12.4530   12.6608   12.7724   12.8076
   12.8373   12.8590   12.9222   13.0579   13.2209   13.1148
   12.9328   12.7715   12.6628   12.5731   12.3984   12.0953
   12.2094   12.4782   12.6913   12.8076   12.8373   12.7737
   12.7724   12.7566   12.8257   13.1148   13.6625   13.6451
   13.4235   13.1642   12.8741   12.5468   12.2201   12.0953
   12.2695   12.5408   12.7118   12.7737   12.7724   12.8076
   12.8045   12.8230   12.9337   13.1148   13.1234   12.9857
   12.8181   12.6537   12.4641   12.1931   11.9243   12.1726
   12.4530   12.6608   12.7724   12.7566   12.8045   12.8130
   12.8114   12.8230   12.8257   12.7308   12.5545   12.3742
   12.2856   12.2897   12.1824   11.9663   12.1294   12.3947
   12.6181   12.7566   12.8257   12.8230   12.8114   12.8130
   12.8045   12.7566   12.6181   12.3947   12.1294   11.9663
   12.1824   12.2897   12.2856   12.3742   12.5545   12.7308
   12.8257   13.1148   12.9337   12.8230   12.8045   12.8076
   12.7724   12.6608   12.4530   12.1726   11.9243   12.1931
   12.4641   12.6537   12.8181   12.9857   13.1234   13.1148
   13.6625   13.1148   12.8257   12.7566   12.7724   12.7737
   12.7118   12.5408   12.2695   12.0953   12.2201   12.5468
   12.8741   13.1642   13.4235   13.6451   13.6625   13.6451
   13.1234   12.7308   12.6181   12.6608   12.7118   12.6890
   12.6172   12.4367   12.2479   12.1931   12.4466   12.8273
   13.1825   13.4765   13.6846   13.6451   13.4235   12.9857
   12.5545   12.3947   12.4530   12.5408   12.6172   12.6885
   12.5801   12.3793   12.1824   12.2157   12.5723   12.9630
   13.2791   13.4765   13.4235   13.1642   12.8181   12.3742
   12.1294   12.1726   12.2695   12.4367   12.5801   12.6267
   12.5143   12.2897   12.0517   12.2034   12.6102   12.9630
   13.1825   13.1642   12.8741   12.6537   12.2856   11.9663
   11.9243   12.0953   12.2479   12.3793   12.5143   12.5731
   12.4641   12.2157   11.8991   12.2034   12.5723   12.8273
   12.8741   12.5468   12.4641   12.2897   12.1824   12.1931
   12.2201   12.1931   12.1824   12.2897   12.4641   12.5468
   12.4466   12.2157   12.0517   12.2157   12.4466   12.5468
   12.2201   12.1931   12.1824   12.2897   12.4641   12.5468
   12.4466   12.2157   12.0517   12.2157   12.4466   12.5468
   12.4641   12.2897   12.1824   12.1931   12.2201   12.0953
   11.9243   11.9663   12.2856   12.6537   12.8741   12.8273
   12.5723   12.2034   11.8991   12.2157   12.4641   12.5731
   12.5143   12.3793   12.2479   12.0953   12.2695   12.1726
   12.1294   12.3742   12.8181   13.1642   13.1825   12.9630
   12.6102   12.2034   12.0517   12.2897   12.5143   12.6267
   12.5801   12.4367   12.2695   12.5408   12.4530   12.3947
   12.5545   12.9857   13.4235   13.4765   13.2791   12.9630
   12.5723   12.2157   12.1824   12.3793   12.5801   12.6885
   12.6172   12.5408   12.7118   12.6608   12.6181   12.7308
   13.1234   13.6451   13.6846   13.4765   13.1825   12.8273
   12.4466   12.1931   12.2479   12.4367   12.6172   12.6890
   12.7118   12.7737   12.7724   12.7566   12.8257   13.1148
   13.6625   13.6451   13.4235   13.1642   12.8741   12.5468
   12.2201   12.0953   12.2695   12.5408   12.7118   12.7737
   12.6844   12.6890   12.5940   12.6189   12.9328   13.6451
   14.3913   14.2385   13.8813   13.4443   12.9691   12.5468
   12.3984   12.5859   12.8601   12.7111   12.6844   12.6890
   12.7118   12.6608   12.6181   12.7308   13.1234   13.6451
   13.6846   13.4765   13.1825   12.8273   12.4466   12.1931
   12.2479   12.4367   12.6172   12.6890   12.5940   12.6608
   12.6913   12.6465   12.6229   12.7308   12.9328   12.9857
   12.8665   12.6836   12.4737   12.2157   11.9190   11.9663
   12.2370   12.4623   12.5940   12.6189   12.6181   12.6465
   12.6774   12.6465   12.6181   12.6189   12.5466   12.3742
   12.1714   12.0509   12.0517   12.0509   12.1714   12.3742
   12.5466   12.6189   12.9328   12.7308   12.6229   12.6465
   12.6913   12.6608   12.5940   12.4623   12.2370   11.9663
   11.9190   12.2157   12.4737   12.6836   12.8665   12.9857
   12.9328   13.6451   13.1234   12.7308   12.6181   12.6608
   12.7118   12.6890   12.6172   12.4367   12.2479   12.1931
   12.4466   12.8273   13.1825   13.4765   13.6846   13.6451
   14.3913   13.6451   12.9328   12.6189   12.5940   12.6890
   12.6844   12.7111   12.8601   12.5859   12.3984   12.5468
   12.9691   13.4443   13.8813   14.2385   14.3913   14.2385
   13.6846   12.9857   12.5466   12.4623   12.6172   12.7111
   12.7055   12.8014   12.7901   12.4936   12.4641   12.8273
   13.3390   13.8151   14.1503   14.2385   13.8813   13.4765
   12.8665   12.3742   12.2370   12.4367   12.8601   12.8014
   12.8585   12.8332   12.5154   12.2897   12.4737   12.9630
   13.4617   13.8151   13.8813   13.4443   13.1825   12.6836
   12.1714   11.9663   12.2479   12.5859   12.7901   12.8332
   12.7319   12.4936   12.1824   12.0509   12.4670   12.9630
   13.3390   13.4443   12.9691   12.8273   12.4737   12.0509
   11.9190   12.1931   12.3984   12.4936   12.5154   12.4936
   12.3984   12.1931   11.9190   12.0509   12.4737   12.8273
   12.9691   12.5468   12.4466   12.2157   12.0517   12.2157
   12.4466   12.5468   12.4641   12.2897   12.1824   12.1931
   12.2201   12.1931   12.1824   12.2897   12.4641   12.5468
   12.3984   12.1931   11.9190   12.0509   12.4737   12.8273
   12.9691   12.8273   12.4737   12.0509   11.9190   12.1931
   12.3984   12.4936   12.5154   12.4936   12.3984   12.5859
   12.2479   11.9663   12.1714   12.6836   13.1825   13.4443
   13.3390   12.9630   12.4670   12.0509   12.1824   12.4936
   12.7319   12.8332   12.7901   12.5859   12.8601   12.4367
   12.2370   12.3742   12.8665   13.4765   13.8813   13.8151
   13.4617   12.9630   12.4737   12.2897   12.5154   12.8332
   12.8585   12.8014   12.8601   12.7111   12.6172   12.4623
   12.5466   12.9857   13.6846   14.2385   14.1503   13.8151
   13.3390   12.8273   12.4641   12.4936   12.7901   12.8014
   12.7055   12.7111   12.6844   12.6890   12.5940   12.6189
   12.9328   13.6451   14.3913   14.2385   13.8813   13.4443
   12.9691   12.5468   12.3984   12.5859   12.8601   12.7111
   12.6844   12.6150   12.7055   12.6885   12.5216   12.7715
   13.4235   14.2385   14.6535   14.5335   14.0484   13.4443
   12.8741   12.5731   12.7319   12.8340   12.6595   12.6150
   12.7055   12.7111   12.6172   12.4623   12.5466   12.9857
   13.6846   14.2385   14.1503   13.8151   13.3390   12.8273
   12.4641   12.4936   12.7901   12.8014   12.7055   12.6885
   12.6172   12.5408   12.4530   12.3947   12.5545   12.9857
   13.4235   13.4765   13.2791   12.9630   12.5723   12.2157
   12.1824   12.3793   12.5801   12.6885   12.5216   12.4623
   12.4530   12.4782   12.4182   12.3947   12.5466   12.7715
   12.8181   12.6836   12.4670   12.2034   11.8991   12.0509
   12.2856   12.4664   12.5216   12.7715   12.5466   12.3947
   12.4182   12.4782   12.4530   12.4623   12.5216   12.4664
   12.2856   12.0509   11.8991   12.2034   12.4670   12.6836
   12.8181   12.7715   13.4235   12.9857   12.5545   12.3947
   12.4530   12.5408   12.6172   12.6885   12.5801   12.3793
   12.1824   12.2157   12.5723   12.9630   13.2791   13.4765
   13.4235   14.2385   13.6846   12.9857   12.5466   12.4623
   12.6172   12.7111   12.7055   12.8014   12.7901   12.4936
   12.4641   12.8273   13.3390   13.8151   14.1503   14.2385
   14.6535   14.2385   13.4235   12.7715   12.5216   12.6885
   12.7055   12.6150   12.6595   12.8340   12.7319   12.5731
   12.8741   13.4443   14.0484   14.5335   14.6535   14.5335
   14.1503   13.4765   12.8181   12.4664   12.5801   12.8014
   12.6595   12.6581   12.7788   12.8332   12.5143   12.6537
   13.1825   13.8151   14.3378   14.5335   14.0484   13.8151
   13.2791   12.6836   12.2856   12.3793   12.7901   12.8340
   12.7788   12.8340   12.7901   12.3793   12.2856   12.6836
   13.2791   13.8151   14.0484   13.4443   13.3390   12.9630
   12.4670   12.0509   12.1824   12.4936   12.7319   12.8332
   12.7901   12.5859   12.2479   11.9663   12.1714   12.6836
   13.1825   13.4443   12.8741   12.8273   12.5723   12.2034
   11.8991   12.2157   12.4641   12.5731   12.5143   12.3793
   12.2479   12.0953   11.9243   11.9663   12.2856   12.6537
   12.8741   12.5731   12.4641   12.2157   11.8991   12.2034
   12.5723   12.8273   12.8741   12.6537   12.2856   11.9663
   11.9243   12.0953   12.2479   12.3793   12.5143   12.5731
   12.7319   12.4936   12.1824   12.0509   12.4670   12.9630
   13.3390   13.4443   13.1825   12.6836   12.1714   11.9663
   12.2479   12.5859   12.7901   12.8332   12.7319   12.8340
   12.7901   12.3793   12.2856   12.6836   13.2791   13.8151
   14.0484   13.8151   13.2791   12.6836   12.2856   12.3793
   12.7901   12.8340   12.7788   12.8340   12.6595   12.8014
   12.5801   12.4664   12.8181   13.4765   14.1503   14.5335
   14.3378   13.8151   13.1825   12.6537   12.5143   12.8332
   12.7788   12.6581   12.6595   12.6150   12.7055   12.6885
   12.5216   12.7715   13.4235   14.2385   14.6535   14.5335
   14.0484   13.4443   12.8741   12.5731   12.7319   12.8340
   12.6595   12.6150   12.5893   12.6581   12.8585   12.6267
   12.6628   13.1642   13.8813   14.5335   14.6850   14.5335
   13.8813   13.1642   12.6628   12.6267   12.8585   12.6581
   12.5893   12.6581   12.6595   12.8014   12.5801   12.4664
   12.8181   13.4765   14.1503   14.5335   14.3378   13.8151
   13.1825   12.6537   12.5143   12.8332   12.7788   12.6581
   12.8585   12.8014   12.8601   12.4367   12.2370   12.3742
   12.8665   13.4765   13.8813   13.8151   13.4617   12.9630
   12.4737   12.2897   12.5154   12.8332   12.8585   12.6267
   12.5801   12.4367   12.2695   12.1726   12.1294   12.3742
   12.8181   13.1642   13.1825   12.9630   12.6102   12.2034
   12.0517   12.2897   12.5143   12.6267   12.6628   12.4664
   12.2370   12.1726   12.2094   12.1726   12.2370   12.4664
   12.6628   12.6537   12.4737   12.2034   11.8891   12.2034
   12.4737   12.6537   12.6628   13.1642   12.8181   12.3742
   12.1294   12.1726   12.2695   12.4367   12.5801   12.6267
   12.5143   12.2897   12.0517   12.2034   12.6102   12.9630
   13.1825   13.1642   13.8813   13.4765   12.8665   12.3742
   12.2370   12.4367   12.8601   12.8014   12.8585   12.8332
   12.5154   12.2897   12.4737   12.9630   13.4617   13.8151
   13.8813   14.5335   14.1503   13.4765   12.8181   12.4664
   12.5801   12.8014   12.6595   12.6581   12.7788   12.8332
   12.5143   12.6537   13.1825   13.8151   14.3378   14.5335
   14.6850   14.5335   13.8813   13.1642   12.6628   12.6267
   12.8585   12.6581   12.5893   12.6581   12.8585   12.6267
   12.6628   13.1642   13.8813   14.5335   14.6850   14.5335
   14.3378   13.8151   13.1825   12.6537   12.5143   12.8332
   12.7788   12.6581   12.6595   12.8014   12.5801   12.4664
   12.8181   13.4765   14.1503   14.5335   13.8813   13.8151
   13.4617   12.9630   12.4737   12.2897   12.5154   12.8332
   12.8585   12.8014   12.8601   12.4367   12.2370   12.3742
   12.8665   13.4765   13.8813   13.1642   13.1825   12.9630
   12.6102   12.2034   12.0517   12.2897   12.5143   12.6267
   12.5801   12.4367   12.2695   12.1726   12.1294   12.3742
   12.8181   13.1642   12.6628   12.6537   12.4737   12.2034
   11.8891   12.2034   12.4737   12.6537   12.6628   12.4664
   12.2370   12.1726   12.2094   12.1726   12.2370   12.4664
   12.6628   12.6267   12.5143   12.2897   12.0517   12.2034
   12.6102   12.9630   13.1825   13.1642   12.8181   12.3742
   12.1294   12.1726   12.2695   12.4367   12.5801   12.6267
   12.8585   12.8332   12.5154   12.2897   12.4737   12.9630
   13.4617   13.8151   13.8813   13.4765   12.8665   12.3742
   12.2370   12.4367   12.8601   12.8014   12.8585   12.6581
   12.7788   12.8332   12.5143   12.6537   13.1825   13.8151
   14.3378   14.5335   14.1503   13.4765   12.8181   12.4664
   12.5801   12.8014   12.6595   12.6581   12.5893   12.6581
   12.8585   12.6267   12.6628   13.1642   13.8813   14.5335
   14.6850   14.5335   13.8813   13.1642   12.6628   12.6267
   12.8585   12.6581   12.5893   12.6150   12.6595   12.8340
   12.7319   12.5731   12.8741   13.4443   14.0484   14.5335
   14.6535   14.2385   13.4235   12.7715   12.5216   12.6885
   12.7055   12.6150   12.6595   12.6581   12.7788   12.8332
   12.5143   12.6537   13.1825   13.8151   14.3378   14.5335
   14.1503   13.4765   12.8181   12.4664   12.5801   12.8014
   12.6595   12.8340   12.7788   12.8340   12.7901   12.3793
   12.2856   12.6836   13.2791   13.8151   14.0484   13.8151
   13.2791   12.6836   12.2856   12.3793   12.7901   12.8340
   12.7319   12.8332   12.7901   12.5859   12.2479   11.9663
   12.1714   12.6836   13.1825   13.4443   13.3390   12.9630
   12.4670   12.0509   12.1824   12.4936   12.7319   12.5731
   12.5143   12.3793   12.2479   12.0953   11.9243   11.9663
   12.2856   12.6537   12.8741   12.8273   12.5723   12.2034
   11.8991   12.2157   12.4641   12.5731   12.8741   12.6537
   12.2856   11.9663   11.9243   12.0953   12.2479   12.3793
   12.5143   12.5731   12.4641   12.2157   11.8991   12.2034
   12.5723   12.8273   12.8741   13.4443   13.1825   12.6836
   12.1714   11.9663   12.2479   12.5859   12.7901   12.8332
   12.7319   12.4936   12.1824   12.0509   12.4670   12.9630
   13.3390   13.4443   14.0484   13.8151   13.2791   12.6836
   12.2856   12.3793   12.7901   12.8340   12.7788   12.8340
   12.7901   12.3793   12.2856   12.6836   13.2791   13.8151
   14.0484   14.5335   14.3378   13.8151   13.1825   12.6537
   12.5143   12.8332   12.7788   12.6581   12.6595   12.8014
   12.5801   12.4664   12.8181   13.4765   14.1503   14.5335
   14.6535   14.5335   14.0484   13.4443   12.8741   12.5731
   12.7319   12.8340   12.6595   12.6150   12.7055   12.6885
   12.5216   12.7715   13.4235   14.2385   14.6535   14.2385
   14.1503   13.8151   13.3390   12.8273   12.4641   12.4936
   12.7901   12.8014   12.7055   12.7111   12.6172   12.4623
   12.5466   12.9857   13.6846   14.2385   13.4235   13.4765
   13.2791   12.9630   12.5723   12.2157   12.1824   12.3793
   12.5801   12.6885   12.6172   12.5408   12.4530   12.3947
   12.5545   12.9857   13.4235   12.7715   12.8181   12.6836
   12.4670   12.2034   11.8991   12.0509   12.2856   12.4664
   12.5216   12.4623   12.4530   12.4782   12.4182   12.3947
   12.5466   12.7715   12.5216   12.4664   12.2856   12.0509
   11.8991   12.2034   12.4670   12.6836   12.8181   12.7715
   12.5466   12.3947   12.4182   12.4782   12.4530   12.4623
   12.5216   12.6885   12.5801   12.3793   12.1824   12.2157
   12.5723   12.9630   13.2791   13.4765   13.4235   12.9857
   12.5545   12.3947   12.4530   12.5408   12.6172   12.6885
   12.7055   12.8014   12.7901   12.4936   12.4641   12.8273
   13.3390   13.8151   14.1503   14.2385   13.6846   12.9857
   12.5466   12.4623   12.6172   12.7111   12.7055   12.6150
   12.6595   12.8340   12.7319   12.5731   12.8741   13.4443
   14.0484   14.5335   14.6535   14.2385   13.4235   12.7715
   12.5216   12.6885   12.7055   12.6150   12.6844   12.7111
   12.8601   12.5859   12.3984   12.5468   12.9691   13.4443
   13.8813   14.2385   14.3913   13.6451   12.9328   12.6189