 BEGIN_INFO
   #
   # this is a Band-XCRYSDEN-Structure-File
   # aimed at Visualization of Fermi Surface
   #
   # Case:   ni                                                                              
   #
 Fermi Energy:         15.1159
 END_INFO
 BEGIN_BLOCK_BANDGRID_3D
 band_energies
 BANDGRID_3D_BANDS
    4
   13   13   13
  0.000000  0.000000  0.000000
 -1.000000 -1.000000  1.000000
  1.000000  1.000000  1.000000
 -1.000000  1.000000 -1.000000
BAND:   3
   13.0174   13.0848   13.2214   13.2539   13.1465   13.0281
   12.9807   13.0281   13.1465   13.2539   13.2214   13.0848
   13.0174   13.0848   13.1330   13.2698   13.2874   13.1163
   13.1846   13.1047   13.1064   13.0159   13.1811   13.2687
   13.1856   13.0848   13.2214   13.2698   13.4691   13.4018
   13.0954   12.8957   13.0709   13.1618   12.7446   12.9326
   13.1736   13.2687   13.2214   13.2539   13.2874   13.4018
   13.5620   13.3990   13.1657   13.0155   12.8867   12.5556
   12.5532   12.9326   13.1811   13.2539   13.1465   13.1163
   13.0954   13.3990   14.2339   14.1420   13.7544   13.2863
   12.7822   12.5556   12.7446   13.0159   13.1465   13.0281
   13.1846   12.8957   13.1657   14.1420   15.0515   14.7656
   14.0516   13.2863   12.8867   13.1618   13.1064   13.0281
   12.9807   13.1047   13.0709   13.0155   13.7544   14.7656
   15.1082   14.7656   13.7544   13.0155   13.0709   13.1047
   12.9807   13.0281   13.1064   13.1618   12.8867   13.2863
   14.0516   14.7656   15.0515   14.1420   13.1657   12.8957
   13.1846   13.0281   13.1465   13.0159   12.7446   12.5556
   12.7822   13.2863   13.7544   14.1420   14.2339   13.3990
   13.0954   13.1163   13.1465   13.2539   13.1811   12.9326
   12.5532   12.5556   12.8867   13.0155   13.1657   13.3990
   13.5620   13.4018   13.2874   13.2539   13.2214   13.2687
   13.1736   12.9326   12.7446   13.1618   13.0709   12.8957
   13.0954   13.4018   13.4691   13.2698   13.2214   13.0848
   13.1856   13.2687   13.1811   13.0159   13.1064   13.1047
   13.1846   13.1163   13.2874   13.2698   13.1330   13.0848
   13.0174   13.0848   13.2214   13.2539   13.1465   13.0281
   12.9807   13.0281   13.1465   13.2539   13.2214   13.0848
   13.0174   13.0848   13.1330   13.2698   13.2874   13.1163
   13.1846   13.1047   13.1064   13.0159   13.1811   13.2687
   13.1856   13.0848   13.1330   13.0848   13.1856   13.2687
   13.1811   13.0159   13.1064   13.1047   13.1846   13.1163
   13.2874   13.2698   13.1330   13.2698   13.1856   13.2698
   13.3249   13.1503   12.9045   13.0155   13.3168   13.0155
   12.9045   13.1503   13.3249   13.2698   13.2874   13.2687
   13.3249   13.4018   13.1984   12.9055   12.7453   12.8573
   12.7337   12.5357   12.8526   13.1503   13.2874   13.1163
   13.1811   13.1503   13.1984   13.3990   13.3944   13.1927
   12.9626   12.6631   12.2865   12.5357   12.9045   13.1163
   13.1846   13.0159   12.9045   12.9055   13.3944   14.1420
   14.1121   13.7011   13.1352   12.6631   12.7337   13.0155
   13.1846   13.1047   13.1064   13.0155   12.7453   13.1927
   14.1121   14.7656   14.4655   13.7011   12.9626   12.8573
   13.3168   13.1047   13.1064   13.1047   13.3168   12.8573
   12.9626   13.7011   14.4655   14.7656   14.1121   13.1927
   12.7453   13.0155   13.1064   13.0159   13.1846   13.0155
   12.7337   12.6631   13.1352   13.7011   14.1121   14.1420
   13.3944   12.9055   12.9045   13.0159   13.1811   13.1163
   12.9045   12.5357   12.2865   12.6631   12.9626   13.1927
   13.3944   13.3990   13.1984   13.1503   13.1811   13.2687
   13.2874   13.1503   12.8526   12.5357   12.7337   12.8573
   12.7453   12.9055   13.1984   13.4018   13.3249   13.2687
   13.1856   13.2698   13.3249   13.1503   12.9045   13.0155
   13.3168   13.0155   12.9045   13.1503   13.3249   13.2698
   13.1856   13.0848   13.1330   13.2698   13.2874   13.1163
   13.1846   13.1047   13.1064   13.0159   13.1811   13.2687
   13.1856   13.0848   13.2214   13.2698   13.4691   13.4018
   13.0954   12.8957   13.0709   13.1618   12.7446   12.9326
   13.1736   13.2687   13.2214   13.2698   13.1856   13.2698
   13.3249   13.1503   12.9045   13.0155   13.3168   13.0155
   12.9045   13.1503   13.3249   13.2698   13.4691   13.2698
   13.2214   13.2687   13.1736   12.9326   12.7446   13.1618
   13.0709   12.8957   13.0954   13.4018   13.4691   13.4018
   13.3249   13.2687   13.2874   13.1503   12.8526   12.5357
   12.7337   12.8573   12.7453   12.9055   13.1984   13.4018
   13.0954   13.1503   13.1736   13.1503   13.0954   12.9055
   12.6033   12.4351   12.5305   12.4351   12.6033   12.9055
   13.0954   12.8957   12.9045   12.9326   12.8526   12.9055
   13.1657   13.1927   12.9688   12.6564   12.2627   12.4351
   12.7453   12.8957   13.0709   13.0155   12.7446   12.5357
   12.6033   13.1927   13.7544   13.7011   13.2487   12.6564
   12.5305   12.8573   13.0709   13.1618   13.3168   13.1618
   12.7337   12.4351   12.9688   13.7011   14.0516   13.7011
   12.9688   12.4351   12.7337   13.1618   12.7446   13.0155
   13.0709   12.8573   12.5305   12.6564   13.2487   13.7011
   13.7544   13.1927   12.6033   12.5357   12.7446   12.9326
   12.9045   12.8957   12.7453   12.4351   12.2627   12.6564
   12.9688   13.1927   13.1657   12.9055   12.8526   12.9326
   13.1736   13.1503   13.0954   12.9055   12.6033   12.4351
   12.5305   12.4351   12.6033   12.9055   13.0954   13.1503
   13.1736   13.2687   13.3249   13.4018   13.1984   12.9055
   12.7453   12.8573   12.7337   12.5357   12.8526   13.1503
   13.2874   13.2687   13.2214   13.2698   13.4691   13.4018
   13.0954   12.8957   13.0709   13.1618   12.7446   12.9326
   13.1736   13.2687   13.2214   13.2539   13.2874   13.4018
   13.5620   13.3990   13.1657   13.0155   12.8867   12.5556
   12.5532   12.9326   13.1811   13.2539   13.2874   13.2687
   13.3249   13.4018   13.1984   12.9055   12.7453   12.8573
   12.7337   12.5357   12.8526   13.1503   13.2874   13.4018
   13.3249   13.2687   13.2874   13.1503   12.8526   12.5357
   12.7337   12.8573   12.7453   12.9055   13.1984   13.4018
   13.5620   13.4018   13.2874   13.2539   13.1811   12.9326
   12.5532   12.5556   12.8867   13.0155   13.1657   13.3990
   13.5620   13.3990   13.1984   13.1503   13.1811   13.1163
   12.9045   12.5357   12.2865   12.6631   12.9626   13.1927
   13.3944   13.3990   13.1657   12.9055   12.8526   12.9326
   12.9045   12.8957   12.7453   12.4351   12.2627   12.6564
   12.9688   13.1927   13.1657   13.0155   12.7453   12.5357
   12.5532   12.5357   12.7453   13.0155   12.9626   12.6564
   12.2451   12.6564   12.9626   13.0155   12.8867   12.8573
   12.7337   12.5556   12.2865   12.4351   12.9626   13.2863
   13.1352   12.6564   12.2627   12.6631   12.8867   12.5556
   12.7337   12.8573   12.8867   12.6631   12.2627   12.6564
   13.1352   13.2863   12.9626   12.4351   12.2865   12.5556
   12.5532   12.5357   12.7453   13.0155   12.9626   12.6564
   12.2451   12.6564   12.9626   13.0155   12.7453   12.5357
   12.5532   12.9326   12.8526   12.9055   13.1657   13.1927
   12.9688   12.6564   12.2627   12.4351   12.7453   12.8957
   12.9045   12.9326   13.1811   13.1503   13.1984   13.3990
   13.3944   13.1927   12.9626   12.6631   12.2865   12.5357
   12.9045   13.1163   13.1811   13.2539   13.2874   13.4018
   13.5620   13.3990   13.1657   13.0155   12.8867   12.5556
   12.5532   12.9326   13.1811   13.2539   13.1465   13.1163
   13.0954   13.3990   14.2339   14.1420   13.7544   13.2863
   12.7822   12.5556   12.7446   13.0159   13.1465   13.1163
   13.1811   13.1503   13.1984   13.3990   13.3944   13.1927
   12.9626   12.6631   12.2865   12.5357   12.9045   13.1163
   13.0954   13.1503   13.1736   13.1503   13.0954   12.9055
   12.6033   12.4351   12.5305   12.4351   12.6033   12.9055
   13.0954   13.3990   13.1984   13.1503   13.1811   13.1163
   12.9045   12.5357   12.2865   12.6631   12.9626   13.1927
   13.3944   13.3990   14.2339   13.3990   13.0954   13.1163
   13.1465   13.0159   12.7446   12.5556   12.7822   13.2863
   13.7544   14.1420   14.2339   14.1420   13.3944   12.9055
   12.9045   13.0159   13.1846   13.0155   12.7337   12.6631
   13.1352   13.7011   14.1121   14.1420   13.7544   13.1927
   12.6033   12.5357   12.7446   13.0155   13.0709   12.8573
   12.5305   12.6564   13.2487   13.7011   13.7544   13.2863
   12.9626   12.4351   12.2865   12.5556   12.7337   12.8573
   12.8867   12.6631   12.2627   12.6564   13.1352   13.2863
   12.7822   12.6631   12.5305   12.6631   12.7822   12.6631
   12.5305   12.6631   12.7822   12.6631   12.5305   12.6631
   12.7822   12.5556   12.2865   12.4351   12.9626   13.2863
   13.1352   12.6564   12.2627   12.6631   12.8867   12.8573
   12.7337   12.5556   12.7446   12.5357   12.6033   13.1927
   13.7544   13.7011   13.2487   12.6564   12.5305   12.8573
   13.0709   13.0155   12.7446   13.0159   12.9045   12.9055
   13.3944   14.1420   14.1121   13.7011   13.1352   12.6631
   12.7337   13.0155   13.1846   13.0159   13.1465   13.1163
   13.0954   13.3990   14.2339   14.1420   13.7544   13.2863
   12.7822   12.5556   12.7446   13.0159   13.1465   13.0281
   13.1846   12.8957   13.1657   14.1420   15.0515   14.7656
   14.0516   13.2863   12.8867   13.1618   13.1064   13.0281
   13.1846   13.0159   12.9045   12.9055   13.3944   14.1420
   14.1121   13.7011   13.1352   12.6631   12.7337   13.0155
   13.1846   12.8957   12.9045   12.9326   12.8526   12.9055
   13.1657   13.1927   12.9688   12.6564   12.2627   12.4351
   12.7453   12.8957   13.1657   12.9055   12.8526   12.9326
   12.9045   12.8957   12.7453   12.4351   12.2627   12.6564
   12.9688   13.1927   13.1657   14.1420   13.3944   12.9055
   12.9045   13.0159   13.1846   13.0155   12.7337   12.6631
   13.1352   13.7011   14.1121   14.1420   15.0515   14.1420
   13.1657   12.8957   13.1846   13.0281   13.1064   13.1618
   12.8867   13.2863   14.0516   14.7656   15.0515   14.7656
   14.1121   13.1927   12.7453   13.0155   13.1064   13.1047
   13.3168   12.8573   12.9626   13.7011   14.4655   14.7656
   14.0516   13.7011   12.9688   12.4351   12.7337   13.1618
   13.3168   13.1618   12.7337   12.4351   12.9688   13.7011
   14.0516   13.2863   13.1352   12.6564   12.2627   12.6631
   12.8867   12.8573   12.7337   12.5556   12.2865   12.4351
   12.9626   13.2863   12.8867   12.6631   12.2627   12.6564
   13.1352   13.2863   12.9626   12.4351   12.2865   12.5556
   12.7337   12.8573   12.8867   13.1618   12.7337   12.4351
   12.9688   13.7011   14.0516   13.7011   12.9688   12.4351
   12.7337   13.1618   13.3168   13.1618   13.1064   13.0155
   12.7453   13.1927   14.1121   14.7656   14.4655   13.7011
   12.9626   12.8573   13.3168   13.1047   13.1064   13.0281
   13.1846   12.8957   13.1657   14.1420   15.0515   14.7656
   14.0516   13.2863   12.8867   13.1618   13.1064   13.0281
   12.9807   13.1047   13.0709   13.0155   13.7544   14.7656
   15.1082   14.7656   13.7544   13.0155   13.0709   13.1047
   12.9807   13.1047   13.1064   13.0155   12.7453   13.1927
   14.1121   14.7656   14.4655   13.7011   12.9626   12.8573
   13.3168   13.1047   13.0709   13.0155   12.7446   12.5357
   12.6033   13.1927   13.7544   13.7011   13.2487   12.6564
   12.5305   12.8573   13.0709   13.0155   12.7453   12.5357
   12.5532   12.5357   12.7453   13.0155   12.9626   12.6564
   12.2451   12.6564   12.9626   13.0155   13.7544   13.1927
   12.6033   12.5357   12.7446   13.0155   13.0709   12.8573
   12.5305   12.6564   13.2487   13.7011   13.7544   14.7656
   14.1121   13.1927   12.7453   13.0155   13.1064   13.1047
   13.3168   12.8573   12.9626   13.7011   14.4655   14.7656
   15.1082   14.7656   13.7544   13.0155   13.0709   13.1047
   12.9807   13.1047   13.0709   13.0155   13.7544   14.7656
   15.1082   14.7656   14.4655   13.7011   12.9626   12.8573
   13.3168   13.1047   13.1064   13.0155   12.7453   13.1927
   14.1121   14.7656   13.7544   13.7011   13.2487   12.6564
   12.5305   12.8573   13.0709   13.0155   12.7446   12.5357
   12.6033   13.1927   13.7544   13.0155   12.9626   12.6564
   12.2451   12.6564   12.9626   13.0155   12.7453   12.5357
   12.5532   12.5357   12.7453   13.0155   13.0709   12.8573
   12.5305   12.6564   13.2487   13.7011   13.7544   13.1927
   12.6033   12.5357   12.7446   13.0155   13.0709   13.1047
   13.3168   12.8573   12.9626   13.7011   14.4655   14.7656
   14.1121   13.1927   12.7453   13.0155   13.1064   13.1047
   12.9807   13.1047   13.0709   13.0155   13.7544   14.7656
   15.1082   14.7656   13.7544   13.0155   13.0709   13.1047
   12.9807   13.0281   13.1064   13.1618   12.8867   13.2863
   14.0516   14.7656   15.0515   14.1420   13.1657   12.8957
   13.1846   13.0281   13.1064   13.1047   13.3168   12.8573
   12.9626   13.7011   14.4655   14.7656   14.1121   13.1927
   12.7453   13.0155   13.1064   13.1618   13.3168   13.1618
   12.7337   12.4351   12.9688   13.7011   14.0516   13.7011
   12.9688   12.4351   12.7337   13.1618   12.8867   12.8573
   12.7337   12.5556   12.2865   12.4351   12.9626   13.2863
   13.1352   12.6564   12.2627   12.6631   12.8867   13.2863
   12.9626   12.4351   12.2865   12.5556   12.7337   12.8573
   12.8867   12.6631   12.2627   12.6564   13.1352   13.2863
   14.0516   13.7011   12.9688   12.4351   12.7337   13.1618
   13.3168   13.1618   12.7337   12.4351   12.9688   13.7011
   14.0516   14.7656   14.4655   13.7011   12.9626   12.8573
   13.3168   13.1047   13.1064   13.0155   12.7453   13.1927
   14.1121   14.7656   15.0515   14.7656   14.0516   13.2863
   12.8867   13.1618   13.1064   13.0281   13.1846   12.8957
   13.1657   14.1420   15.0515   14.1420   14.1121   13.7011
   13.1352   12.6631   12.7337   13.0155   13.1846   13.0159
   12.9045   12.9055   13.3944   14.1420   13.1657   13.1927
   12.9688   12.6564   12.2627   12.4351   12.7453   12.8957
   12.9045   12.9326   12.8526   12.9055   13.1657   12.8957
   12.7453   12.4351   12.2627   12.6564   12.9688   13.1927
   13.1657   12.9055   12.8526   12.9326   12.9045   12.8957
   13.1846   13.0155   12.7337   12.6631   13.1352   13.7011
   14.1121   14.1420   13.3944   12.9055   12.9045   13.0159
   13.1846   13.0281   13.1064   13.1618   12.8867   13.2863
   14.0516   14.7656   15.0515   14.1420   13.1657   12.8957
   13.1846   13.0281   13.1465   13.0159   12.7446   12.5556
   12.7822   13.2863   13.7544   14.1420   14.2339   13.3990
   13.0954   13.1163   13.1465   13.0159   13.1846   13.0155
   12.7337   12.6631   13.1352   13.7011   14.1121   14.1420
   13.3944   12.9055   12.9045   13.0159   12.7446   13.0155
   13.0709   12.8573   12.5305   12.6564   13.2487   13.7011
   13.7544   13.1927   12.6033   12.5357   12.7446   12.5556
   12.7337   12.8573   12.8867   12.6631   12.2627   12.6564
   13.1352   13.2863   12.9626   12.4351   12.2865   12.5556
   12.7822   12.6631   12.5305   12.6631   12.7822   12.6631
   12.5305   12.6631   12.7822   12.6631   12.5305   12.6631
   12.7822   13.2863   13.1352   12.6564   12.2627   12.6631
   12.8867   12.8573   12.7337   12.5556   12.2865   12.4351
   12.9626   13.2863   13.7544   13.7011   13.2487   12.6564
   12.5305   12.8573   13.0709   13.0155   12.7446   12.5357
   12.6033   13.1927   13.7544   14.1420   14.1121   13.7011
   13.1352   12.6631   12.7337   13.0155   13.1846   13.0159
   12.9045   12.9055   13.3944   14.1420   14.2339   14.1420
   13.7544   13.2863   12.7822   12.5556   12.7446   13.0159
   13.1465   13.1163   13.0954   13.3990   14.2339   13.3990
   13.3944   13.1927   12.9626   12.6631   12.2865   12.5357
   12.9045   13.1163   13.1811   13.1503   13.1984   13.3990
   13.0954   12.9055   12.6033   12.4351   12.5305   12.4351
   12.6033   12.9055   13.0954   13.1503   13.1736   13.1503
   13.0954   13.1163   12.9045   12.5357   12.2865   12.6631
   12.9626   13.1927   13.3944   13.3990   13.1984   13.1503
   13.1811   13.1163   13.1465   13.0159   12.7446   12.5556
   12.7822   13.2863   13.7544   14.1420   14.2339   13.3990
   13.0954   13.1163   13.1465   13.2539   13.1811   12.9326
   12.5532   12.5556   12.8867   13.0155   13.1657   13.3990
   13.5620   13.4018   13.2874   13.2539   13.1811   13.1163
   12.9045   12.5357   12.2865   12.6631   12.9626   13.1927
   13.3944   13.3990   13.1984   13.1503   13.1811   12.9326
   12.9045   12.8957   12.7453   12.4351   12.2627   12.6564
   12.9688   13.1927   13.1657   12.9055   12.8526   12.9326
   12.5532   12.5357   12.7453   13.0155   12.9626   12.6564
   12.2451   12.6564   12.9626   13.0155   12.7453   12.5357
   12.5532   12.5556   12.2865   12.4351   12.9626   13.2863
   13.1352   12.6564   12.2627   12.6631   12.8867   12.8573
   12.7337   12.5556   12.8867   12.6631   12.2627   12.6564
   13.1352   13.2863   12.9626   12.4351   12.2865   12.5556
   12.7337   12.8573   12.8867   13.0155   12.9626   12.6564
   12.2451   12.6564   12.9626   13.0155   12.7453   12.5357
   12.5532   12.5357   12.7453   13.0155   13.1657   13.1927
   12.9688   12.6564   12.2627   12.4351   12.7453   12.8957
   12.9045   12.9326   12.8526   12.9055   13.1657   13.3990
   13.3944   13.1927   12.9626   12.6631   12.2865   12.5357
   12.9045   13.1163   13.1811   13.1503   13.1984   13.3990
   13.5620   13.3990   13.1657   13.0155   12.8867   12.5556
   12.5532   12.9326   13.1811   13.2539   13.2874   13.4018
   13.5620   13.4018   13.1984   12.9055   12.7453   12.8573
   12.7337   12.5357   12.8526   13.1503   13.2874   13.2687
   13.3249   13.4018   13.2874   13.1503   12.8526   12.5357
   12.7337   12.8573   12.7453   12.9055   13.1984   13.4018
   13.3249   13.2687   13.2874   13.2539   13.1811   12.9326
   12.5532   12.5556   12.8867   13.0155   13.1657   13.3990
   13.5620   13.4018   13.2874   13.2539   13.2214   13.2687
   13.1736   12.9326   12.7446   13.1618   13.0709   12.8957
   13.0954   13.4018   13.4691   13.2698   13.2214   13.2687
   13.2874   13.1503   12.8526   12.5357   12.7337   12.8573
   12.7453   12.9055   13.1984   13.4018   13.3249   13.2687
   13.1736   13.1503   13.0954   12.9055   12.6033   12.4351
   12.5305   12.4351   12.6033   12.9055   13.0954   13.1503
   13.1736   12.9326   12.8526   12.9055   13.1657   13.1927
   12.9688   12.6564   12.2627   12.4351   12.7453   12.8957
   12.9045   12.9326   12.7446   12.5357   12.6033   13.1927
   13.7544   13.7011   13.2487   12.6564   12.5305   12.8573
   13.0709   13.0155   12.7446   13.1618   12.7337   12.4351
   12.9688   13.7011   14.0516   13.7011   12.9688   12.4351
   12.7337   13.1618   13.3168   13.1618   13.0709   12.8573
   12.5305   12.6564   13.2487   13.7011   13.7544   13.1927
   12.6033   12.5357   12.7446   13.0155   13.0709   12.8957
   12.7453   12.4351   12.2627   12.6564   12.9688   13.1927
   13.1657   12.9055   12.8526   12.9326   12.9045   12.8957
   13.0954   12.9055   12.6033   12.4351   12.5305   12.4351
   12.6033   12.9055   13.0954   13.1503   13.1736   13.1503
   13.0954   13.4018   13.1984   12.9055   12.7453   12.8573
   12.7337   12.5357   12.8526   13.1503   13.2874   13.2687
   13.3249   13.4018   13.4691   13.4018   13.0954   12.8957
   13.0709   13.1618   12.7446   12.9326   13.1736   13.2687
   13.2214   13.2698   13.4691   13.2698   13.3249   13.1503
   12.9045   13.0155   13.3168   13.0155   12.9045   13.1503
   13.3249   13.2698   13.1856   13.2698   13.2214   13.2687
   13.1736   12.9326   12.7446   13.1618   13.0709   12.8957
   13.0954   13.4018   13.4691   13.2698   13.2214   13.0848
   13.1856   13.2687   13.1811   13.0159   13.1064   13.1047
   13.1846   13.1163   13.2874   13.2698   13.1330   13.0848
   13.1856   13.2698   13.3249   13.1503   12.9045   13.0155
   13.3168   13.0155   12.9045   13.1503   13.3249   13.2698
   13.1856   13.2687   13.3249   13.4018   13.1984   12.9055
   12.7453   12.8573   12.7337   12.5357   12.8526   13.1503
   13.2874   13.2687   13.1811   13.1503   13.1984   13.3990
   13.3944   13.1927   12.9626   12.6631   12.2865   12.5357
   12.9045   13.1163   13.1811   13.0159   12.9045   12.9055
   13.3944   14.1420   14.1121   13.7011   13.1352   12.6631
   12.7337   13.0155   13.1846   13.0159   13.1064   13.0155
   12.7453   13.1927   14.1121   14.7656   14.4655   13.7011
   12.9626   12.8573   13.3168   13.1047   13.1064   13.1047
   13.3168   12.8573   12.9626   13.7011   14.4655   14.7656
   14.1121   13.1927   12.7453   13.0155   13.1064   13.1047
   13.1846   13.0155   12.7337   12.6631   13.1352   13.7011
   14.1121   14.1420   13.3944   12.9055   12.9045   13.0159
   13.1846   13.1163   12.9045   12.5357   12.2865   12.6631
   12.9626   13.1927   13.3944   13.3990   13.1984   13.1503
   13.1811   13.1163   13.2874   13.1503   12.8526   12.5357
   12.7337   12.8573   12.7453   12.9055   13.1984   13.4018
   13.3249   13.2687   13.2874   13.2698   13.3249   13.1503
   12.9045   13.0155   13.3168   13.0155   12.9045   13.1503
   13.3249   13.2698   13.1856   13.2698   13.1330   13.2698
   13.2874   13.1163   13.1846   13.1047   13.1064   13.0159
   13.1811   13.2687   13.1856   13.0848   13.1330   13.0848
   13.1856   13.2687   13.1811   13.0159   13.1064   13.1047
   13.1846   13.1163   13.2874   13.2698   13.1330   13.0848
   13.0174   13.0848   13.2214   13.2539   13.1465   13.0281
   12.9807   13.0281   13.1465   13.2539   13.2214   13.0848
   13.0174   13.0848   13.1330   13.2698   13.2874   13.1163
   13.1846   13.1047   13.1064   13.0159   13.1811   13.2687
   13.1856   13.0848   13.2214   13.2698   13.4691   13.4018
   13.0954   12.8957   13.0709   13.1618   12.7446   12.9326
   13.1736   13.2687   13.2214   13.2539   13.2874   13.4018
   13.5620   13.3990   13.1657   13.0155   12.8867   12.5556
   12.5532   12.9326   13.1811   13.2539   13.1465   13.1163
   13.0954   13.3990   14.2339   14.1420   13.7544   13.2863
   12.7822   12.5556   12.7446   13.0159   13.1465   13.0281
   13.1846   12.8957   13.1657   14.1420   15.0515   14.7656
   14.0516   13.2863   12.8867   13.1618   13.1064   13.0281
   12.9807   13.1047   13.0709   13.0155   13.7544   14.7656
   15.1082   14.7656   13.7544   13.0155   13.0709   13.1047
   12.9807   13.0281   13.1064   13.1618   12.8867   13.2863
   14.0516   14.7656   15.0515   14.1420   13.1657   12.8957
   13.1846   13.0281   13.1465   13.0159   12.7446   12.5556
   12.7822   13.2863   13.7544   14.1420   14.2339   13.3990
   13.0954   13.1163   13.1465   13.2539   13.1811   12.9326
   12.5532   12.5556   12.8867   13.0155   13.1657   13.3990
   13.5620   13.4018   13.2874   13.2539   13.2214   13.2687
   13.1736   12.9326   12.7446   13.1618   13.0709   12.8957
   13.0954   13.4018   13.4691   13.2698   13.2214   13.0848
   13.1856   13.2687   13.1811   13.0159   13.1064   13.1047
   13.1846   13.1163   13.2874   13.2698   13.1330   13.0848
   13.0174   13.0848   13.2214   13.2539   13.1465   13.0281
   12.9807   13.0281   13.1465   13.2539   13.2214   13.0848
   13.0174
BAND:   4
   13.0174   13.0848   13.2214   13.2539   13.1465   14.0576
   14.9661   14.0576   13.1465   13.2539   13.2214   13.0848
   13.0174   13.0848   13.1330   13.2784   13.3688   13.3106
   13.1895   13.8632   13.7494   13.1997   13.3360   13.3510
   13.1987   13.0848   13.2214   13.2784   13.4691   13.6501
   13.6689   13.5675   13.4568   13.4063   13.4468   13.5768
   13.6367   13.3510   13.2214   13.2539   13.3688   13.6501
   13.9845   14.1475   14.0941   13.9732   13.8676   13.8114
   13.7753   13.5768   13.3360   13.2539   13.1465   13.3106
   13.6689   14.1475   14.5836   14.6511   14.5383   14.3795
   14.1540   13.8114   13.4468   13.1997   13.1465   14.0576
   13.1895   13.5675   14.0941   14.6511   15.0940   14.9745
   14.7782   14.3795   13.8676   13.4063   13.7494   14.0576
   14.9661   13.8632   13.4568   13.9732   14.5383   14.9745
   15.3005   14.9745   14.5383   13.9732   13.4568   13.8632
   14.9661   14.0576   13.7494   13.4063   13.8676   14.3795
   14.7782   14.9745   15.0940   14.6511   14.0941   13.5675
   13.1895   14.0576   13.1465   13.1997   13.4468   13.8114
   14.1540   14.3795   14.5383   14.6511   14.5836   14.1475
   13.6689   13.3106   13.1465   13.2539   13.3360   13.5768
   13.7753   13.8114   13.8676   13.9732   14.0941   14.1475
   13.9845   13.6501   13.3688   13.2539   13.2214   13.3510
   13.6367   13.5768   13.4468   13.4063   13.4568   13.5675
   13.6689   13.6501   13.4691   13.2784   13.2214   13.0848
   13.1987   13.3510   13.3360   13.1997   13.7494   13.8632
   13.1895   13.3106   13.3688   13.2784   13.1330   13.0848
   13.0174   13.0848   13.2214   13.2539   13.1465   14.0576
   14.9661   14.0576   13.1465   13.2539   13.2214   13.0848
   13.0174   13.0848   13.1330   13.2784   13.3688   13.3106
   13.1895   13.8632   13.7494   13.1997   13.3360   13.3510
   13.1987   13.0848   13.1330   13.0848   13.1987   13.3510
   13.3360   13.1997   13.7494   13.8632   13.1895   13.3106
   13.3688   13.2784   13.1330   13.2784   13.1987   13.2784
   13.4844   13.5957   13.4917   13.3780   13.3394   13.3780
   13.4917   13.5957   13.4844   13.2784   13.3688   13.3510
   13.4844   13.6501   13.9868   13.9942   13.8559   13.7297
   13.7116   13.8103   13.9347   13.5957   13.3688   13.3106
   13.3360   13.5957   13.9868   14.1475   14.5813   14.4491
   14.2390   14.0855   14.0140   13.8103   13.4917   13.3106
   13.1895   13.1997   13.4917   13.9942   14.5813   14.6511
   14.9181   14.6778   14.4014   14.0855   13.7116   13.3780
   13.1895   13.8632   13.7494   13.3780   13.8559   14.4491
   14.9181   14.9745   14.9281   14.6778   14.2390   13.7297
   13.3394   13.8632   13.7494   13.8632   13.3394   13.7297
   14.2390   14.6778   14.9281   14.9745   14.9181   14.4491
   13.8559   13.3780   13.7494   13.1997   13.1895   13.3780
   13.7116   14.0855   14.4014   14.6778   14.9181   14.6511
   14.5813   13.9942   13.4917   13.1997   13.3360   13.3106
   13.4917   13.8103   14.0140   14.0855   14.2390   14.4491
   14.5813   14.1475   13.9868   13.5957   13.3360   13.3510
   13.3688   13.5957   13.9347   13.8103   13.7116   13.7297
   13.8559   13.9942   13.9868   13.6501   13.4844   13.3510
   13.1987   13.2784   13.4844   13.5957   13.4917   13.3780
   13.3394   13.3780   13.4917   13.5957   13.4844   13.2784
   13.1987   13.0848   13.1330   13.2784   13.3688   13.3106
   13.1895   13.8632   13.7494   13.1997   13.3360   13.3510
   13.1987   13.0848   13.2214   13.2784   13.4691   13.6501
   13.6689   13.5675   13.4568   13.4063   13.4468   13.5768
   13.6367   13.3510   13.2214   13.2784   13.1987   13.2784
   13.4844   13.5957   13.4917   13.3780   13.3394   13.3780
   13.4917   13.5957   13.4844   13.2784   13.4691   13.2784
   13.2214   13.3510   13.6367   13.5768   13.4468   13.4063
   13.4568   13.5675   13.6689   13.6501   13.4691   13.6501
   13.4844   13.3510   13.3688   13.5957   13.9347   13.8103
   13.7116   13.7297   13.8559   13.9942   13.9868   13.6501
   13.6689   13.5957   13.6367   13.5957   13.6689   13.9942
   14.3170   14.1483   14.0395   14.1483   14.3170   13.9942
   13.6689   13.5675   13.4917   13.5768   13.9347   13.9942
   14.0941   14.4491   14.4962   14.2657   14.1811   14.1483
   13.8559   13.5675   13.4568   13.3780   13.4468   13.8103
   14.3170   14.4491   14.5383   14.6778   14.4851   14.2657
   14.0395   13.7297   13.4568   13.4063   13.3394   13.4063
   13.7116   14.1483   14.4962   14.6778   14.7782   14.6778
   14.4962   14.1483   13.7116   13.4063   13.4468   13.3780
   13.4568   13.7297   14.0395   14.2657   14.4851   14.6778
   14.5383   14.4491   14.3170   13.8103   13.4468   13.5768
   13.4917   13.5675   13.8559   14.1483   14.1811   14.2657
   14.4962   14.4491   14.0941   13.9942   13.9347   13.5768
   13.6367   13.5957   13.6689   13.9942   14.3170   14.1483
   14.0395   14.1483   14.3170   13.9942   13.6689   13.5957
   13.6367   13.3510   13.4844   13.6501   13.9868   13.9942
   13.8559   13.7297   13.7116   13.8103   13.9347   13.5957
   13.3688   13.3510   13.2214   13.2784   13.4691   13.6501
   13.6689   13.5675   13.4568   13.4063   13.4468   13.5768
   13.6367   13.3510   13.2214   13.2539   13.3688   13.6501
   13.9845   14.1475   14.0941   13.9732   13.8676   13.8114
   13.7753   13.5768   13.3360   13.2539   13.3688   13.3510
   13.4844   13.6501   13.9868   13.9942   13.8559   13.7297
   13.7116   13.8103   13.9347   13.5957   13.3688   13.6501
   13.4844   13.3510   13.3688   13.5957   13.9347   13.8103
   13.7116   13.7297   13.8559   13.9942   13.9868   13.6501
   13.9845   13.6501   13.3688   13.2539   13.3360   13.5768
   13.7753   13.8114   13.8676   13.9732   14.0941   14.1475
   13.9845   14.1475   13.9868   13.5957   13.3360   13.3106
   13.4917   13.8103   14.0140   14.0855   14.2390   14.4491
   14.5813   14.1475   14.0941   13.9942   13.9347   13.5768
   13.4917   13.5675   13.8559   14.1483   14.1811   14.2657
   14.4962   14.4491   14.0941   13.9732   13.8559   13.8103
   13.7753   13.8103   13.8559   13.9732   14.2390   14.2657
   14.1958   14.2657   14.2390   13.9732   13.8676   13.7297
   13.7116   13.8114   14.0140   14.1483   14.2390   14.3795
   14.4014   14.2657   14.1811   14.0855   13.8676   13.8114
   13.7116   13.7297   13.8676   14.0855   14.1811   14.2657
   14.4014   14.3795   14.2390   14.1483   14.0140   13.8114
   13.7753   13.8103   13.8559   13.9732   14.2390   14.2657
   14.1958   14.2657   14.2390   13.9732   13.8559   13.8103
   13.7753   13.5768   13.9347   13.9942   14.0941   14.4491
   14.4962   14.2657   14.1811   14.1483   13.8559   13.5675
   13.4917   13.5768   13.3360   13.5957   13.9868   14.1475
   14.5813   14.4491   14.2390   14.0855   14.0140   13.8103
   13.4917   13.3106   13.3360   13.2539   13.3688   13.6501
   13.9845   14.1475   14.0941   13.9732   13.8676   13.8114
   13.7753   13.5768   13.3360   13.2539   13.1465   13.3106
   13.6689   14.1475   14.5836   14.6511   14.5383   14.3795
   14.1540   13.8114   13.4468   13.1997   13.1465   13.3106
   13.3360   13.5957   13.9868   14.1475   14.5813   14.4491
   14.2390   14.0855   14.0140   13.8103   13.4917   13.3106