 BEGIN_INFO
   #
   # this is a Band-XCRYSDEN-Structure-File
   # aimed at Visualization of Fermi Surface
   #
   # Case:   ni                                                                              
   #
 Fermi Energy:         15.1160
 END_INFO
 BEGIN_BLOCK_BANDGRID_3D
 band_energies
 BANDGRID_3D_BANDS
    4
   13   13   13
  0.000000  0.000000  0.000000
 -1.000000 -1.000000  1.000000
  1.000000  1.000000  1.000000
 -1.000000  1.000000 -1.000000
BAND:   3
   13.0175   13.0849   13.2215   13.2540   13.1466   13.0282
   12.9808   13.0282   13.1466   13.2540   13.2215   13.0849
   13.0175   13.0849   13.1330   13.2699   13.2875   13.1164
   13.1847   13.1048   13.1065   13.0159   13.1812   13.2688
   13.1857   13.0849   13.2215   13.2699   13.4692   13.4019
   13.0955   12.8957   13.0710   13.1619   12.7447   12.9327
   13.1737   13.2688   13.2215   13.2540   13.2875   13.4019
   13.5621   13.3991   13.1658   13.0156   12.8867   12.5557
   12.5532   12.9327   13.1812   13.2540   13.1466   13.1164
   13.0955   13.3991   14.2340   14.1421   13.7545   13.2864
   12.7823   12.5557   12.7447   13.0159   13.1466   13.0282
   13.1847   12.8957   13.1658   14.1421   15.0516   14.7657
   14.0516   13.2864   12.8867   13.1619   13.1065   13.0282
   12.9808   13.1048   13.0710   13.0156   13.7545   14.7657
   15.1083   14.7657   13.7545   13.0156   13.0710   13.1048
   12.9808   13.0282   13.1065   13.1619   12.8867   13.2864
   14.0516   14.7657   15.0516   14.1421   13.1658   12.8957
   13.1847   13.0282   13.1466   13.0159   12.7447   12.5557
   12.7823   13.2864   13.7545   14.1421   14.2340   13.3991
   13.0955   13.1164   13.1466   13.2540   13.1812   12.9327
   12.5532   12.5557   12.8867   13.0156   13.1658   13.3991
   13.5621   13.4019   13.2875   13.2540   13.2215   13.2688
   13.1737   12.9327   12.7447   13.1619   13.0710   12.8957
   13.0955   13.4019   13.4692   13.2699   13.2215   13.0849
   13.1857   13.2688   13.1812   13.0159   13.1065   13.1048
   13.1847   13.1164   13.2875   13.2699   13.1330   13.0849
   13.0175   13.0849   13.2215   13.2540   13.1466   13.0282
   12.9808   13.0282   13.1466   13.2540   13.2215   13.0849
   13.0175   13.0849   13.1330   13.2699   13.2875   13.1164
   13.1847   13.1048   13.1065   13.0159   13.1812   13.2688
   13.1857   13.0849   13.1330   13.0849   13.1857   13.2688
   13.1812   13.0159   13.1065   13.1048   13.1847   13.1164
   13.2875   13.2699   13.1330   13.2699   13.1857   13.2699
   13.3250   13.1504   12.9046   13.0156   13.3169   13.0156
   12.9046   13.1504   13.3250   13.2699   13.2875   13.2688
   13.3250   13.4019   13.1985   12.9055   12.7454   12.8574
   12.7338   12.5358   12.8527   13.1504   13.2875   13.1164
   13.1812   13.1504   13.1985   13.3991   13.3945   13.1928
   12.9627   12.6632   12.2866   12.5358   12.9046   13.1164
   13.1847   13.0159   12.9046   12.9055   13.3945   14.1421
   14.1122   13.7012   13.1353   12.6632   12.7338   13.0156
   13.1847   13.1048   13.1065   13.0156   12.7454   13.1928
   14.1122   14.7657   14.4656   13.7012   12.9627   12.8574
   13.3169   13.1048   13.1065   13.1048   13.3169   12.8574
   12.9627   13.7012   14.4656   14.7657   14.1122   13.1928
   12.7454   13.0156   13.1065   13.0159   13.1847   13.0156
   12.7338   12.6632   13.1353   13.7012   14.1122   14.1421
   13.3945   12.9055   12.9046   13.0159   13.1812   13.1164
   12.9046   12.5358   12.2866   12.6632   12.9627   13.1928
   13.3945   13.3991   13.1985   13.1504   13.1812   13.2688
   13.2875   13.1504   12.8527   12.5358   12.7338   12.8574
   12.7454   12.9055   13.1985   13.4019   13.3250   13.2688
   13.1857   13.2699   13.3250   13.1504   12.9046   13.0156
   13.3169   13.0156   12.9046   13.1504   13.3250   13.2699
   13.1857   13.0849   13.1330   13.2699   13.2875   13.1164
   13.1847   13.1048   13.1065   13.0159   13.1812   13.2688
   13.1857   13.0849   13.2215   13.2699   13.4692   13.4019
   13.0955   12.8957   13.0710   13.1619   12.7447   12.9327
   13.1737   13.2688   13.2215   13.2699   13.1857   13.2699
   13.3250   13.1504   12.9046   13.0156   13.3169   13.0156
   12.9046   13.1504   13.3250   13.2699   13.4692   13.2699
   13.2215   13.2688   13.1737   12.9327   12.7447   13.1619
   13.0710   12.8957   13.0955   13.4019   13.4692   13.4019
   13.3250   13.2688   13.2875   13.1504   12.8527   12.5358
   12.7338   12.8574   12.7454   12.9055   13.1985   13.4019
   13.0955   13.1504   13.1737   13.1504   13.0955   12.9055
   12.6034   12.4351   12.5306   12.4351   12.6034   12.9055
   13.0955   12.8957   12.9046   12.9327   12.8527   12.9055
   13.1658   13.1928   12.9689   12.6565   12.2628   12.4351
   12.7454   12.8957   13.0710   13.0156   12.7447   12.5358
   12.6034   13.1928   13.7545   13.7012   13.2488   12.6565
   12.5306   12.8574   13.0710   13.1619   13.3169   13.1619
   12.7338   12.4351   12.9689   13.7012   14.0516   13.7012
   12.9689   12.4351   12.7338   13.1619   12.7447   13.0156
   13.0710   12.8574   12.5306   12.6565   13.2488   13.7012
   13.7545   13.1928   12.6034   12.5358   12.7447   12.9327
   12.9046   12.8957   12.7454   12.4351   12.2628   12.6565
   12.9689   13.1928   13.1658   12.9055   12.8527   12.9327
   13.1737   13.1504   13.0955   12.9055   12.6034   12.4351
   12.5306   12.4351   12.6034   12.9055   13.0955   13.1504
   13.1737   13.2688   13.3250   13.4019   13.1985   12.9055
   12.7454   12.8574   12.7338   12.5358   12.8527   13.1504
   13.2875   13.2688   13.2215   13.2699   13.4692   13.4019
   13.0955   12.8957   13.0710   13.1619   12.7447   12.9327
   13.1737   13.2688   13.2215   13.2540   13.2875   13.4019
   13.5621   13.3991   13.1658   13.0156   12.8867   12.5557
   12.5532   12.9327   13.1812   13.2540   13.2875   13.2688
   13.3250   13.4019   13.1985   12.9055   12.7454   12.8574
   12.7338   12.5358   12.8527   13.1504   13.2875   13.4019
   13.3250   13.2688   13.2875   13.1504   12.8527   12.5358
   12.7338   12.8574   12.7454   12.9055   13.1985   13.4019
   13.5621   13.4019   13.2875   13.2540   13.1812   12.9327
   12.5532   12.5557   12.8867   13.0156   13.1658   13.3991
   13.5621   13.3991   13.1985   13.1504   13.1812   13.1164
   12.9046   12.5358   12.2866   12.6632   12.9627   13.1928
   13.3945   13.3991   13.1658   12.9055   12.8527   12.9327
   12.9046   12.8957   12.7454   12.4351   12.2628   12.6565
   12.9689   13.1928   13.1658   13.0156   12.7454   12.5358
   12.5532   12.5358   12.7454   13.0156   12.9627   12.6565
   12.2452   12.6565   12.9627   13.0156   12.8867   12.8574
   12.7338   12.5557   12.2866   12.4351   12.9627   13.2864
   13.1353   12.6565   12.2628   12.6632   12.8867   12.5557
   12.7338   12.8574   12.8867   12.6632   12.2628   12.6565
   13.1353   13.2864   12.9627   12.4351   12.2866   12.5557
   12.5532   12.5358   12.7454   13.0156   12.9627   12.6565
   12.2452   12.6565   12.9627   13.0156   12.7454   12.5358
   12.5532   12.9327   12.8527   12.9055   13.1658   13.1928
   12.9689   12.6565   12.2628   12.4351   12.7454   12.8957
   12.9046   12.9327   13.1812   13.1504   13.1985   13.3991
   13.3945   13.1928   12.9627   12.6632   12.2866   12.5358
   12.9046   13.1164   13.1812   13.2540   13.2875   13.4019
   13.5621   13.3991   13.1658   13.0156   12.8867   12.5557
   12.5532   12.9327   13.1812   13.2540   13.1466   13.1164
   13.0955   13.3991   14.2340   14.1421   13.7545   13.2864
   12.7823   12.5557   12.7447   13.0159   13.1466   13.1164
   13.1812   13.1504   13.1985   13.3991   13.3945   13.1928
   12.9627   12.6632   12.2866   12.5358   12.9046   13.1164
   13.0955   13.1504   13.1737   13.1504   13.0955   12.9055
   12.6034   12.4351   12.5306   12.4351   12.6034   12.9055
   13.0955   13.3991   13.1985   13.1504   13.1812   13.1164
   12.9046   12.5358   12.2866   12.6632   12.9627   13.1928
   13.3945   13.3991   14.2340   13.3991   13.0955   13.1164
   13.1466   13.0159   12.7447   12.5557   12.7823   13.2864
   13.7545   14.1421   14.2340   14.1421   13.3945   12.9055
   12.9046   13.0159   13.1847   13.0156   12.7338   12.6632
   13.1353   13.7012   14.1122   14.1421   13.7545   13.1928
   12.6034   12.5358   12.7447   13.0156   13.0710   12.8574
   12.5306   12.6565   13.2488   13.7012   13.7545   13.2864
   12.9627   12.4351   12.2866   12.5557   12.7338   12.8574
   12.8867   12.6632   12.2628   12.6565   13.1353   13.2864
   12.7823   12.6632   12.5306   12.6632   12.7823   12.6632
   12.5306   12.6632   12.7823   12.6632   12.5306   12.6632
   12.7823   12.5557   12.2866   12.4351   12.9627   13.2864
   13.1353   12.6565   12.2628   12.6632   12.8867   12.8574
   12.7338   12.5557   12.7447   12.5358   12.6034   13.1928
   13.7545   13.7012   13.2488   12.6565   12.5306   12.8574
   13.0710   13.0156   12.7447   13.0159   12.9046   12.9055
   13.3945   14.1421   14.1122   13.7012   13.1353   12.6632
   12.7338   13.0156   13.1847   13.0159   13.1466   13.1164
   13.0955   13.3991   14.2340   14.1421   13.7545   13.2864
   12.7823   12.5557   12.7447   13.0159   13.1466   13.0282
   13.1847   12.8957   13.1658   14.1421   15.0516   14.7657
   14.0516   13.2864   12.8867   13.1619   13.1065   13.0282
   13.1847   13.0159   12.9046   12.9055   13.3945   14.1421
   14.1122   13.7012   13.1353   12.6632   12.7338   13.0156
   13.1847   12.8957   12.9046   12.9327   12.8527   12.9055
   13.1658   13.1928   12.9689   12.6565   12.2628   12.4351
   12.7454   12.8957   13.1658   12.9055   12.8527   12.9327
   12.9046   12.8957   12.7454   12.4351   12.2628   12.6565
   12.9689   13.1928   13.1658   14.1421   13.3945   12.9055
   12.9046   13.0159   13.1847   13.0156   12.7338   12.6632
   13.1353   13.7012   14.1122   14.1421   15.0516   14.1421
   13.1658   12.8957   13.1847   13.0282   13.1065   13.1619
   12.8867   13.2864   14.0516   14.7657   15.0516   14.7657
   14.1122   13.1928   12.7454   13.0156   13.1065   13.1048
   13.3169   12.8574   12.9627   13.7012   14.4656   14.7657
   14.0516   13.7012   12.9689   12.4351   12.7338   13.1619
   13.3169   13.1619   12.7338   12.4351   12.9689   13.7012
   14.0516   13.2864   13.1353   12.6565   12.2628   12.6632
   12.8867   12.8574   12.7338   12.5557   12.2866   12.4351
   12.9627   13.2864   12.8867   12.6632   12.2628   12.6565
   13.1353   13.2864   12.9627   12.4351   12.2866   12.5557
   12.7338   12.8574   12.8867   13.1619   12.7338   12.4351
   12.9689   13.7012   14.0516   13.7012   12.9689   12.4351
   12.7338   13.1619   13.3169   13.1619   13.1065   13.0156
   12.7454   13.1928   14.1122   14.7657   14.4656   13.7012
   12.9627   12.8574   13.3169   13.1048   13.1065   13.0282
   13.1847   12.8957   13.1658   14.1421   15.0516   14.7657
   14.0516   13.2864   12.8867   13.1619   13.1065   13.0282
   12.9808   13.1048   13.0710   13.0156   13.7545   14.7657
   15.1083   14.7657   13.7545   13.0156   13.0710   13.1048
   12.9808   13.1048   13.1065   13.0156   12.7454   13.1928
   14.1122   14.7657   14.4656   13.7012   12.9627   12.8574
   13.3169   13.1048   13.0710   13.0156   12.7447   12.5358
   12.6034   13.1928   13.7545   13.7012   13.2488   12.6565
   12.5306   12.8574   13.0710   13.0156   12.7454   12.5358
   12.5532   12.5358   12.7454   13.0156   12.9627   12.6565
   12.2452   12.6565   12.9627   13.0156   13.7545   13.1928
   12.6034   12.5358   12.7447   13.0156   13.0710   12.8574
   12.5306   12.6565   13.2488   13.7012   13.7545   14.7657
   14.1122   13.1928   12.7454   13.0156   13.1065   13.1048
   13.3169   12.8574   12.9627   13.7012   14.4656   14.7657
   15.1083   14.7657   13.7545   13.0156   13.0710   13.1048
   12.9808   13.1048   13.0710   13.0156   13.7545   14.7657
   15.1083   14.7657   14.4656   13.7012   12.9627   12.8574
   13.3169   13.1048   13.1065   13.0156   12.7454   13.1928
   14.1122   14.7657   13.7545   13.7012   13.2488   12.6565
   12.5306   12.8574   13.0710   13.0156   12.7447   12.5358
   12.6034   13.1928   13.7545   13.0156   12.9627   12.6565
   12.2452   12.6565   12.9627   13.0156   12.7454   12.5358
   12.5532   12.5358   12.7454   13.0156   13.0710   12.8574
   12.5306   12.6565   13.2488   13.7012   13.7545   13.1928
   12.6034   12.5358   12.7447   13.0156   13.0710   13.1048
   13.3169   12.8574   12.9627   13.7012   14.4656   14.7657
   14.1122   13.1928   12.7454   13.0156   13.1065   13.1048
   12.9808   13.1048   13.0710   13.0156   13.7545   14.7657
   15.1083   14.7657   13.7545   13.0156   13.0710   13.1048
   12.9808   13.0282   13.1065   13.1619   12.8867   13.2864
   14.0516   14.7657   15.0516   14.1421   13.1658   12.8957
   13.1847   13.0282   13.1065   13.1048   13.3169   12.8574
   12.9627   13.7012   14.4656   14.7657   14.1122   13.1928
   12.7454   13.0156   13.1065   13.1619   13.3169   13.1619
   12.7338   12.4351   12.9689   13.7012   14.0516   13.7012
   12.9689   12.4351   12.7338   13.1619   12.8867   12.8574
   12.7338   12.5557   12.2866   12.4351   12.9627   13.2864
   13.1353   12.6565   12.2628   12.6632   12.8867   13.2864
   12.9627   12.4351   12.2866   12.5557   12.7338   12.8574
   12.8867   12.6632   12.2628   12.6565   13.1353   13.2864
   14.0516   13.7012   12.9689   12.4351   12.7338   13.1619
   13.3169   13.1619   12.7338   12.4351   12.9689   13.7012
   14.0516   14.7657   14.4656   13.7012   12.9627   12.8574
   13.3169   13.1048   13.1065   13.0156   12.7454   13.1928
   14.1122   14.7657   15.0516   14.7657   14.0516   13.2864
   12.8867   13.1619   13.1065   13.0282   13.1847   12.8957
   13.1658   14.1421   15.0516   14.1421   14.1122   13.7012
   13.1353   12.6632   12.7338   13.0156   13.1847   13.0159
   12.9046   12.9055   13.3945   14.1421   13.1658   13.1928
   12.9689   12.6565   12.2628   12.4351   12.7454   12.8957
   12.9046   12.9327   12.8527   12.9055   13.1658   12.8957
   12.7454   12.4351   12.2628   12.6565   12.9689   13.1928
   13.1658   12.9055   12.8527   12.9327   12.9046   12.8957
   13.1847   13.0156   12.7338   12.6632   13.1353   13.7012
   14.1122   14.1421   13.3945   12.9055   12.9046   13.0159
   13.1847   13.0282   13.1065   13.1619   12.8867   13.2864
   14.0516   14.7657   15.0516   14.1421   13.1658   12.8957
   13.1847   13.0282   13.1466   13.0159   12.7447   12.5557
   12.7823   13.2864   13.7545   14.1421   14.2340   13.3991
   13.0955   13.1164   13.1466   13.0159   13.1847   13.0156
   12.7338   12.6632   13.1353   13.7012   14.1122   14.1421
   13.3945   12.9055   12.9046   13.0159   12.7447   13.0156
   13.0710   12.8574   12.5306   12.6565   13.2488   13.7012
   13.7545   13.1928   12.6034   12.5358   12.7447   12.5557
   12.7338   12.8574   12.8867   12.6632   12.2628   12.6565
   13.1353   13.2864   12.9627   12.4351   12.2866   12.5557
   12.7823   12.6632   12.5306   12.6632   12.7823   12.6632
   12.5306   12.6632   12.7823   12.6632   12.5306   12.6632
   12.7823   13.2864   13.1353   12.6565   12.2628   12.6632
   12.8867   12.8574   12.7338   12.5557   12.2866   12.4351
   12.9627   13.2864   13.7545   13.7012   13.2488   12.6565
   12.5306   12.8574   13.0710   13.0156   12.7447   12.5358
   12.6034   13.1928   13.7545   14.1421   14.1122   13.7012
   13.1353   12.6632   12.7338   13.0156   13.1847   13.0159
   12.9046   12.9055   13.3945   14.1421   14.2340   14.1421
   13.7545   13.2864   12.7823   12.5557   12.7447   13.0159
   13.1466   13.1164   13.0955   13.3991   14.2340   13.3991
   13.3945   13.1928   12.9627   12.6632   12.2866   12.5358
   12.9046   13.1164   13.1812   13.1504   13.1985   13.3991
   13.0955   12.9055   12.6034   12.4351   12.5306   12.4351
   12.6034   12.9055   13.0955   13.1504   13.1737   13.1504
   13.0955   13.1164   12.9046   12.5358   12.2866   12.6632
   12.9627   13.1928   13.3945   13.3991   13.1985   13.1504
   13.1812   13.1164   13.1466   13.0159   12.7447   12.5557
   12.7823   13.2864   13.7545   14.1421   14.2340   13.3991
   13.0955   13.1164   13.1466   13.2540   13.1812   12.9327
   12.5532   12.5557   12.8867   13.0156   13.1658   13.3991
   13.5621   13.4019   13.2875   13.2540   13.1812   13.1164
   12.9046   12.5358   12.2866   12.6632   12.9627   13.1928
   13.3945   13.3991   13.1985   13.1504   13.1812   12.9327
   12.9046   12.8957   12.7454   12.4351   12.2628   12.6565
   12.9689   13.1928   13.1658   12.9055   12.8527   12.9327
   12.5532   12.5358   12.7454   13.0156   12.9627   12.6565
   12.2452   12.6565   12.9627   13.0156   12.7454   12.5358
   12.5532   12.5557   12.2866   12.4351   12.9627   13.2864
   13.1353   12.6565   12.2628   12.6632   12.8867   12.8574
   12.7338   12.5557   12.8867   12.6632   12.2628   12.6565
   13.1353   13.2864   12.9627   12.4351   12.2866   12.5557
   12.7338   12.8574   12.8867   13.0156   12.9627   12.6565
   12.2452   12.6565   12.9627   13.0156   12.7454   12.5358
   12.5532   12.5358   12.7454   13.0156   13.1658   13.1928
   12.9689   12.6565   12.2628   12.4351   12.7454   12.8957
   12.9046   12.9327   12.8527   12.9055   13.1658   13.3991
   13.3945   13.1928   12.9627   12.6632   12.2866   12.5358
   12.9046   13.1164   13.1812   13.1504   13.1985   13.3991
   13.5621   13.3991   13.1658   13.0156   12.8867   12.5557
   12.5532   12.9327   13.1812   13.2540   13.2875   13.4019
   13.5621   13.4019   13.1985   12.9055   12.7454   12.8574
   12.7338   12.5358   12.8527   13.1504   13.2875   13.2688
   13.3250   13.4019   13.2875   13.1504   12.8527   12.5358
   12.7338   12.8574   12.7454   12.9055   13.1985   13.4019
   13.3250   13.2688   13.2875   13.2540   13.1812   12.9327
   12.5532   12.5557   12.8867   13.0156   13.1658   13.3991
   13.5621   13.4019   13.2875   13.2540   13.2215   13.2688
   13.1737   12.9327   12.7447   13.1619   13.0710   12.8957
   13.0955   13.4019   13.4692   13.2699   13.2215   13.2688
   13.2875   13.1504   12.8527   12.5358   12.7338   12.8574
   12.7454   12.9055   13.1985   13.4019   13.3250   13.2688
   13.1737   13.1504   13.0955   12.9055   12.6034   12.4351
   12.5306   12.4351   12.6034   12.9055   13.0955   13.1504
   13.1737   12.9327   12.8527   12.9055   13.1658   13.1928
   12.9689   12.6565   12.2628   12.4351   12.7454   12.8957
   12.9046   12.9327   12.7447   12.5358   12.6034   13.1928
   13.7545   13.7012   13.2488   12.6565   12.5306   12.8574
   13.0710   13.0156   12.7447   13.1619   12.7338   12.4351
   12.9689   13.7012   14.0516   13.7012   12.9689   12.4351
   12.7338   13.1619   13.3169   13.1619   13.0710   12.8574
   12.5306   12.6565   13.2488   13.7012   13.7545   13.1928
   12.6034   12.5358   12.7447   13.0156   13.0710   12.8957
   12.7454   12.4351   12.2628   12.6565   12.9689   13.1928
   13.1658   12.9055   12.8527   12.9327   12.9046   12.8957
   13.0955   12.9055   12.6034   12.4351   12.5306   12.4351
   12.6034   12.9055   13.0955   13.1504   13.1737   13.1504
   13.0955   13.4019   13.1985   12.9055   12.7454   12.8574
   12.7338   12.5358   12.8527   13.1504   13.2875   13.2688
   13.3250   13.4019   13.4692   13.4019   13.0955   12.8957
   13.0710   13.1619   12.7447   12.9327   13.1737   13.2688
   13.2215   13.2699   13.4692   13.2699   13.3250   13.1504
   12.9046   13.0156   13.3169   13.0156   12.9046   13.1504
   13.3250   13.2699   13.1857   13.2699   13.2215   13.2688
   13.1737   12.9327   12.7447   13.1619   13.0710   12.8957
   13.0955   13.4019   13.4692   13.2699   13.2215   13.0849
   13.1857   13.2688   13.1812   13.0159   13.1065   13.1048
   13.1847   13.1164   13.2875   13.2699   13.1330   13.0849
   13.1857   13.2699   13.3250   13.1504   12.9046   13.0156
   13.3169   13.0156   12.9046   13.1504   13.3250   13.2699
   13.1857   13.2688   13.3250   13.4019   13.1985   12.9055
   12.7454   12.8574   12.7338   12.5358   12.8527   13.1504
   13.2875   13.2688   13.1812   13.1504   13.1985   13.3991
   13.3945   13.1928   12.9627   12.6632   12.2866   12.5358
   12.9046   13.1164   13.1812   13.0159   12.9046   12.9055
   13.3945   14.1421   14.1122   13.7012   13.1353   12.6632
   12.7338   13.0156   13.1847   13.0159   13.1065   13.0156
   12.7454   13.1928   14.1122   14.7657   14.4656   13.7012
   12.9627   12.8574   13.3169   13.1048   13.1065   13.1048
   13.3169   12.8574   12.9627   13.7012   14.4656   14.7657
   14.1122   13.1928   12.7454   13.0156   13.1065   13.1048
   13.1847   13.0156   12.7338   12.6632   13.1353   13.7012
   14.1122   14.1421   13.3945   12.9055   12.9046   13.0159
   13.1847   13.1164   12.9046   12.5358   12.2866   12.6632
   12.9627   13.1928   13.3945   13.3991   13.1985   13.1504
   13.1812   13.1164   13.2875   13.1504   12.8527   12.5358
   12.7338   12.8574   12.7454   12.9055   13.1985   13.4019
   13.3250   13.2688   13.2875   13.2699   13.3250   13.1504
   12.9046   13.0156   13.3169   13.0156   12.9046   13.1504
   13.3250   13.2699   13.1857   13.2699   13.1330   13.2699
   13.2875   13.1164   13.1847   13.1048   13.1065   13.0159
   13.1812   13.2688   13.1857   13.0849   13.1330   13.0849
   13.1857   13.2688   13.1812   13.0159   13.1065   13.1048
   13.1847   13.1164   13.2875   13.2699   13.1330   13.0849
   13.0175   13.0849   13.2215   13.2540   13.1466   13.0282
   12.9808   13.0282   13.1466   13.2540   13.2215   13.0849
   13.0175   13.0849   13.1330   13.2699   13.2875   13.1164
   13.1847   13.1048   13.1065   13.0159   13.1812   13.2688
   13.1857   13.0849   13.2215   13.2699   13.4692   13.4019
   13.0955   12.8957   13.0710   13.1619   12.7447   12.9327
   13.1737   13.2688   13.2215   13.2540   13.2875   13.4019
   13.5621   13.3991   13.1658   13.0156   12.8867   12.5557
   12.5532   12.9327   13.1812   13.2540   13.1466   13.1164
   13.0955   13.3991   14.2340   14.1421   13.7545   13.2864
   12.7823   12.5557   12.7447   13.0159   13.1466   13.0282
   13.1847   12.8957   13.1658   14.1421   15.0516   14.7657
   14.0516   13.2864   12.8867   13.1619   13.1065   13.0282
   12.9808   13.1048   13.0710   13.0156   13.7545   14.7657
   15.1083   14.7657   13.7545   13.0156   13.0710   13.1048
   12.9808   13.0282   13.1065   13.1619   12.8867   13.2864
   14.0516   14.7657   15.0516   14.1421   13.1658   12.8957
   13.1847   13.0282   13.1466   13.0159   12.7447   12.5557
   12.7823   13.2864   13.7545   14.1421   14.2340   13.3991
   13.0955   13.1164   13.1466   13.2540   13.1812   12.9327
   12.5532   12.5557   12.8867   13.0156   13.1658   13.3991
   13.5621   13.4019   13.2875   13.2540   13.2215   13.2688
   13.1737   12.9327   12.7447   13.1619   13.0710   12.8957
   13.0955   13.4019   13.4692   13.2699   13.2215   13.0849
   13.1857   13.2688   13.1812   13.0159   13.1065   13.1048
   13.1847   13.1164   13.2875   13.2699   13.1330   13.0849
   13.0175   13.0849   13.2215   13.2540   13.1466   13.0282
   12.9808   13.0282   13.1466   13.2540   13.2215   13.0849
   13.0175
BAND:   4
   13.0175   13.0849   13.2215   13.2540   13.1466   14.0577
   14.9662   14.0577   13.1466   13.2540   13.2215   13.0849
   13.0175   13.0849   13.1330   13.2785   13.3689   13.3107
   13.1896   13.8633   13.7495   13.1998   13.3361   13.3511
   13.1988   13.0849   13.2215   13.2785   13.4692   13.6502
   13.6690   13.5676   13.4569   13.4064   13.4469   13.5768
   13.6368   13.3511   13.2215   13.2540   13.3689   13.6502
   13.9846   14.1476   14.0942   13.9733   13.8677   13.8115
   13.7754   13.5768   13.3361   13.2540   13.1466   13.3107
   13.6690   14.1476   14.5837   14.6512   14.5384   14.3796
   14.1541   13.8115   13.4469   13.1998   13.1466   14.0577
   13.1896   13.5676   14.0942   14.6512   15.0941   14.9746
   14.7783   14.3796   13.8677   13.4064   13.7495   14.0577
   14.9662   13.8633   13.4569   13.9733   14.5384   14.9746
   15.3006   14.9746   14.5384   13.9733   13.4569   13.8633
   14.9662   14.0577   13.7495   13.4064   13.8677   14.3796
   14.7783   14.9746   15.0941   14.6512   14.0942   13.5676
   13.1896   14.0577   13.1466   13.1998   13.4469   13.8115
   14.1541   14.3796   14.5384   14.6512   14.5837   14.1476
   13.6690   13.3107   13.1466   13.2540   13.3361   13.5768
   13.7754   13.8115   13.8677   13.9733   14.0942   14.1476
   13.9846   13.6502   13.3689   13.2540   13.2215   13.3511
   13.6368   13.5768   13.4469   13.4064   13.4569   13.5676
   13.6690   13.6502   13.4692   13.2785   13.2215   13.0849
   13.1988   13.3511   13.3361   13.1998   13.7495   13.8633
   13.1896   13.3107   13.3689   13.2785   13.1330   13.0849
   13.0175   13.0849   13.2215   13.2540   13.1466   14.0577
   14.9662   14.0577   13.1466   13.2540   13.2215   13.0849
   13.0175   13.0849   13.1330   13.2785   13.3689   13.3107
   13.1896   13.8633   13.7495   13.1998   13.3361   13.3511
   13.1988   13.0849   13.1330   13.0849   13.1988   13.3511
   13.3361   13.1998   13.7495   13.8633   13.1896   13.3107
   13.3689   13.2785   13.1330   13.2785   13.1988   13.2785
   13.4845   13.5958   13.4918   13.3781   13.3395   13.3781
   13.4918   13.5958   13.4845   13.2785   13.3689   13.3511
   13.4845   13.6502   13.9869   13.9942   13.8560   13.7298
   13.7117   13.8104   13.9348   13.5958   13.3689   13.3107
   13.3361   13.5958   13.9869   14.1476   14.5814   14.4492
   14.2391   14.0856   14.0141   13.8104   13.4918   13.3107
   13.1896   13.1998   13.4918   13.9942   14.5814   14.6512
   14.9182   14.6779   14.4015   14.0856   13.7117   13.3781
   13.1896   13.8633   13.7495   13.3781   13.8560   14.4492
   14.9182   14.9746   14.9282   14.6779   14.2391   13.7298
   13.3395   13.8633   13.7495   13.8633   13.3395   13.7298
   14.2391   14.6779   14.9282   14.9746   14.9182   14.4492
   13.8560   13.3781   13.7495   13.1998   13.1896   13.3781
   13.7117   14.0856   14.4015   14.6779   14.9182   14.6512
   14.5814   13.9942   13.4918   13.1998   13.3361   13.3107
   13.4918   13.8104   14.0141   14.0856   14.2391   14.4492
   14.5814   14.1476   13.9869   13.5958   13.3361   13.3511
   13.3689   13.5958   13.9348   13.8104   13.7117   13.7298
   13.8560   13.9942   13.9869   13.6502   13.4845   13.3511
   13.1988   13.2785   13.4845   13.5958   13.4918   13.3781
   13.3395   13.3781   13.4918   13.5958   13.4845   13.2785
   13.1988   13.0849   13.1330   13.2785   13.3689   13.3107
   13.1896   13.8633   13.7495   13.1998   13.3361   13.3511
   13.1988   13.0849   13.2215   13.2785   13.4692   13.6502
   13.6690   13.5676   13.4569   13.4064   13.4469   13.5768
   13.6368   13.3511   13.2215   13.2785   13.1988   13.2785
   13.4845   13.5958   13.4918   13.3781   13.3395   13.3781
   13.4918   13.5958   13.4845   13.2785   13.4692   13.2785
   13.2215   13.3511   13.6368   13.5768   13.4469   13.4064
   13.4569   13.5676   13.6690   13.6502   13.4692   13.6502
   13.4845   13.3511   13.3689   13.5958   13.9348   13.8104
   13.7117   13.7298   13.8560   13.9942   13.9869   13.6502
   13.6690   13.5958   13.6368   13.5958   13.6690   13.9942
   14.3171   14.1484   14.0396   14.1484   14.3171   13.9942
   13.6690   13.5676   13.4918   13.5768   13.9348   13.9942
   14.0942   14.4492   14.4963   14.2658   14.1812   14.1484
   13.8560   13.5676   13.4569   13.3781   13.4469   13.8104
   14.3171   14.4492   14.5384   14.6779   14.4852   14.2658
   14.0396   13.7298   13.4569   13.4064   13.3395   13.4064
   13.7117   14.1484   14.4963   14.6779   14.7783   14.6779
   14.4963   14.1484   13.7117   13.4064   13.4469   13.3781
   13.4569   13.7298   14.0396   14.2658   14.4852   14.6779
   14.5384   14.4492   14.3171   13.8104   13.4469   13.5768
   13.4918   13.5676   13.8560   14.1484   14.1812   14.2658
   14.4963   14.4492   14.0942   13.9942   13.9348   13.5768
   13.6368   13.5958   13.6690   13.9942   14.3171   14.1484
   14.0396   14.1484   14.3171   13.9942   13.6690   13.5958
   13.6368   13.3511   13.4845   13.6502   13.9869   13.9942
   13.8560   13.7298   13.7117   13.8104   13.9348   13.5958
   13.3689   13.3511   13.2215   13.2785   13.4692   13.6502
   13.6690   13.5676   13.4569   13.4064   13.4469   13.5768
   13.6368   13.3511   13.2215   13.2540   13.3689   13.6502
   13.9846   14.1476   14.0942   13.9733   13.8677   13.8115
   13.7754   13.5768   13.3361   13.2540   13.3689   13.3511
   13.4845   13.6502   13.9869   13.9942   13.8560   13.7298
   13.7117   13.8104   13.9348   13.5958   13.3689   13.6502
   13.4845   13.3511   13.3689   13.5958   13.9348   13.8104
   13.7117   13.7298   13.8560   13.9942   13.9869   13.6502
   13.9846   13.6502   13.3689   13.2540   13.3361   13.5768
   13.7754   13.8115   13.8677   13.9733   14.0942   14.1476
   13.9846   14.1476   13.9869   13.5958   13.3361   13.3107
   13.4918   13.8104   14.0141   14.0856   14.2391   14.4492
   14.5814   14.1476   14.0942   13.9942   13.9348   13.5768
   13.4918   13.5676   13.8560   14.1484   14.1812   14.2658
   14.4963   14.4492   14.0942   13.9733   13.8560   13.8104
   13.7754   13.8104   13.8560   13.9733   14.2391   14.2658
   14.1959   14.2658   14.2391   13.9733   13.8677   13.7298
   13.7117   13.8115   14.0141   14.1484   14.2391   14.3796
   14.4015   14.2658   14.1812   14.0856   13.8677   13.8115
   13.7117   13.7298   13.8677   14.0856   14.1812   14.2658
   14.4015   14.3796   14.2391   14.1484   14.0141   13.8115
   13.7754   13.8104   13.8560   13.9733   14.2391   14.2658
   14.1959   14.2658   14.2391   13.9733   13.8560   13.8104
   13.7754   13.5768   13.9348   13.9942   14.0942   14.4492
   14.4963   14.2658   14.1812   14.1484   13.8560   13.5676
   13.4918   13.5768   13.3361   13.5958   13.9869   14.1476
   14.5814   14.4492   14.2391   14.0856   14.0141   13.8104
   13.4918   13.3107   13.3361   13.2540   13.3689   13.6502
   13.9846   14.1476   14.0942   13.9733   13.8677   13.8115
   13.7754   13.5768   13.3361   13.2540   13.1466   13.3107
   13.6690   14.1476   14.5837   14.6512   14.5384   14.3796
   14.1541   13.8115   13.4469   13.1998   13.1466   13.3107
   13.3361   13.5958   13.9869   14.1476   14.5814   14.4492
   14.2391   14.0856   14.0141   13.8104   13.4918   13.3107