
     Program POST-PROC v.2.0    starts ...
     Today is  3Feb2004 at 11:47:55 

     nbndx  =     8  nbnd   =     8  natomwfc =     6  npwx   =     144
     nelec  =   10.00 nkb   =    18  ngl    =     104
  warning: negative or imaginary core charge    -0.000015    0.000000

     Calling projwave .... 
     Projections are written to both standard output and file

Projection on atomic states:

     state #  1: atom   1 (Ni ), wfc  1 (l=0 m= 1)
     state #  2: atom   1 (Ni ), wfc  2 (l=2 m= 1)
     state #  3: atom   1 (Ni ), wfc  2 (l=2 m= 2)
     state #  4: atom   1 (Ni ), wfc  2 (l=2 m= 3)
     state #  5: atom   1 (Ni ), wfc  2 (l=2 m= 4)
     state #  6: atom   1 (Ni ), wfc  2 (l=2 m= 5)

 k =   0.0000000000  0.0000000000  0.0000000000
     e =   5.7491941028 eV
     psi = 0.999*[#  1]+
    |psi|^2 = 0.999
     e =  12.6853738792 eV
     psi = 0.333*[#  4]+0.333*[#  3]+0.333*[#  6]+
    |psi|^2 = 1.000
     e =  12.6853738792 eV
     psi = 0.333*[#  4]+0.333*[#  3]+0.333*[#  6]+
    |psi|^2 = 1.000
     e =  12.6853738792 eV
     psi = 0.333*[#  4]+0.333*[#  3]+0.333*[#  6]+
    |psi|^2 = 1.000
     e =  13.9842856998 eV
     psi = 0.500*[#  2]+0.500*[#  5]+
    |psi|^2 = 0.999
     e =  13.9842856998 eV
     psi = 0.500*[#  5]+0.500*[#  2]+
    |psi|^2 = 0.999
     e =  39.8748381041 eV
     psi = 
    |psi|^2 = 0.000
     e =  44.2748119499 eV
     psi = 
    |psi|^2 = 0.000

 k =  -0.0833333333  0.0833333333 -0.0833333333
     e =   6.0376276240 eV
     psi = 0.998*[#  1]+
    |psi|^2 = 0.999
     e =  12.6074155645 eV
     psi = 0.333*[#  4]+0.333*[#  3]+0.333*[#  6]+
    |psi|^2 = 1.000
     e =  12.7517524746 eV
     psi = 0.332*[#  4]+0.332*[#  3]+0.332*[#  6]+0.002*[#  2]+0.002*[#  5]+
    |psi|^2 = 1.000
     e =  12.7517524746 eV
     psi = 0.332*[#  4]+0.332*[#  3]+0.332*[#  6]+0.002*[#  2]+0.002*[#  5]+
    |psi|^2 = 1.000
     e =  13.9567043145 eV
     psi = 0.498*[#  5]+0.498*[#  2]+0.001*[#  4]+0.001*[#  3]+0.001*[#  6]+
    |psi|^2 = 0.999
     e =  13.9567043145 eV
     psi = 0.498*[#  2]+0.498*[#  5]+0.001*[#  4]+0.001*[#  3]+0.001*[#  6]+
    |psi|^2 = 0.999
     e =  38.9815992754 eV
     psi = 
    |psi|^2 = 0.000
     e =  41.7514154395 eV
     psi = 
    |psi|^2 = 0.000

 k =  -0.1666666667  0.1666666667 -0.1666666667
     e =   6.8689290825 eV
     psi = 0.989*[#  1]+0.003*[#  4]+0.003*[#  3]+0.003*[#  6]+
    |psi|^2 = 0.999
     e =  12.4285039363 eV
     psi = 0.330*[#  4]+0.330*[#  6]+0.330*[#  3]+0.009*[#  1]+
    |psi|^2 = 0.999
     e =  12.8892932537 eV
     psi = 0.313*[#  4]+0.313*[#  3]+0.313*[#  6]+0.031*[#  2]+0.031*[#  5]+
    |psi|^2 = 1.000
     e =  12.8892932537 eV
     psi = 0.313*[#  4]+0.313*[#  3]+0.313*[#  6]+0.031*[#  5]+0.031*[#  2]+
    |psi|^2 = 1.000
     e =  13.9334399341 eV
     psi = 0.469*[#  5]+0.469*[#  2]+0.020*[#  4]+0.020*[#  3]+0.020*[#  6]+
    |psi|^2 = 0.999
     e =  13.9334399341 eV
     psi = 0.469*[#  2]+0.469*[#  5]+0.020*[#  4]+0.020*[#  3]+0.020*[#  6]+
    |psi|^2 = 0.999
     e =  35.0734563699 eV
     psi = 
    |psi|^2 = 0.001
     e =  40.7662164994 eV
     psi = 
    |psi|^2 = 0.000

 k =  -0.2500000000  0.2500000000 -0.2500000000
     e =   8.1021836796 eV
     psi = 0.927*[#  1]+0.024*[#  4]+0.024*[#  3]+0.024*[#  6]+
    |psi|^2 = 0.998
     e =  12.3268319123 eV
     psi = 0.308*[#  4]+0.308*[#  3]+0.308*[#  6]+0.071*[#  1]+
    |psi|^2 = 0.995
     e =  12.9332439094 eV
     psi = 0.243*[#  4]+0.243*[#  3]+0.243*[#  6]+0.135*[#  5]+0.135*[#  2]+
    |psi|^2 = 1.000
     e =  12.9332439094 eV
     psi = 0.243*[#  4]+0.243*[#  3]+0.243*[#  6]+0.135*[#  2]+0.135*[#  5]+
    |psi|^2 = 1.000
     e =  14.0672531136 eV
     psi = 0.365*[#  5]+0.365*[#  2]+0.090*[#  4]+0.090*[#  3]+0.090*[#  6]+
    |psi|^2 = 0.999
     e =  14.0672531136 eV
     psi = 0.365*[#  2]+0.365*[#  5]+0.090*[#  4]+0.090*[#  3]+0.090*[#  6]+
    |psi|^2 = 0.999
     e =  30.6335244361 eV
     psi = 0.001*[#  4]+0.001*[#  3]+0.001*[#  6]+
    |psi|^2 = 0.005
     e =  40.0743269794 eV
     psi = 
    |psi|^2 = 0.000

 k =  -0.3333333333  0.3333333333 -0.3333333333
     e =   9.3176650630 eV
     psi = 0.662*[#  1]+0.112*[#  4]+0.112*[#  3]+0.112*[#  6]+
    |psi|^2 = 0.997
     e =  12.7139436490 eV
     psi = 0.319*[#  1]+0.216*[#  4]+0.216*[#  3]+0.216*[#  6]+
    |psi|^2 = 0.968
     e =  12.8389321434 eV
     psi = 0.231*[#  5]+0.231*[#  2]+0.179*[#  4]+0.179*[#  3]+0.179*[#  6]+
    |psi|^2 = 1.000
     e =  12.8389321434 eV
     psi = 0.231*[#  2]+0.231*[#  5]+0.179*[#  4]+0.179*[#  3]+0.179*[#  6]+
    |psi|^2 = 1.000
     e =  14.3649820465 eV
     psi = 0.269*[#  5]+0.269*[#  2]+0.154*[#  4]+0.154*[#  3]+0.154*[#  6]+
    |psi|^2 = 0.999
     e =  14.3649820465 eV
     psi = 0.269*[#  2]+0.269*[#  5]+0.154*[#  4]+0.154*[#  3]+0.154*[#  6]+
    |psi|^2 = 0.999
     e =  26.5372354541 eV
     psi = 0.014*[#  1]+0.005*[#  4]+0.005*[#  3]+0.005*[#  6]+
    |psi|^2 = 0.030
     e =  39.2228621870 eV
     psi = 
    |psi|^2 = 0.000

 k =  -0.4166666667  0.4166666667 -0.4166666667
     e =   9.9099504758 eV
     psi = 0.295*[#  1]+0.234*[#  4]+0.234*[#  3]+0.234*[#  6]+
    |psi|^2 = 0.996
     e =  12.7279352069 eV
     psi = 0.275*[#  5]+0.275*[#  2]+0.150*[#  4]+0.150*[#  6]+0.150*[#  3]+
    |psi|^2 = 1.000
     e =  12.7279352069 eV
     psi = 0.275*[#  2]+0.275*[#  5]+0.150*[#  4]+0.150*[#  3]+0.150*[#  6]+
    |psi|^2 = 1.000
     e =  13.9861888595 eV
     psi = 0.500*[#  1]+0.077*[#  4]+0.077*[#  3]+0.077*[#  6]+
    |psi|^2 = 0.730
     e =  14.6431044199 eV
     psi = 0.225*[#  2]+0.225*[#  5]+0.183*[#  4]+0.183*[#  3]+0.183*[#  6]+
    |psi|^2 = 0.999
     e =  14.6431044199 eV
     psi = 0.225*[#  5]+0.225*[#  2]+0.183*[#  4]+0.183*[#  3]+0.183*[#  6]+
    |psi|^2 = 0.999
     e =  23.1445492076 eV
     psi = 0.189*[#  1]+0.023*[#  4]+0.023*[#  3]+0.023*[#  6]+
    |psi|^2 = 0.257
     e =  38.5668674772 eV
     psi = 
    |psi|^2 = 0.000

 k =   0.5000000000 -0.5000000000  0.5000000000
     e =  10.0270804083 eV
     psi = 0.275*[#  4]+0.275*[#  3]+0.275*[#  6]+0.174*[#  1]+
    |psi|^2 = 0.998
     e =  12.6829346070 eV
     psi = 0.287*[#  5]+0.287*[#  2]+0.142*[#  4]+0.142*[#  3]+0.142*[#  6]+
    |psi|^2 = 1.000
     e =  12.6829346070 eV
     psi = 0.287*[#  2]+0.287*[#  5]+0.142*[#  4]+0.142*[#  3]+0.142*[#  6]+
    |psi|^2 = 1.000
     e =  14.7534451797 eV
     psi = 0.213*[#  5]+0.213*[#  2]+0.191*[#  4]+0.191*[#  3]+0.191*[#  6]+
    |psi|^2 = 0.999
     e =  14.7534451797 eV
     psi = 0.213*[#  2]+0.213*[#  5]+0.191*[#  4]+0.191*[#  3]+0.191*[#  6]+
    |psi|^2 = 0.999
     e =  14.9658871254 eV
     psi = 
    |psi|^2 = 0.000
     e =  21.5360338512 eV
     psi = 0.791*[#  1]+0.058*[#  4]+0.058*[#  3]+0.058*[#  6]+
    |psi|^2 = 0.966
     e =  38.3260866140 eV
     psi = 
    |psi|^2 = 0.000

 k =   0.0000000000  0.1666666667  0.0000000000
     e =   6.1332033173 eV
     psi = 0.998*[#  1]+
    |psi|^2 = 0.999
     e =  12.5396557884 eV
     psi = 0.333*[#  4]+0.333*[#  3]+0.333*[#  6]+
    |psi|^2 = 1.000
     e =  12.7994095693 eV
     psi = 0.333*[#  4]+0.333*[#  3]+0.333*[#  6]+
    |psi|^2 = 1.000
     e =  12.7994095693 eV
     psi = 0.333*[#  4]+0.333*[#  3]+0.333*[#  6]+
    |psi|^2 = 1.000
     e =  13.8502430672 eV
     psi = 0.499*[#  5]+0.499*[#  2]+
    |psi|^2 = 1.000
     e =  14.0365851617 eV
     psi = 0.500*[#  5]+0.500*[#  2]+
    |psi|^2 = 0.999
     e =  39.3164268213 eV
     psi = 
    |psi|^2 = 0.000
     e =  42.0877613284 eV
     psi = 
    |psi|^2 = 0.000

 k =  -0.0833333333  0.2500000000 -0.0833333333
     e =   6.7828444951 eV
     psi = 0.992*[#  1]+0.001*[#  5]+0.001*[#  2]+0.001*[#  4]+0.001*[#  3]+
          +0.001*[#  6]+
    |psi|^2 = 0.999
     e =  12.3629147558 eV
     psi = 0.333*[#  4]+0.333*[#  3]+0.333*[#  6]+0.001*[#  1]+
    |psi|^2 = 0.999
     e =  12.9363744115 eV
     psi = 0.322*[#  4]+0.322*[#  3]+0.322*[#  6]+0.017*[#  2]+0.017*[#  5]+
          +0.001*[#  1]+
    |psi|^2 = 1.000
     e =  12.9442205010 eV
     psi = 0.324*[#  4]+0.324*[#  3]+0.324*[#  6]+0.014*[#  5]+0.014*[#  2]+
    |psi|^2 = 1.000
     e =  13.7359374948 eV
     psi = 0.482*[#  5]+0.482*[#  2]+0.011*[#  4]+0.011*[#  3]+0.011*[#  6]+
          +0.004*[#  1]+
    |psi|^2 = 1.000
     e =  14.0831056335 eV
     psi = 0.486*[#  5]+0.486*[#  2]+0.009*[#  4]+0.009*[#  6]+0.009*[#  3]+
    |psi|^2 = 0.999
     e =  36.7376014850 eV
     psi = 
    |psi|^2 = 0.001
     e =  40.0525682847 eV
     psi = 
    |psi|^2 = 0.000

 k =  -0.1666666667  0.3333333333 -0.1666666667
     e =   7.8918599342 eV
     psi = 0.954*[#  1]+0.012*[#  4]+0.012*[#  3]+0.012*[#  6]+0.004*[#  5]+
          +0.004*[#  2]+
    |psi|^2 = 0.998
     e =  12.1902884936 eV
     psi = 0.325*[#  4]+0.325*[#  3]+0.325*[#  6]+0.021*[#  1]+
    |psi|^2 = 0.997
     e =  12.9698782597 eV
     psi = 0.232*[#  4]+0.232*[#  3]+0.232*[#  6]+0.152*[#  2]+0.152*[#  5]+
          +0.002*[#  1]+
    |psi|^2 = 1.000
     e =  13.0417328463 eV
     psi = 0.274*[#  4]+0.274*[#  3]+0.274*[#  6]+0.089*[#  5]+0.089*[#  2]+
    |psi|^2 = 1.000
     e =  13.8398939926 eV
     psi = 0.343*[#  5]+0.343*[#  2]+0.097*[#  4]+0.097*[#  3]+0.097*[#  6]+
          +0.021*[#  1]+
    |psi|^2 = 0.999
     e =  14.2058893118 eV
     psi = 0.410*[#  5]+0.410*[#  2]+0.060*[#  4]+0.060*[#  3]+0.060*[#  6]+
    |psi|^2 = 0.999
     e =  32.2749467526 eV
     psi = 
    |psi|^2 = 0.003
     e =  39.3324877164 eV
     psi = 
    |psi|^2 = 0.000

 k =  -0.2500000000  0.4166666667 -0.2500000000
     e =   9.1643563197 eV
     psi = 0.770*[#  1]+0.069*[#  4]+0.069*[#  3]+0.069*[#  6]+0.009*[#  5]+
          +0.009*[#  2]+
    |psi|^2 = 0.997
     e =  12.2728536017 eV
     psi = 0.273*[#  4]+0.273*[#  6]+0.273*[#  3]+0.139*[#  1]+0.015*[#  2]+
          +0.015*[#  5]+
    |psi|^2 = 0.988
     e =  12.8137967466 eV
     psi = 0.259*[#  2]+0.259*[#  5]+0.161*[#  4]+0.161*[#  3]+0.161*[#  6]+
    |psi|^2 = 1.000
     e =  12.9963604496 eV
     psi = 0.205*[#  4]+0.205*[#  3]+0.205*[#  6]+0.193*[#  5]+0.193*[#  2]+
    |psi|^2 = 1.000
     e =  14.3030032061 eV
     psi = 0.216*[#  5]+0.216*[#  2]+0.161*[#  4]+0.161*[#  3]+0.161*[#  6]+
          +0.081*[#  1]+
    |psi|^2 = 0.996
     e =  14.4537704396 eV
     psi = 0.307*[#  5]+0.307*[#  2]+0.129*[#  4]+0.129*[#  3]+0.129*[#  6]+
    |psi|^2 = 0.999
     e =  28.0204206982 eV
     psi = 0.006*[#  1]+0.003*[#  4]+0.003*[#  3]+0.003*[#  6]+
    |psi|^2 = 0.015
     e =  38.5691284781 eV
     psi = 
    |psi|^2 = 0.000

 k =  -0.3333333333  0.5000000000 -0.3333333333
     e =   9.9700029728 eV
     psi = 0.380*[#  1]+0.201*[#  4]+0.201*[#  6]+0.201*[#  3]+0.007*[#  5]+
          +0.007*[#  2]+
    |psi|^2 = 0.996
     e =  12.6321839891 eV
     psi = 0.339*[#  2]+0.339*[#  5]+0.101*[#  4]+0.101*[#  3]+0.101*[#  6]+
          +0.013*[#  1]+
    |psi|^2 = 0.993
     e =  12.8849041062 eV
     psi = 0.258*[#  5]+0.258*[#  2]+0.161*[#  4]+0.161*[#  3]+0.161*[#  6]+
    |psi|^2 = 1.000
     e =  12.9786006260 eV
     psi = 0.260*[#  1]+0.213*[#  4]+0.213*[#  3]+0.213*[#  6]+0.018*[#  2]+
          +0.018*[#  5]+
    |psi|^2 = 0.933
     e =  14.6890247487 eV
     psi = 0.242*[#  5]+0.242*[#  2]+0.172*[#  4]+0.172*[#  3]+0.172*[#  6]+
    |psi|^2 = 0.999
     e =  15.0792119132 eV
     psi = 0.248*[#  1]+0.139*[#  4]+0.139*[#  3]+0.139*[#  6]+0.137*[#  5]+
          +0.137*[#  2]+
    |psi|^2 = 0.939
     e =  24.3010016945 eV
     psi = 0.086*[#  1]+0.013*[#  4]+0.013*[#  3]+0.013*[#  6]+
    |psi|^2 = 0.124
     e =  37.8074930270 eV
     psi = 
    |psi|^2 = 0.000

 k =   0.5833333333 -0.4166666667  0.5833333333
     e =  10.1841528113 eV
     psi = 0.273*[#  4]+0.273*[#  3]+0.273*[#  6]+0.177*[#  1]+
    |psi|^2 = 0.997
     e =  12.5574210851 eV
     psi = 0.331*[#  5]+0.331*[#  2]+0.110*[#  4]+0.110*[#  3]+0.110*[#  6]+
    |psi|^2 = 0.993
     e =  12.8050897350 eV
     psi = 0.288*[#  5]+0.288*[#  2]+0.141*[#  4]+0.141*[#  3]+0.141*[#  6]+
    |psi|^2 = 1.000
     e =  13.6602931248 eV
     psi = 0.181*[#  4]+0.181*[#  3]+0.181*[#  6]+0.104*[#  5]+0.104*[#  2]+
          +0.037*[#  1]+
    |psi|^2 = 0.786
     e =  14.7607015067 eV
     psi = 0.211*[#  5]+0.211*[#  2]+0.192*[#  4]+0.192*[#  3]+0.192*[#  6]+
    |psi|^2 = 0.999
     e =  16.1183789270 eV
     psi = 0.097*[#  1]+0.064*[#  5]+0.064*[#  2]+0.054*[#  4]+0.054*[#  3]+
          +0.054*[#  6]+
    |psi|^2 = 0.388
     e =  21.8005339947 eV
     psi = 0.653*[#  1]+0.048*[#  4]+0.048*[#  3]+0.048*[#  6]+
    |psi|^2 = 0.797
     e =  37.1462390734 eV
     psi = 
    |psi|^2 = 0.001

 k =   0.5000000000 -0.3333333333  0.5000000000
     e =  10.1548952440 eV
     psi = 0.260*[#  4]+0.260*[#  3]+0.260*[#  6]+0.216*[#  1]+
    |psi|^2 = 0.997
     e =  12.5912389622 eV
     psi = 0.312*[#  2]+0.312*[#  5]+0.123*[#  4]+0.123*[#  3]+0.123*[#  6]+
          +0.002*[#  1]+
    |psi|^2 = 0.996
     e =  12.8072441370 eV
     psi = 0.295*[#  5]+0.295*[#  2]+0.136*[#  4]+0.136*[#  3]+0.136*[#  6]+
    |psi|^2 = 1.000
     e =  13.5661381670 eV
     psi = 0.165*[#  4]+0.165*[#  3]+0.165*[#  6]+0.127*[#  1]+0.098*[#  5]+
          +0.098*[#  2]+
    |psi|^2 = 0.818
     e =  14.6095025618 eV
     psi = 0.204*[#  5]+0.204*[#  2]+0.197*[#  4]+0.197*[#  3]+0.197*[#  6]+
    |psi|^2 = 0.999
     e =  15.8808712823 eV
     psi = 0.242*[#  1]+0.089*[#  5]+0.089*[#  2]+0.084*[#  4]+0.084*[#  3]+
          +0.084*[#  6]+
    |psi|^2 = 0.673
     e =  22.4066301978 eV
     psi = 0.386*[#  1]+0.033*[#  4]+0.033*[#  3]+0.033*[#  6]+
    |psi|^2 = 0.487
     e =  36.6989209889 eV
     psi = 0.002*[#  1]+
    |psi|^2 = 0.003

 k =   0.4166666667 -0.2500000000  0.4166666667
     e =   9.7927709558 eV
     psi = 0.511*[#  1]+0.159*[#  4]+0.159*[#  3]+0.159*[#  6]+0.004*[#  2]+
          +0.004*[#  5]+
    |psi|^2 = 0.996
     e =  12.7095265635 eV
     psi = 0.228*[#  4]+0.228*[#  3]+0.228*[#  6]+0.133*[#  2]+0.133*[#  5]+
          +0.043*[#  1]+
    |psi|^2 = 0.994
     e =  12.7446237425 eV
     psi = 0.243*[#  1]+0.170*[#  2]+0.170*[#  5]+0.125*[#  4]+0.125*[#  3]+
          +0.125*[#  6]+
    |psi|^2 = 0.960
     e =  12.8960026438 eV
     psi = 0.274*[#  5]+0.274*[#  2]+0.150*[#  4]+0.150*[#  3]+0.150*[#  6]+
    |psi|^2 = 1.000
     e =  14.2803066640 eV
     psi = 0.226*[#  5]+0.226*[#  2]+0.183*[#  4]+0.183*[#  3]+0.183*[#  6]+
    |psi|^2 = 0.999
     e =  15.0459511513 eV
     psi = 0.192*[#  2]+0.192*[#  5]+0.158*[#  1]+0.146*[#  4]+0.146*[#  3]+
          +0.146*[#  6]+
    |psi|^2 = 0.980
     e =  25.4664736722 eV
     psi = 0.036*[#  1]+0.008*[#  4]+0.008*[#  3]+0.008*[#  6]+
    |psi|^2 = 0.060
     e =  36.5872487518 eV
     psi = 
    |psi|^2 = 0.001

 k =   0.3333333333 -0.1666666667  0.3333333333
     e =   8.7617048128 eV
     psi = 0.863*[#  1]+0.042*[#  4]+0.042*[#  6]+0.042*[#  3]+0.004*[#  2]+
          +0.004*[#  5]+
    |psi|^2 = 0.998
     e =  12.2308361710 eV
     psi = 0.303*[#  4]+0.303*[#  3]+0.303*[#  6]+0.080*[#  1]+0.002*[#  5]+
          +0.002*[#  2]+
    |psi|^2 = 0.993
     e =  12.8745779620 eV
     psi = 0.206*[#  2]+0.206*[#  5]+0.193*[#  4]+0.193*[#  3]+0.193*[#  6]+
          +0.008*[#  1]+
    |psi|^2 = 0.999
     e =  13.0198459545 eV
     psi = 0.207*[#  4]+0.207*[#  3]+0.207*[#  6]+0.190*[#  5]+0.190*[#  2]+
    |psi|^2 = 1.000
     e =  13.9083888293 eV
     psi = 0.310*[#  5]+0.310*[#  2]+0.127*[#  4]+0.127*[#  3]+0.127*[#  6]+
    |psi|^2 = 0.999
     e =  14.5272703956 eV
     psi = 0.288*[#  5]+0.288*[#  2]+0.126*[#  4]+0.126*[#  3]+0.126*[#  6]+
          +0.044*[#  1]+
    |psi|^2 = 0.998
     e =  29.4010525979 eV
     psi = 0.002*[#  1]+0.002*[#  4]+0.002*[#  3]+0.002*[#  6]+
    |psi|^2 = 0.008
     e =  36.8644599679 eV
     psi = 
    |psi|^2 = 0.001

 k =   0.2500000000 -0.0833333333  0.2500000000
     e =   7.4835959607 eV
     psi = 0.975*[#  1]+0.007*[#  4]+0.007*[#  3]+0.007*[#  6]+0.001*[#  2]+
          +0.001*[#  5]+
    |psi|^2 = 0.999
     e =  12.2751154615 eV
     psi = 0.330*[#  4]+0.330*[#  3]+0.330*[#  6]+0.008*[#  1]+
    |psi|^2 = 0.998
     e =  12.9469092420 eV
     psi = 0.267*[#  4]+0.267*[#  3]+0.267*[#  6]+0.096*[#  2]+0.096*[#  5]+
          +0.006*[#  1]+
    |psi|^2 = 1.000
     e =  13.0163174644 eV
     psi = 0.310*[#  4]+0.310*[#  3]+0.310*[#  6]+0.035*[#  5]+0.035*[#  2]+
    |psi|^2 = 1.000
     e =  13.7304642120 eV
     psi = 0.465*[#  5]+0.465*[#  2]+0.023*[#  4]+0.023*[#  3]+0.023*[#  6]+
    |psi|^2 = 1.000
     e =  14.1862338886 eV
     psi = 0.402*[#  5]+0.402*[#  2]+0.062*[#  4]+0.062*[#  3]+0.062*[#  6]+
          +0.010*[#  1]+
    |psi|^2 = 0.999
     e =  33.7617885297 eV
     psi = 
    |psi|^2 = 0.002
     e =  37.5038093400 eV
     psi = 
    |psi|^2 = 0.000

 k =   0.1666666667  0.0000000000  0.1666666667
     e =   6.5076550999 eV
     psi = 0.996*[#  1]+
    |psi|^2 = 0.999
     e =  12.4705298849 eV
     psi = 0.333*[#  4]+0.333*[#  3]+0.333*[#  6]+
    |psi|^2 = 0.999
     e =  12.8501638323 eV
     psi = 0.333*[#  4]+0.333*[#  3]+0.333*[#  6]+
    |psi|^2 = 1.000
     e =  12.8673202909 eV
     psi = 0.320*[#  4]+0.320*[#  3]+0.320*[#  6]+0.019*[#  2]+0.019*[#  5]+
          +0.002*[#  1]+
    |psi|^2 = 1.000
     e =  13.8222297211 eV
     psi = 0.500*[#  5]+0.500*[#  2]+
    |psi|^2 = 1.000
     e =  14.0312308163 eV
     psi = 0.481*[#  5]+0.481*[#  2]+0.012*[#  4]+0.012*[#  3]+0.012*[#  6]+
          +0.001*[#  1]+
    |psi|^2 = 0.999
     e =  37.7039999037 eV
     psi = 
    |psi|^2 = 0.001
     e =  39.0398396388 eV
     psi = 
    |psi|^2 = 0.000

 k =   0.0000000000  0.3333333333  0.0000000000
     e =   7.2302861410 eV
     psi = 0.984*[#  1]+0.007*[#  2]+0.007*[#  5]+
    |psi|^2 = 0.999
     e =  12.1512180068 eV
     psi = 0.333*[#  4]+0.333*[#  3]+0.333*[#  6]+
    |psi|^2 = 0.999
     e =  13.1305640156 eV
     psi = 0.333*[#  4]+0.333*[#  3]+0.333*[#  6]+
    |psi|^2 = 1.000
     e =  13.1305640157 eV
     psi = 0.333*[#  4]+0.333*[#  3]+0.333*[#  6]+
    |psi|^2 = 1.000
     e =  13.5220831445 eV
     psi = 0.493*[#  2]+0.493*[#  5]+0.014*[#  1]+
    |psi|^2 = 1.000
     e =  14.1806659534 eV
     psi = 0.500*[#  5]+0.500*[#  2]+
    |psi|^2 = 0.999
     e =  38.2950183014 eV
     psi = 
    |psi|^2 = 0.001
     e =  38.7732331186 eV
     psi = 
    |psi|^2 = 0.000

 k =  -0.0833333333  0.4166666667 -0.0833333333
     e =   8.1433043660 eV
     psi = 0.943*[#  1]+0.022*[#  5]+0.022*[#  2]+0.004*[#  4]+0.004*[#  3]+
          +0.004*[#  6]+
    |psi|^2 = 0.998
     e =  11.9223346177 eV
     psi = 0.332*[#  4]+0.332*[#  6]+0.332*[#  3]+0.001*[#  1]+
    |psi|^2 = 0.998
     e =  13.0971774466 eV
     psi = 0.248*[#  2]+0.248*[#  5]+0.166*[#  4]+0.166*[#  3]+0.166*[#  6]+
          +0.007*[#  1]+
    |psi|^2 = 1.000
     e =  13.3130210769 eV
     psi = 0.307*[#  4]+0.307*[#  3]+0.307*[#  6]+0.039*[#  5]+0.039*[#  2]+
    |psi|^2 = 1.000
     e =  13.6811085264 eV
     psi = 0.229*[#  5]+0.229*[#  2]+0.165*[#  4]+0.165*[#  3]+0.165*[#  6]+
          +0.046*[#  1]+
    |psi|^2 = 0.999
     e =  14.3008623286 eV
     psi = 0.460*[#  5]+0.460*[#  2]+0.026*[#  4]+0.026*[#  6]+0.026*[#  3]+
    |psi|^2 = 0.999
     e =  34.2736055750 eV
     psi = 
    |psi|^2 = 0.001
     e =  37.4012712138 eV
     psi = 
    |psi|^2 = 0.000

 k =  -0.1666666667  0.5000000000 -0.1666666667
     e =   9.3155495568 eV
     psi = 0.796*[#  1]+0.053*[#  5]+0.053*[#  2]+0.032*[#  4]+0.032*[#  3]+
          +0.032*[#  6]+
    |psi|^2 = 0.997
     e =  11.8011563069 eV
     psi = 0.314*[#  4]+0.314*[#  3]+0.314*[#  6]+0.027*[#  1]+0.014*[#  2]+
          +0.014*[#  5]+
    |psi|^2 = 0.995
     e =  12.8050460613 eV
     psi = 0.285*[#  2]+0.285*[#  5]+0.137*[#  4]+0.137*[#  3]+0.137*[#  6]+
          +0.019*[#  1]+
    |psi|^2 = 0.999
     e =  13.3439715978 eV
     psi = 0.233*[#  4]+0.233*[#  3]+0.233*[#  6]+0.150*[#  5]+0.150*[#  2]+
    |psi|^2 = 1.000
     e =  14.3778069038 eV
     psi = 0.182*[#  4]+0.182*[#  3]+0.182*[#  6]+0.152*[#  1]+0.149*[#  5]+
          +0.149*[#  2]+
    |psi|^2 = 0.995
     e =  14.5200666283 eV
     psi = 0.349*[#  5]+0.349*[#  2]+0.100*[#  4]+0.100*[#  3]+0.100*[#  6]+
    |psi|^2 = 0.999
     e =  29.9051497443 eV
     psi = 0.002*[#  1]+0.001*[#  4]+0.001*[#  3]+0.001*[#  6]+
    |psi|^2 = 0.007
     e =  36.5926097571 eV
     psi = 
    |psi|^2 = 0.000

 k =  -0.2500000000  0.5833333333 -0.2500000000
     e =  10.2449794244 eV
     psi = 0.439*[#  1]+0.143*[#  4]+0.143*[#  3]+0.143*[#  6]+0.063*[#  5]+
          +0.063*[#  2]+
    |psi|^2 = 0.994
     e =  11.9808646121 eV
     psi = 0.184*[#  4]+0.184*[#  3]+0.184*[#  6]+0.169*[#  2]+0.169*[#  5]+
          +0.090*[#  1]+
    |psi|^2 = 0.979
     e =  12.6088615976 eV
     psi = 0.202*[#  4]+0.202*[#  3]+0.202*[#  6]+0.167*[#  2]+0.167*[#  5]+
          +0.056*[#  1]+
    |psi|^2 = 0.997
     e =  13.2545091177 eV
     psi = 0.240*[#  5]+0.240*[#  2]+0.173*[#  4]+0.173*[#  3]+0.173*[#  6]+
    |psi|^2 = 1.000
     e =  14.7330046523 eV
     psi = 0.259*[#  5]+0.259*[#  2]+0.160*[#  4]+0.160*[#  3]+0.160*[#  6]+
    |psi|^2 = 0.999
     e =  15.5275194388 eV
     psi = 0.363*[#  1]+0.132*[#  4]+0.132*[#  3]+0.132*[#  6]+0.099*[#  5]+
          +0.099*[#  2]+
    |psi|^2 = 0.956
     e =  25.9266473953 eV
     psi = 0.038*[#  1]+0.006*[#  4]+0.006*[#  3]+0.006*[#  6]+
    |psi|^2 = 0.057
     e =  35.4483171204 eV
     psi = 0.002*[#  1]+
    |psi|^2 = 0.003

 k =   0.6666666667 -0.3333333333  0.6666666667
     e =  10.5751133180 eV
     psi = 0.260*[#  4]+0.260*[#  3]+0.260*[#  6]+0.175*[#  1]+0.021*[#  5]+
          +0.021*[#  2]+
    |psi|^2 = 0.996
     e =  12.1599754473 eV
     psi = 0.431*[#  2]+0.431*[#  5]+0.032*[#  4]+0.032*[#  6]+0.032*[#  3]+
          +0.009*[#  1]+
    |psi|^2 = 0.968
     e =  12.8093288137 eV
     psi = 0.291*[#  4]+0.291*[#  3]+0.291*[#  6]+0.065*[#  1]+0.002*[#  5]+
          +0.002*[#  2]+
    |psi|^2 = 0.942
     e =  13.1517666642 eV
     psi = 0.293*[#  5]+0.293*[#  2]+0.138*[#  4]+0.138*[#  3]+0.138*[#  6]+
    |psi|^2 = 1.000
     e =  14.7808409135 eV
     psi = 0.207*[#  5]+0.207*[#  2]+0.195*[#  4]+0.195*[#  3]+0.195*[#  6]+
    |psi|^2 = 0.999
     e =  17.1646639520 eV
     psi = 0.320*[#  1]+0.055*[#  4]+0.055*[#  3]+0.055*[#  6]+0.046*[#  5]+
          +0.046*[#  2]+
    |psi|^2 = 0.579
     e =  22.6982013157 eV
     psi = 0.388*[#  1]+0.027*[#  4]+0.027*[#  3]+0.027*[#  6]+
    |psi|^2 = 0.468
     e =  34.0424180732 eV
     psi = 0.012*[#  1]+
    |psi|^2 = 0.013

 k =   0.5833333333 -0.2500000000  0.5833333333
     e =  10.6343531227 eV
     psi = 0.283*[#  4]+0.283*[#  3]+0.283*[#  6]+0.148*[#  1]+
    |psi|^2 = 0.996
     e =  12.2217127074 eV
     psi = 0.421*[#  2]+0.421*[#  5]+0.044*[#  4]+0.044*[#  3]+0.044*[#  6]+
          +0.004*[#  1]+
    |psi|^2 = 0.978
     e =  12.9188762878 eV
     psi = 0.268*[#  4]+0.268*[#  3]+0.268*[#  6]+0.044*[#  5]+0.044*[#  2]+
          +0.010*[#  1]+
    |psi|^2 = 0.902
     e =  13.1052524386 eV
     psi = 0.322*[#  5]+0.322*[#  2]+0.119*[#  4]+0.119*[#  3]+0.119*[#  6]+
    |psi|^2 = 1.000
     e =  14.6000277988 eV
     psi = 0.214*[#  4]+0.214*[#  3]+0.214*[#  6]+0.178*[#  5]+0.178*[#  2]+
    |psi|^2 = 0.999
     e =  17.7087920686 eV
     psi = 0.147*[#  1]+0.034*[#  2]+0.034*[#  5]+0.032*[#  4]+0.032*[#  3]+
          +0.032*[#  6]+
    |psi|^2 = 0.312
     e =  22.0220963274 eV
     psi = 0.634*[#  1]+0.039*[#  4]+0.039*[#  3]+0.039*[#  6]+
    |psi|^2 = 0.751
     e =  33.0195977476 eV
     psi = 0.021*[#  1]+
    |psi|^2 = 0.022

 k =   0.5000000000 -0.1666666667  0.5000000000
     e =  10.4896455149 eV
     psi = 0.338*[#  1]+0.212*[#  4]+0.212*[#  3]+0.212*[#  6]+0.010*[#  2]+
          +0.010*[#  5]+
    |psi|^2 = 0.993
     e =  12.3945797729 eV
     psi = 0.386*[#  5]+0.386*[#  2]+0.062*[#  4]+0.062*[#  3]+0.062*[#  6]+
          +0.028*[#  1]+
    |psi|^2 = 0.987
     e =  12.4814557260 eV
     psi = 0.278*[#  4]+0.278*[#  3]+0.278*[#  6]+0.111*[#  1]+0.011*[#  5]+
          +0.011*[#  2]+
    |psi|^2 = 0.966
     e =  13.1459790077 eV
     psi = 0.334*[#  5]+0.334*[#  2]+0.111*[#  4]+0.111*[#  3]+0.111*[#  6]+
    |psi|^2 = 1.000
     e =  14.2314786037 eV
     psi = 0.222*[#  4]+0.222*[#  3]+0.222*[#  6]+0.166*[#  5]+0.166*[#  2]+
    |psi|^2 = 0.999
     e =  16.3515098787 eV
     psi = 0.414*[#  1]+0.104*[#  4]+0.104*[#  3]+0.104*[#  6]+0.093*[#  2]+
          +0.093*[#  5]+
    |psi|^2 = 0.911
     e =  24.7824990834 eV
     psi = 0.085*[#  1]+0.010*[#  4]+0.010*[#  3]+0.010*[#  6]+
    |psi|^2 = 0.115
     e =  32.4936922027 eV
     psi = 0.010*[#  1]+
    |psi|^2 = 0.012

 k =   0.4166666667 -0.0833333333  0.4166666667
     e =   9.7554086385 eV
     psi = 0.734*[#  1]+0.076*[#  4]+0.076*[#  3]+0.076*[#  6]+0.017*[#  2]+
          +0.017*[#  5]+
    |psi|^2 = 0.995
     e =  12.0412637186 eV
     psi = 0.314*[#  4]+0.314*[#  3]+0.314*[#  6]+0.040*[#  1]+0.005*[#  5]+
          +0.005*[#  2]+
    |psi|^2 = 0.993
     e =  12.6478612584 eV
     psi = 0.293*[#  2]+0.293*[#  5]+0.132*[#  4]+0.132*[#  3]+0.132*[#  6]+
          +0.015*[#  1]+
    |psi|^2 = 0.997
     e =  13.2701233973 eV
     psi = 0.306*[#  5]+0.306*[#  2]+0.130*[#  4]+0.130*[#  3]+0.130*[#  6]+
    |psi|^2 = 1.000
     e =  13.7837071519 eV
     psi = 0.204*[#  4]+0.204*[#  3]+0.204*[#  6]+0.194*[#  5]+0.194*[#  2]+
    |psi|^2 = 1.000
     e =  15.3107280323 eV
     psi = 0.196*[#  1]+0.185*[#  2]+0.185*[#  5]+0.141*[#  4]+0.141*[#  3]+
          +0.141*[#  6]+
    |psi|^2 = 0.991
     e =  28.5708233567 eV
     psi = 0.006*[#  1]+0.002*[#  4]+0.002*[#  3]+0.002*[#  6]+
    |psi|^2 = 0.014
     e =  32.4911926724 eV
     psi = 0.003*[#  1]+
    |psi|^2 = 0.005

 k =   0.3333333333  0.0000000000  0.3333333333
     e =   8.5396254243 eV
     psi = 0.924*[#  1]+0.020*[#  4]+0.020*[#  3]+0.020*[#  6]+0.007*[#  2]+
          +0.007*[#  5]+
    |psi|^2 = 0.998
     e =  12.0720322608 eV
     psi = 0.332*[#  4]+0.332*[#  3]+0.332*[#  6]+
    |psi|^2 = 0.997
     e =  12.8704628669 eV
     psi = 0.205*[#  5]+0.205*[#  2]+0.192*[#  4]+0.192*[#  3]+0.192*[#  6]+
          +0.013*[#  1]+
    |psi|^2 = 0.999
     e =  13.2917306145 eV
     psi = 0.333*[#  4]+0.333*[#  3]+0.333*[#  6]+
    |psi|^2 = 1.000
     e =  13.5346945378 eV
     psi = 0.500*[#  5]+0.500*[#  2]+
    |psi|^2 = 1.000
     e =  14.6309284799 eV
     psi = 0.287*[#  2]+0.287*[#  5]+0.121*[#  4]+0.121*[#  3]+0.121*[#  6]+
          +0.060*[#  1]+
    |psi|^2 = 0.998
     e =  32.5239620595 eV
     psi = 
    |psi|^2 = 0.003
     e =  33.2897639971 eV
     psi = 
    |psi|^2 = 0.002

 k =   0.0000000000  0.5000000000  0.0000000000
     e =   8.7855989667 eV
     psi = 0.865*[#  1]+0.066*[#  5]+0.066*[#  2]+
    |psi|^2 = 0.997
     e =  11.6433091815 eV
     psi = 0.333*[#  4]+0.333*[#  3]+0.333*[#  6]+
    |psi|^2 = 0.998
     e =  13.3074956620 eV
     psi = 0.433*[#  2]+0.433*[#  5]+0.131*[#  1]+
    |psi|^2 = 0.998
     e =  13.6369581211 eV
     psi = 0.333*[#  4]+0.333*[#  3]+0.333*[#  6]+
    |psi|^2 = 0.999
     e =  13.6369581211 eV
     psi = 0.333*[#  4]+0.333*[#  3]+0.333*[#  6]+
    |psi|^2 = 0.999
     e =  14.3804047207 eV
     psi = 0.499*[#  5]+0.499*[#  2]+
    |psi|^2 = 0.999
     e =  35.6927101813 eV
     psi = 
    |psi|^2 = 0.000
     e =  35.6927101813 eV
     psi = 
    |psi|^2 = 0.000

 k =  -0.0833333333  0.5833333333 -0.0833333333
     e =   9.6383842976 eV
     psi = 0.673*[#  1]+0.152*[#  5]+0.152*[#  2]+0.006*[#  4]+0.006*[#  3]+
          +0.006*[#  6]+
    |psi|^2 = 0.996
     e =  11.4315730963 eV
     psi = 0.331*[#  4]+0.331*[#  3]+0.331*[#  6]+0.002*[#  2]+0.002*[#  5]+
          +0.001*[#  1]+
    |psi|^2 = 0.997
     e =  13.1394747669 eV
     psi = 0.249*[#  2]+0.249*[#  5]+0.149*[#  1]+0.117*[#  4]+0.117*[#  3]+
          +0.117*[#  6]+
    |psi|^2 = 0.997
     e =  13.8065695493 eV
     psi = 0.275*[#  4]+0.275*[#  3]+0.275*[#  6]+0.087*[#  5]+0.087*[#  2]+
    |psi|^2 = 0.999
     e =  14.3517391786 eV
     psi = 0.211*[#  4]+0.211*[#  3]+0.211*[#  6]+0.170*[#  1]+0.096*[#  5]+
          +0.096*[#  2]+
    |psi|^2 = 0.995
     e =  14.5504964347 eV
     psi = 0.413*[#  5]+0.413*[#  2]+0.058*[#  4]+0.058*[#  3]+0.058*[#  6]+
    |psi|^2 = 0.999
     e =  32.0296378546 eV
     psi = 
    |psi|^2 = 0.003
     e =  34.5157465708 eV
     psi = 
    |psi|^2 = 0.002

 k =  -0.1666666667  0.6666666667 -0.1666666667
     e =  10.3993246355 eV
     psi = 0.373*[#  1]+0.240*[#  5]+0.240*[#  2]+0.047*[#  4]+0.047*[#  3]+
          +0.047*[#  6]+
    |psi|^2 = 0.993
     e =  11.3851140307 eV
     psi = 0.295*[#  4]+0.295*[#  3]+0.295*[#  6]+0.048*[#  2]+0.048*[#  5]+
          +0.013*[#  1]+
    |psi|^2 = 0.993
     e =  12.9025058820 eV
     psi = 0.198*[#  4]+0.198*[#  3]+0.198*[#  6]+0.138*[#  1]+0.132*[#  2]+
          +0.132*[#  5]+
    |psi|^2 = 0.995
     e =  13.7689554623 eV
     psi = 0.219*[#  5]+0.219*[#  2]+0.187*[#  4]+0.187*[#  3]+0.187*[#  6]+
    |psi|^2 = 0.999
     e =  14.7612020754 eV
     psi = 0.280*[#  5]+0.280*[#  2]+0.146*[#  4]+0.146*[#  3]+0.146*[#  6]+
    |psi|^2 = 0.999
     e =  15.7498121582 eV
     psi = 0.437*[#  1]+0.124*[#  4]+0.124*[#  3]+0.124*[#  6]+0.078*[#  5]+
          +0.078*[#  2]+
    |psi|^2 = 0.967
     e =  27.9963028730 eV
     psi = 0.016*[#  1]+0.002*[#  4]+0.002*[#  3]+0.002*[#  6]+
    |psi|^2 = 0.023
     e =  32.4872131251 eV
     psi = 0.008*[#  1]+0.002*[#  5]+0.002*[#  2]+
    |psi|^2 = 0.012

 k =   0.7500000000 -0.2500000000  0.7500000000
     e =  10.8314855556 eV
     psi = 0.172*[#  2]+0.172*[#  5]+0.171*[#  4]+0.171*[#  3]+0.171*[#  6]+
          +0.138*[#  1]+
    |psi|^2 = 0.993
     e =  11.5333839515 eV
     psi = 0.255*[#  2]+0.255*[#  5]+0.152*[#  4]+0.152*[#  3]+0.152*[#  6]+
          +0.011*[#  1]+
    |psi|^2 = 0.977
     e =  12.7447365175 eV
     psi = 0.276*[#  4]+0.276*[#  3]+0.276*[#  6]+0.088*[#  1]+0.034*[#  2]+
          +0.034*[#  5]+
    |psi|^2 = 0.984
     e =  13.6597574825 eV
     psi = 0.302*[#  5]+0.302*[#  2]+0.132*[#  4]+0.132*[#  3]+0.132*[#  6]+
    |psi|^2 = 0.999
     e =  14.8093299796 eV
     psi = 0.201*[#  4]+0.201*[#  3]+0.201*[#  6]+0.198*[#  5]+0.198*[#  2]+
    |psi|^2 = 0.998
     e =  17.7935611560 eV
     psi = 0.503*[#  1]+0.057*[#  4]+0.057*[#  3]+0.057*[#  6]+0.037*[#  5]+
          +0.037*[#  2]+
    |psi|^2 = 0.748
     e =  24.3638887585 eV
     psi = 0.181*[#  1]+0.010*[#  4]+0.010*[#  3]+0.010*[#  6]+
    |psi|^2 = 0.210
     e =  30.7824466198 eV
     psi = 0.043*[#  1]+0.002*[#  5]+0.002*[#  2]+
    |psi|^2 = 0.049

 k =   0.6666666667 -0.1666666667  0.6666666667
     e =  11.0672964925 eV
     psi = 0.278*[#  4]+0.278*[#  6]+0.278*[#  3]+0.081*[#  1]+0.041*[#  5]+
          +0.041*[#  2]+
    |psi|^2 = 0.996
     e =  11.7070654854 eV
     psi = 0.443*[#  2]+0.443*[#  5]+0.026*[#  4]+0.026*[#  6]+0.026*[#  3]+
          +0.002*[#  1]+
    |psi|^2 = 0.967
     e =  12.6116817685 eV
     psi = 0.319*[#  4]+0.319*[#  3]+0.319*[#  6]+0.008*[#  1]+
    |psi|^2 = 0.965
     e =  13.5630894403 eV
     psi = 0.362*[#  5]+0.362*[#  2]+0.092*[#  4]+0.092*[#  3]+0.092*[#  6]+
    |psi|^2 = 0.999
     e =  14.6222779833 eV
     psi = 0.241*[#  4]+0.241*[#  3]+0.241*[#  6]+0.138*[#  5]+0.138*[#  2]+
    |psi|^2 = 0.999
     e =  19.6755342822 eV
     psi = 0.014*[#  5]+0.014*[#  2]+0.011*[#  4]+0.011*[#  3]+0.011*[#  6]+
          +0.003*[#  1]+
    |psi|^2 = 0.063
     e =  22.0600767196 eV
     psi = 0.757*[#  1]+0.031*[#  4]+0.031*[#  3]+0.031*[#  6]+
    |psi|^2 = 0.851
     e =  29.5130580383 eV
     psi = 0.100*[#  1]+0.002*[#  5]+0.002*[#  2]+
    |psi|^2 = 0.106

 k =   0.5833333333 -0.0833333333  0.5833333333
     e =  11.1587921612 eV
     psi = 0.268*[#  4]+0.268*[#  3]+0.268*[#  6]+0.179*[#  1]+0.003*[#  2]+
          +0.003*[#  5]+
    |psi|^2 = 0.989
     e =  11.9413757691 eV
     psi = 0.462*[#  5]+0.462*[#  2]+0.017*[#  1]+0.013*[#  4]+0.013*[#  6]+
          +0.013*[#  3]+
    |psi|^2 = 0.981
     e =  12.2840379445 eV
     psi = 0.319*[#  4]+0.319*[#  3]+0.319*[#  6]+0.014*[#  1]+0.003*[#  5]+
          +0.003*[#  2]+
    |psi|^2 = 0.978
     e =  13.5150885494 eV
     psi = 0.426*[#  5]+0.426*[#  2]+0.049*[#  4]+0.049*[#  3]+0.049*[#  6]+
    |psi|^2 = 1.000
     e =  14.2570146985 eV
     psi = 0.284*[#  4]+0.284*[#  3]+0.284*[#  6]+0.074*[#  5]+0.074*[#  2]+
    |psi|^2 = 0.999
     e =  18.1435423674 eV
     psi = 0.556*[#  1]+0.055*[#  4]+0.055*[#  3]+0.055*[#  6]+0.031*[#  5]+
          +0.031*[#  2]+
    |psi|^2 = 0.782
     e =  24.3620584515 eV
     psi = 0.123*[#  1]+0.009*[#  4]+0.009*[#  3]+0.009*[#  6]+
    |psi|^2 = 0.150
     e =  28.7830270314 eV
     psi = 0.082*[#  1]+0.002*[#  4]+0.002*[#  3]+0.002*[#  6]+
    |psi|^2 = 0.089

 k =   0.5000000000  0.0000000000  0.5000000000
     e =  10.7579162150 eV
     psi = 0.491*[#  1]+0.145*[#  4]+0.145*[#  3]+0.145*[#  6]+0.030*[#  5]+
          +0.030*[#  2]+
    |psi|^2 = 0.987
     e =  11.9680884208 eV
     psi = 0.331*[#  4]+0.331*[#  3]+0.331*[#  6]+
    |psi|^2 = 0.992
     e =  12.2940111306 eV
     psi = 0.375*[#  5]+0.375*[#  2]+0.075*[#  4]+0.075*[#  3]+0.075*[#  6]+
          +0.017*[#  1]+
    |psi|^2 = 0.993
     e =  13.4870995542 eV
     psi = 0.500*[#  5]+0.500*[#  2]+
    |psi|^2 = 1.000
     e =  13.8706416833 eV
     psi = 0.333*[#  4]+0.333*[#  3]+0.333*[#  6]+
    |psi|^2 = 0.999
     e =  16.4669233432 eV
     psi = 0.440*[#  1]+0.111*[#  4]+0.111*[#  3]+0.111*[#  6]+0.094*[#  2]+
          +0.094*[#  5]+
    |psi|^2 = 0.960
     e =  27.5862082600 eV
     psi = 0.003*[#  4]+0.003*[#  3]+0.003*[#  6]+
    |psi|^2 = 0.008
     e =  29.0255755076 eV
     psi = 0.040*[#  1]+0.002*[#  4]+0.002*[#  3]+0.002*[#  6]+
    |psi|^2 = 0.047

 k =   0.0000000000  0.6666666667  0.0000000000
     e =   9.9752451748 eV
     psi = 0.434*[#  1]+0.281*[#  2]+0.281*[#  5]+
    |psi|^2 = 0.996
     e =  11.1575812355 eV
     psi = 0.332*[#  4]+0.332*[#  3]+0.332*[#  6]+
    |psi|^2 = 0.997
     e =  14.0779448923 eV
     psi = 0.549*[#  1]+0.217*[#  5]+0.217*[#  2]+
    |psi|^2 = 0.982
     e =  14.2229761253 eV
     psi = 0.333*[#  4]+0.333*[#  3]+0.333*[#  6]+
    |psi|^2 = 0.999
     e =  14.2229761253 eV
     psi = 0.333*[#  4]+0.333*[#  3]+0.333*[#  6]+
    |psi|^2 = 0.999
     e =  14.5835818139 eV
     psi = 0.499*[#  5]+0.499*[#  2]+
    |psi|^2 = 0.999
     e =  31.8921841918 eV
     psi = 0.004*[#  1]+0.002*[#  5]+0.002*[#  2]+
    |psi|^2 = 0.009
     e =  33.1776095370 eV
     psi = 
    |psi|^2 = 0.000

 k =  -0.0833333333  0.7500000000 -0.0833333333
     e =  10.2846047125 eV
     psi = 0.380*[#  5]+0.380*[#  2]+0.226*[#  1]+0.003*[#  4]+0.003*[#  3]+
          +0.003*[#  6]+
    |psi|^2 = 0.995
     e =  11.0216262957 eV
     psi = 0.330*[#  4]+0.330*[#  3]+0.330*[#  6]+0.002*[#  2]+0.002*[#  5]+
    |psi|^2 = 0.996
     e =  13.8707907095 eV
     psi = 0.244*[#  4]+0.244*[#  3]+0.244*[#  6]+0.167*[#  1]+0.044*[#  2]+
          +0.044*[#  5]+
    |psi|^2 = 0.986
     e =  14.3110268937 eV
     psi = 0.207*[#  4]+0.207*[#  3]+0.207*[#  6]+0.189*[#  5]+0.189*[#  2]+
    |psi|^2 = 0.999
     e =  14.7627105972 eV
     psi = 0.311*[#  5]+0.311*[#  2]+0.126*[#  4]+0.126*[#  3]+0.126*[#  6]+
    |psi|^2 = 0.999
     e =  15.7953373106 eV
     psi = 0.546*[#  1]+0.087*[#  4]+0.087*[#  3]+0.087*[#  6]+0.069*[#  5]+
          +0.069*[#  2]+
    |psi|^2 = 0.946
     e =  29.6132935646 eV
     psi = 0.015*[#  1]+0.004*[#  2]+0.004*[#  5]+
    |psi|^2 = 0.023
     e =  30.4521961176 eV
     psi = 0.020*[#  1]+
    |psi|^2 = 0.024

 k =   0.8333333333 -0.1666666667  0.8333333333
     e =  10.5946170501 eV
     psi = 0.407*[#  5]+0.407*[#  2]+0.097*[#  1]+0.027*[#  4]+0.027*[#  3]+
          +0.027*[#  6]+
    |psi|^2 = 0.993
     e =  11.0693029419 eV
     psi = 0.305*[#  4]+0.305*[#  3]+0.305*[#  6]+0.038*[#  2]+0.038*[#  5]+
    |psi|^2 = 0.992
     e =  13.4769978807 eV
     psi = 0.287*[#  4]+0.287*[#  3]+0.287*[#  6]+0.084*[#  1]+0.016*[#  2]+
          +0.016*[#  5]+
    |psi|^2 = 0.976
     e =  14.2160055359 eV
     psi = 0.326*[#  5]+0.326*[#  2]+0.116*[#  4]+0.116*[#  3]+0.116*[#  6]+
    |psi|^2 = 0.999
     e =  14.8404113202 eV
     psi = 0.217*[#  4]+0.217*[#  3]+0.217*[#  6]+0.173*[#  5]+0.173*[#  2]+
    |psi|^2 = 0.998
     e =  18.0240547067 eV
     psi = 0.547*[#  1]+0.044*[#  4]+0.044*[#  3]+0.044*[#  6]+0.030*[#  5]+
          +0.030*[#  2]+
    |psi|^2 = 0.739
     e =  26.6248436856 eV
     psi = 0.038*[#  1]+0.002*[#  4]+0.002*[#  3]+0.002*[#  6]+
    |psi|^2 = 0.046
     e =  28.0535439938 eV
     psi = 0.178*[#  1]+0.008*[#  5]+0.008*[#  2]+
    |psi|^2 = 0.196

 k =   0.7500000000 -0.0833333333  0.7500000000
     e =  10.9333710245 eV
     psi = 0.330*[#  2]+0.330*[#  5]+0.099*[#  4]+0.099*[#  3]+0.099*[#  6]+
          +0.038*[#  1]+
    |psi|^2 = 0.994
     e =  11.2700303097 eV
     psi = 0.226*[#  4]+0.226*[#  3]+0.226*[#  6]+0.151*[#  2]+0.151*[#  5]+
          +0.001*[#  1]+
    |psi|^2 = 0.981
     e =  13.0084370147 eV
     psi = 0.317*[#  4]+0.317*[#  3]+0.317*[#  6]+0.015*[#  1]+0.002*[#  2]+
          +0.002*[#  5]+
    |psi|^2 = 0.970
     e =  14.0726169583 eV
     psi = 0.430*[#  5]+0.430*[#  2]+0.046*[#  4]+0.046*[#  3]+0.046*[#  6]+
    |psi|^2 = 0.999
     e =  14.6815708040 eV
     psi = 0.287*[#  4]+0.287*[#  3]+0.287*[#  6]+0.070*[#  5]+0.070*[#  2]+
    |psi|^2 = 0.999
     e =  20.6343341530 eV
     psi = 0.143*[#  1]+0.015*[#  4]+0.015*[#  3]+0.015*[#  6]+0.007*[#  5]+
          +0.007*[#  2]+
    |psi|^2 = 0.201
     e =  23.3633783831 eV
     psi = 0.311*[#  1]+0.009*[#  4]+0.009*[#  3]+0.009*[#  6]+
    |psi|^2 = 0.337
     e =  26.7973142392 eV
     psi = 0.416*[#  1]+0.009*[#  2]+0.009*[#  5]+0.002*[#  4]+0.002*[#  3]+
          +0.002*[#  6]+
    |psi|^2 = 0.439

 k =   0.6666666667  0.0000000000  0.6666666667
     e =  11.2756829880 eV
     psi = 0.252*[#  4]+0.252*[#  3]+0.252*[#  6]+0.097*[#  2]+0.097*[#  5]+
          +0.049*[#  1]+
    |psi|^2 = 0.997
     e =  11.5388772217 eV
     psi = 0.393*[#  5]+0.393*[#  2]+0.056*[#  4]+0.056*[#  3]+0.056*[#  6]+
          +0.017*[#  1]+
    |psi|^2 = 0.971
     e =  12.5064057696 eV
     psi = 0.326*[#  4]+0.326*[#  3]+0.326*[#  6]+
    |psi|^2 = 0.979
     e =  13.8596524483 eV
     psi = 0.500*[#  5]+0.500*[#  2]+
    |psi|^2 = 0.999
     e =  14.4155567226 eV
     psi = 0.333*[#  4]+0.333*[#  3]+0.333*[#  6]+
    |psi|^2 = 0.999
     e =  20.4239162317 eV
     psi = 0.490*[#  1]+0.022*[#  4]+0.022*[#  3]+0.022*[#  6]+0.006*[#  2]+
          +0.006*[#  5]+
    |psi|^2 = 0.566
     e =  23.3050670344 eV
     psi = 0.007*[#  4]+0.007*[#  3]+0.007*[#  6]+
    |psi|^2 = 0.020
     e =  26.5826497446 eV
     psi = 0.390*[#  1]+0.005*[#  2]+0.005*[#  5]+0.004*[#  4]+0.004*[#  3]+
          +0.004*[#  6]+
    |psi|^2 = 0.410

 k =   0.0000000000  0.8333333333  0.0000000000
     e =  10.2010307851 eV
     psi = 0.433*[#  5]+0.433*[#  2]+0.130*[#  1]+
    |psi|^2 = 0.996
     e =  10.8153819611 eV
     psi = 0.332*[#  4]+0.332*[#  3]+0.332*[#  6]+
    |psi|^2 = 0.996
     e =  14.7197711966 eV
     psi = 0.333*[#  4]+0.333*[#  3]+0.333*[#  6]+
    |psi|^2 = 0.999
     e =  14.7197711966 eV
     psi = 0.333*[#  4]+0.333*[#  3]+0.333*[#  6]+
    |psi|^2 = 0.999
     e =  14.7345792961 eV
     psi = 0.499*[#  5]+0.499*[#  2]+
    |psi|^2 = 0.999
     e =  16.2770848980 eV
     psi = 0.690*[#  1]+0.055*[#  5]+0.055*[#  2]+
    |psi|^2 = 0.801
     e =  27.5187345169 eV
     psi = 0.121*[#  1]+0.011*[#  5]+0.011*[#  2]+
    |psi|^2 = 0.143
     e =  31.4942757028 eV
     psi = 
    |psi|^2 = 0.000

 k =   0.9166666667 -0.0833333333  0.9166666667
     e =  10.2879046126 eV
     psi = 0.459*[#  2]+0.459*[#  5]+0.074*[#  1]+0.001*[#  4]+0.001*[#  3]+
          +0.001*[#  6]+
    |psi|^2 = 0.995
     e =  10.7916588074 eV
     psi = 0.331*[#  4]+0.331*[#  3]+0.331*[#  6]+0.001*[#  2]+0.001*[#  5]+
    |psi|^2 = 0.995
     e =  14.4375427711 eV
     psi = 0.314*[#  4]+0.314*[#  3]+0.314*[#  6]+0.022*[#  1]+0.002*[#  2]+
          +0.002*[#  5]+
    |psi|^2 = 0.968
     e =  14.6523171459 eV
     psi = 0.415*[#  5]+0.415*[#  2]+0.056*[#  4]+0.056*[#  3]+0.056*[#  6]+
    |psi|^2 = 0.999
     e =  14.8750656596 eV
     psi = 0.277*[#  4]+0.277*[#  3]+0.277*[#  6]+0.084*[#  5]+0.084*[#  2]+
    |psi|^2 = 0.998
     e =  17.9748219667 eV
     psi = 0.331*[#  1]+0.019*[#  4]+0.019*[#  3]+0.019*[#  6]+0.015*[#  5]+
          +0.015*[#  2]+
    |psi|^2 = 0.417
     e =  25.9766840257 eV
     psi = 0.413*[#  1]+0.022*[#  2]+0.022*[#  5]+
    |psi|^2 = 0.456
     e =  29.3479248315 eV
     psi = 0.054*[#  1]+
    |psi|^2 = 0.057

 k =   0.8333333333  0.0000000000  0.8333333333
     e =  10.5528620920 eV
     psi = 0.453*[#  5]+0.453*[#  2]+0.044*[#  1]+0.014*[#  4]+0.014*[#  3]+
          +0.014*[#  6]+
    |psi|^2 = 0.993
     e =  10.9587894215 eV
     psi = 0.316*[#  4]+0.316*[#  3]+0.316*[#  6]+0.022*[#  2]+0.022*[#  5]+
    |psi|^2 = 0.992
     e =  13.7559111440 eV
     psi = 0.318*[#  4]+0.318*[#  3]+0.318*[#  6]+
    |psi|^2 = 0.954
     e =  14.4694949140 eV
     psi = 0.499*[#  5]+0.499*[#  2]+
    |psi|^2 = 0.999
     e =  14.7891504524 eV
     psi = 0.333*[#  4]+0.333*[#  3]+0.333*[#  6]+
    |psi|^2 = 0.998
     e =  19.7903340812 eV
     psi = 0.015*[#  4]+0.015*[#  3]+0.015*[#  6]+
    |psi|^2 = 0.045
     e =  25.2802690551 eV
     psi = 0.322*[#  1]+0.018*[#  5]+0.018*[#  2]+
    |psi|^2 = 0.358
     e =  26.4296985848 eV
     psi = 0.520*[#  1]+0.006*[#  5]+0.006*[#  2]+0.002*[#  4]+0.002*[#  3]+
          +0.002*[#  6]+
    |psi|^2 = 0.539

 k =   0.0000000000 -1.0000000000  0.0000000000
     e =  10.1728587408 eV
     psi = 0.464*[#  2]+0.464*[#  5]+0.067*[#  1]+
    |psi|^2 = 0.996
     e =  10.6930082083 eV
     psi = 0.332*[#  4]+0.332*[#  3]+0.332*[#  6]+
    |psi|^2 = 0.996
     e =  14.7903370086 eV
     psi = 0.499*[#  5]+0.499*[#  2]+
    |psi|^2 = 0.999
     e =  14.9200065850 eV
     psi = 0.333*[#  4]+0.333*[#  3]+0.333*[#  6]+
    |psi|^2 = 0.998
     e =  14.9200065850 eV
     psi = 0.333*[#  4]+0.333*[#  3]+0.333*[#  6]+
    |psi|^2 = 0.998
     e =  17.8716632429 eV
     psi = 
    |psi|^2 = 0.000
     e =  25.2665585166 eV
     psi = 0.768*[#  1]+0.034*[#  2]+0.034*[#  5]+
    |psi|^2 = 0.837
     e =  30.8934098096 eV
     psi = 
    |psi|^2 = 0.000

 k =  -0.1666666667  0.3333333333  0.0000000000
     e =   7.5745075941 eV
     psi = 0.974*[#  1]+0.006*[#  5]+0.006*[#  2]+0.004*[#  4]+0.004*[#  3]+
          +0.004*[#  6]+
    |psi|^2 = 0.998
     e =  12.1534794302 eV
     psi = 0.333*[#  4]+0.333*[#  3]+0.333*[#  6]+
    |psi|^2 = 0.999
     e =  13.0046369133 eV
     psi = 0.252*[#  4]+0.252*[#  3]+0.252*[#  6]+0.121*[#  5]+0.121*[#  2]+
          +0.002*[#  1]+
    |psi|^2 = 1.000
     e =  13.1442830043 eV
     psi = 0.333*[#  4]+0.333*[#  3]+0.333*[#  6]+
    |psi|^2 = 1.000
     e =  13.6330195864 eV
     psi = 0.443*[#  2]+0.443*[#  5]+0.033*[#  4]+0.033*[#  3]+0.033*[#  6]+
          +0.015*[#  1]+
    |psi|^2 = 1.000
     e =  14.2337614163 eV
     psi = 0.429*[#  5]+0.429*[#  2]+0.045*[#  4]+0.045*[#  6]+0.045*[#  3]+
          +0.007*[#  1]+
    |psi|^2 = 0.999
     e =  35.3267117737 eV
     psi = 
    |psi|^2 = 0.001
     e =  36.0939339954 eV
     psi = 
    |psi|^2 = 0.000

 k =  -0.2500000000  0.4166666667 -0.0833333333
     e =   8.7445803896 eV
     psi = 0.895*[#  1]+0.023*[#  4]+0.023*[#  3]+0.023*[#  6]+0.017*[#  5]+
          +0.017*[#  2]+
    |psi|^2 = 0.998
     e =  11.9911989387 eV
     psi = 0.326*[#  4]+0.326*[#  3]+0.326*[#  6]+0.015*[#  1]+0.002*[#  2]+
          +0.002*[#  5]+
    |psi|^2 = 0.997
     e =  12.8495282862 eV
     psi = 0.252*[#  5]+0.252*[#  2]+0.165*[#  4]+0.165*[#  6]+0.165*[#  3]+
    |psi|^2 = 0.999
     e =  13.2686697160 eV
     psi = 0.252*[#  4]+0.252*[#  3]+0.252*[#  6]+0.121*[#  2]+0.121*[#  5]+
          +0.003*[#  1]+
    |psi|^2 = 1.000
     e =  13.7998403268 eV
     psi = 0.313*[#  2]+0.313*[#  5]+0.114*[#  4]+0.114*[#  3]+0.114*[#  6]+
          +0.030*[#  1]+
    |psi|^2 = 0.999
     e =  14.5925694928 eV
     psi = 0.295*[#  5]+0.295*[#  2]+0.119*[#  4]+0.119*[#  3]+0.119*[#  6]+
          +0.053*[#  1]+
    |psi|^2 = 0.998
     e =  31.1785091190 eV
     psi = 0.001*[#  4]+0.001*[#  3]+0.001*[#  6]+
    |psi|^2 = 0.004
     e =  34.9726100503 eV
     psi = 
    |psi|^2 = 0.001

 k =  -0.3333333333  0.5000000000 -0.1666666667
     e =   9.8875456908 eV
     psi = 0.616*[#  1]+0.107*[#  4]+0.107*[#  3]+0.107*[#  6]+0.028*[#  5]+
          +0.028*[#  2]+
    |psi|^2 = 0.995
     e =  12.1250030951 eV
     psi = 0.256*[#  4]+0.256*[#  6]+0.256*[#  3]+0.115*[#  1]+0.050*[#  5]+
          +0.050*[#  2]+
    |psi|^2 = 0.984
     e =  12.6116655906 eV
     psi = 0.275*[#  5]+0.275*[#  2]+0.149*[#  4]+0.149*[#  6]+0.149*[#  3]+
    |psi|^2 = 0.999
     e =  13.1821283936 eV
     psi = 0.245*[#  2]+0.245*[#  5]+0.168*[#  4]+0.168*[#  3]+0.168*[#  6]+
          +0.007*[#  1]+
    |psi|^2 = 0.999
     e =  14.2411150694 eV
     psi = 0.229*[#  2]+0.229*[#  5]+0.171*[#  4]+0.171*[#  3]+0.171*[#  6]+
          +0.026*[#  1]+
    |psi|^2 = 0.997
     e =  15.2350734717 eV
     psi = 0.211*[#  1]+0.172*[#  5]+0.172*[#  2]+0.144*[#  4]+0.144*[#  6]+
          +0.144*[#  3]+
    |psi|^2 = 0.985
     e =  27.0520002628 eV
     psi = 0.016*[#  1]+0.004*[#  4]+0.004*[#  3]+0.004*[#  6]+
    |psi|^2 = 0.028
     e =  34.6080911629 eV
     psi = 0.001*[#  1]+
    |psi|^2 = 0.002

 k =   0.5833333333 -0.4166666667  0.7500000000
     e =  10.4101040261 eV
     psi = 0.253*[#  1]+0.239*[#  4]+0.239*[#  3]+0.239*[#  6]+0.012*[#  5]+
          +0.012*[#  2]+
    |psi|^2 = 0.995
     e =  12.3642287647 eV
     psi = 0.403*[#  5]+0.403*[#  2]+0.052*[#  4]+0.052*[#  6]+0.052*[#  3]+
          +0.018*[#  1]+
    |psi|^2 = 0.981
     e =  12.7680669862 eV
     psi = 0.264*[#  4]+0.264*[#  3]+0.264*[#  6]+0.105*[#  1]+0.025*[#  2]+
          +0.025*[#  5]+
    |psi|^2 = 0.946
     e =  13.0786743817 eV
     psi = 0.279*[#  2]+0.279*[#  5]+0.142*[#  4]+0.142*[#  3]+0.142*[#  6]+
          +0.012*[#  1]+
    |psi|^2 = 0.995
     e =  14.5891785509 eV
     psi = 0.203*[#  2]+0.203*[#  5]+0.196*[#  4]+0.196*[#  3]+0.196*[#  6]+
          +0.003*[#  1]+
    |psi|^2 = 0.996
     e =  16.3823796642 eV
     psi = 0.390*[#  1]+0.089*[#  4]+0.089*[#  3]+0.089*[#  6]+0.077*[#  5]+
          +0.077*[#  2]+
    |psi|^2 = 0.810
     e =  23.5275360380 eV
     psi = 0.191*[#  1]+0.018*[#  4]+0.018*[#  3]+0.018*[#  6]+
    |psi|^2 = 0.245
     e =  34.6894703619 eV
     psi = 0.003*[#  1]+
    |psi|^2 = 0.004

 k =   0.5000000000 -0.3333333333  0.6666666667
     e =  10.5013389717 eV
     psi = 0.283*[#  4]+0.283*[#  3]+0.283*[#  6]+0.146*[#  1]+
    |psi|^2 = 0.997
     e =  12.3040657678 eV
     psi = 0.401*[#  5]+0.401*[#  2]+0.059*[#  4]+0.059*[#  6]+0.059*[#  3]+
    |psi|^2 = 0.980
     e =  13.0161561900 eV
     psi = 0.308*[#  2]+0.308*[#  5]+0.128*[#  4]+0.128*[#  3]+0.128*[#  6]+
    |psi|^2 = 1.000
     e =  13.1046271741 eV
     psi = 0.249*[#  4]+0.249*[#  3]+0.249*[#  6]+0.061*[#  5]+0.061*[#  2]+
    |psi|^2 = 0.867
     e =  14.7005380804 eV
     psi = 0.206*[#  4]+0.206*[#  3]+0.206*[#  6]+0.191*[#  2]+0.191*[#  5]+
    |psi|^2 = 0.999
     e =  17.4174517887 eV
     psi = 0.037*[#  5]+0.037*[#  2]+0.026*[#  4]+0.026*[#  3]+0.026*[#  6]+
    |psi|^2 = 0.151
     e =  21.6831633697 eV
     psi = 0.801*[#  1]+0.049*[#  4]+0.049*[#  3]+0.049*[#  6]+
    |psi|^2 = 0.950
     e =  34.9335536745 eV
     psi = 
    |psi|^2 = 0.001

 k =  -0.1666666667  0.5000000000  0.0000000000
     e =   9.0800610016 eV
     psi = 0.844*[#  1]+0.061*[#  5]+0.061*[#  2]+0.010*[#  4]+0.010*[#  3]+
          +0.010*[#  6]+
    |psi|^2 = 0.997
     e =  11.6997195141 eV
     psi = 0.333*[#  4]+0.333*[#  3]+0.333*[#  6]+
    |psi|^2 = 0.998
     e =  12.9105235615 eV
     psi = 0.291*[#  5]+0.291*[#  2]+0.130*[#  4]+0.130*[#  6]+0.130*[#  3]+
          +0.028*[#  1]+
    |psi|^2 = 0.999
     e =  13.6382902149 eV
     psi = 0.333*[#  4]+0.333*[#  3]+0.333*[#  6]+
    |psi|^2 = 0.999
     e =  13.8658008426 eV
     psi = 0.325*[#  2]+0.325*[#  5]+0.090*[#  4]+0.090*[#  3]+0.090*[#  6]+
          +0.078*[#  1]+
    |psi|^2 = 0.998
     e =  14.5867830934 eV
     psi = 0.322*[#  5]+0.322*[#  2]+0.103*[#  4]+0.103*[#  3]+0.103*[#  6]+
          +0.046*[#  1]+
    |psi|^2 = 0.998
     e =  33.0426964752 eV
     psi = 
    |psi|^2 = 0.002
     e =  33.5567930408 eV
     psi = 
    |psi|^2 = 0.002

 k =  -0.2500000000  0.5833333333 -0.0833333333
     e =  10.1086824309 eV
     psi = 0.605*[#  1]+0.128*[#  5]+0.128*[#  2]+0.045*[#  4]+0.045*[#  3]+
          +0.045*[#  6]+
    |psi|^2 = 0.994
     e =  11.6115173670 eV
     psi = 0.314*[#  4]+0.314*[#  3]+0.314*[#  6]+0.019*[#  5]+0.019*[#  2]+
          +0.015*[#  1]+
    |psi|^2 = 0.995
     e =  12.6262454307 eV
     psi = 0.246*[#  5]+0.246*[#  2]+0.154*[#  4]+0.154*[#  3]+0.154*[#  6]+
          +0.044*[#  1]+
    |psi|^2 = 0.999
     e =  13.6730822337 eV
     psi = 0.197*[#  4]+0.197*[#  3]+0.197*[#  6]+0.197*[#  2]+0.197*[#  5]+
          +0.014*[#  1]+
    |psi|^2 = 0.999
     e =  14.3021361604 eV
     psi = 0.264*[#  2]+0.264*[#  5]+0.143*[#  4]+0.143*[#  3]+0.143*[#  6]+
          +0.041*[#  1]+
    |psi|^2 = 0.997
     e =  15.3469210406 eV
     psi = 0.263*[#  1]+0.145*[#  5]+0.145*[#  2]+0.145*[#  4]+0.145*[#  3]+
          +0.145*[#  6]+
    |psi|^2 = 0.988
     e =  29.0397924257 eV
     psi = 0.006*[#  1]+0.002*[#  4]+0.002*[#  3]+0.002*[#  6]+
    |psi|^2 = 0.012
     e =  32.7920580978 eV
     psi = 0.002*[#  1]+
    |psi|^2 = 0.003

 k =   0.6666666667 -0.3333333333  0.8333333333
     e =  10.7491221949 eV
     psi = 0.257*[#  1]+0.169*[#  4]+0.169*[#  3]+0.169*[#  6]+0.114*[#  5]+
          +0.114*[#  2]+
    |psi|^2 = 0.992
     e =  11.7685756023 eV
     psi = 0.234*[#  5]+0.234*[#  2]+0.158*[#  4]+0.158*[#  3]+0.158*[#  6]+
          +0.035*[#  1]+
    |psi|^2 = 0.978
     e =  12.4672718714 eV
     psi = 0.242*[#  4]+0.242*[#  3]+0.242*[#  6]+0.098*[#  5]+0.098*[#  2]+
          +0.070*[#  1]+
    |psi|^2 = 0.994
     e =  13.5469376582 eV
     psi = 0.288*[#  2]+0.288*[#  5]+0.138*[#  4]+0.138*[#  3]+0.138*[#  6]+
          +0.008*[#  1]+
    |psi|^2 = 0.998
     e =  14.6332242420 eV
     psi = 0.202*[#  2]+0.202*[#  5]+0.196*[#  4]+0.196*[#  3]+0.196*[#  6]+
          +0.003*[#  1]+
    |psi|^2 = 0.997
     e =  16.8199084824 eV
     psi = 0.503*[#  1]+0.087*[#  4]+0.087*[#  3]+0.087*[#  6]+0.062*[#  5]+
          +0.062*[#  2]+
    |psi|^2 = 0.888
     e =  25.2209356745 eV
     psi = 0.086*[#  1]+0.007*[#  4]+0.007*[#  3]+0.007*[#  6]+
    |psi|^2 = 0.109
     e =  32.6239721099 eV
     psi = 
    |psi|^2 = 0.002

 k =   0.5833333333 -0.2500000000  0.7500000000
     e =  10.9579674676 eV
     psi = 0.278*[#  4]+0.278*[#  6]+0.278*[#  3]+0.112*[#  1]+0.024*[#  5]+
          +0.024*[#  2]+
    |psi|^2 = 0.995
     e =  11.8552248410 eV
     psi = 0.453*[#  5]+0.453*[#  2]+0.020*[#  4]+0.020*[#  6]+0.020*[#  3]+
    |psi|^2 = 0.968
     e =  12.5858870641 eV
     psi = 0.311*[#  4]+0.311*[#  3]+0.311*[#  6]+0.018*[#  1]+0.003*[#  5]+
          +0.003*[#  2]+
    |psi|^2 = 0.957
     e =  13.4265173618 eV
     psi = 0.337*[#  2]+0.337*[#  5]+0.108*[#  4]+0.108*[#  3]+0.108*[#  6]+
    |psi|^2 = 0.999
     e =  14.6871998159 eV
     psi = 0.227*[#  4]+0.227*[#  3]+0.227*[#  6]+0.158*[#  2]+0.158*[#  5]+
    |psi|^2 = 0.998
     e =  18.7356699773 eV
     psi = 0.152*[#  1]+0.024*[#  4]+0.024*[#  3]+0.024*[#  6]+0.023*[#  5]+
          +0.023*[#  2]+
    |psi|^2 = 0.269
     e =  22.2797144778 eV
     psi = 0.626*[#  1]+0.030*[#  4]+0.030*[#  3]+0.030*[#  6]+
    |psi|^2 = 0.718
     e =  31.8019759452 eV
     psi = 0.026*[#  1]+
    |psi|^2 = 0.029

 k =   0.5000000000 -0.1666666667  0.6666666667
     e =  10.9968956799 eV
     psi = 0.276*[#  4]+0.276*[#  3]+0.276*[#  6]+0.148*[#  1]+0.009*[#  5]+
          +0.009*[#  2]+
    |psi|^2 = 0.993
     e =  11.9470984937 eV
     psi = 0.459*[#  5]+0.459*[#  2]+0.017*[#  4]+0.017*[#  3]+0.017*[#  6]+
          +0.008*[#  1]+
    |psi|^2 = 0.977
     e =  12.4674769308 eV
     psi = 0.308*[#  4]+0.308*[#  3]+0.308*[#  6]+0.023*[#  1]+0.006*[#  5]+
          +0.006*[#  2]+
    |psi|^2 = 0.961
     e =  13.4111365602 eV
     psi = 0.358*[#  2]+0.358*[#  5]+0.094*[#  4]+0.094*[#  3]+0.094*[#  6]+
          +0.001*[#  1]+
    |psi|^2 = 0.999
     e =  14.5091575423 eV
     psi = 0.241*[#  4]+0.241*[#  3]+0.241*[#  6]+0.137*[#  2]+0.137*[#  5]+
    |psi|^2 = 0.998
     e =  18.2314755213 eV
     psi = 0.408*[#  1]+0.043*[#  4]+0.043*[#  3]+0.043*[#  6]+0.029*[#  5]+
          +0.029*[#  2]+
    |psi|^2 = 0.595
     e =  23.0962503246 eV
     psi = 0.334*[#  1]+0.019*[#  4]+0.019*[#  6]+0.019*[#  3]+
    |psi|^2 = 0.392
     e =  30.9149527801 eV
     psi = 0.036*[#  1]+
    |psi|^2 = 0.039

 k =   0.4166666667 -0.0833333333  0.5833333333
     e =  10.7496871887 eV
     psi = 0.411*[#  1]+0.154*[#  4]+0.154*[#  3]+0.154*[#  6]+0.058*[#  5]+
          +0.058*[#  2]+
    |psi|^2 = 0.989
     e =  11.9607072958 eV
     psi = 0.261*[#  4]+0.261*[#  3]+0.261*[#  6]+0.076*[#  5]+0.076*[#  2]+
          +0.049*[#  1]+
    |psi|^2 = 0.984
     e =  12.2573949453 eV
     psi = 0.288*[#  5]+0.288*[#  2]+0.140*[#  4]+0.140*[#  3]+0.140*[#  6]+
          +0.001*[#  1]+
    |psi|^2 = 0.998
     e =  13.5113583808 eV
     psi = 0.362*[#  2]+0.362*[#  5]+0.087*[#  4]+0.087*[#  3]+0.087*[#  6]+
          +0.011*[#  1]+
    |psi|^2 = 0.998
     e =  14.1410366184 eV
     psi = 0.246*[#  4]+0.246*[#  3]+0.246*[#  6]+0.128*[#  2]+0.128*[#  5]+
          +0.004*[#  1]+
    |psi|^2 = 0.998
     e =  16.5122821667 eV
     psi = 0.457*[#  1]+0.106*[#  4]+0.106*[#  3]+0.106*[#  6]+0.086*[#  5]+
          +0.086*[#  2]+
    |psi|^2 = 0.946
     e =  26.4646404483 eV
     psi = 0.034*[#  1]+0.005*[#  4]+0.005*[#  3]+0.005*[#  6]+
    |psi|^2 = 0.047
     e =  30.5332024465 eV
     psi = 0.017*[#  1]+0.001*[#  4]+0.001*[#  3]+0.001*[#  6]+
    |psi|^2 = 0.021

 k =   0.3333333333  0.0000000000  0.5000000000
     e =   9.8576015227 eV
     psi = 0.746*[#  1]+0.053*[#  4]+0.053*[#  3]+0.053*[#  6]+0.045*[#  5]+
          +0.045*[#  2]+
    |psi|^2 = 0.994
     e =  11.8385954500 eV
     psi = 0.332*[#  4]+0.332*[#  3]+0.332*[#  6]+
    |psi|^2 = 0.996
     e =  12.5678806458 eV
     psi = 0.305*[#  5]+0.305*[#  2]+0.129*[#  4]+0.129*[#  3]+0.129*[#  6]+
    |psi|^2 = 0.998
     e =  13.6482020708 eV
     psi = 0.472*[#  2]+0.472*[#  5]+0.031*[#  1]+0.008*[#  4]+0.008*[#  3]+
          +0.008*[#  6]+
    |psi|^2 = 0.998
     e =  13.6816440974 eV
     psi = 0.333*[#  4]+0.333*[#  3]+0.333*[#  6]+
    |psi|^2 = 0.999
     e =  15.3450604287 eV
     psi = 0.211*[#  1]+0.177*[#  5]+0.177*[#  2]+0.142*[#  4]+0.142*[#  3]+
          +0.142*[#  6]+
    |psi|^2 = 0.992
     e =  30.1162523672 eV
     psi = 0.001*[#  4]+0.001*[#  3]+0.001*[#  6]+
    |psi|^2 = 0.004
     e =  31.0247963864 eV
     psi = 0.007*[#  1]+
    |psi|^2 = 0.010

 k =  -0.1666666667  0.6666666667  0.0000000000
     e =  10.2278145476 eV
     psi = 0.413*[#  1]+0.279*[#  2]+0.279*[#  5]+0.008*[#  4]+0.008*[#  3]+
          +0.008*[#  6]+
    |psi|^2 = 0.995
     e =  11.2587071787 eV
     psi = 0.332*[#  4]+0.332*[#  3]+0.332*[#  6]+
    |psi|^2 = 0.996
     e =  13.1352938159 eV
     psi = 0.184*[#  4]+0.184*[#  3]+0.184*[#  6]+0.161*[#  1]+0.141*[#  5]+
          +0.141*[#  2]+
    |psi|^2 = 0.994
     e =  14.2202897854 eV
     psi = 0.333*[#  4]+0.333*[#  3]+0.333*[#  6]+
    |psi|^2 = 0.999
     e =  14.3876786569 eV
     psi = 0.464*[#  2]+0.464*[#  5]+0.063*[#  1]+0.002*[#  3]+0.002*[#  4]+
          +0.002*[#  6]+
    |psi|^2 = 0.996
     e =  15.3817370813 eV
     psi = 0.339*[#  1]+0.139*[#  4]+0.139*[#  3]+0.139*[#  6]+0.114*[#  5]+
          +0.114*[#  2]+
    |psi|^2 = 0.983
     e =  31.0635216254 eV
     psi = 
    |psi|^2 = 0.003
     e =  31.3436830328 eV
     psi = 
    |psi|^2 = 0.003

 k =   0.7500000000 -0.2500000000  0.9166666667
     e =  10.6920901800 eV
     psi = 0.358*[#  5]+0.358*[#  2]+0.183*[#  1]+0.031*[#  4]+0.031*[#  3]+
          +0.031*[#  6]+
    |psi|^2 = 0.991
     e =  11.2604714337 eV
     psi = 0.308*[#  4]+0.308*[#  3]+0.308*[#  6]+0.033*[#  5]+0.033*[#  2]+
          +0.003*[#  1]+
    |psi|^2 = 0.993
     e =  12.9273934429 eV
     psi = 0.245*[#  4]+0.245*[#  3]+0.245*[#  6]+0.116*[#  1]+0.069*[#  5]+
          +0.069*[#  2]+
    |psi|^2 = 0.990
     e =  14.1320892082 eV
     psi = 0.302*[#  2]+0.302*[#  5]+0.128*[#  4]+0.128*[#  3]+0.128*[#  6]+
          +0.010*[#  1]+
    |psi|^2 = 0.997
     e =  14.6672257599 eV
     psi = 0.210*[#  4]+0.210*[#  3]+0.210*[#  6]+0.183*[#  5]+0.183*[#  2]+
          +0.003*[#  1]+
    |psi|^2 = 0.998
     e =  17.0863933958 eV
     psi = 0.576*[#  1]+0.074*[#  4]+0.074*[#  3]+0.074*[#  6]+0.050*[#  5]+
          +0.050*[#  2]+
    |psi|^2 = 0.900
     e =  27.4120615008 eV
     psi = 0.031*[#  1]+0.002*[#  4]+0.002*[#  3]+0.002*[#  6]+
    |psi|^2 = 0.038
     e =  30.1812064561 eV
     psi = 0.025*[#  1]+0.003*[#  5]+0.003*[#  2]+
    |psi|^2 = 0.031

 k =   0.6666666667 -0.1666666667  0.8333333333
     e =  11.0224243342 eV
     psi = 0.293*[#  5]+0.293*[#  2]+0.114*[#  4]+0.114*[#  3]+0.114*[#  6]+
          +0.063*[#  1]+
    |psi|^2 = 0.992
     e =  11.4059397424 eV
     psi = 0.211*[#  4]+0.211*[#  3]+0.211*[#  6]+0.174*[#  5]+0.174*[#  2]+
    |psi|^2 = 0.981
     e =  12.6898211306 eV
     psi = 0.299*[#  4]+0.299*[#  3]+0.299*[#  6]+0.047*[#  1]+0.017*[#  5]+
          +0.017*[#  2]+
    |psi|^2 = 0.979
     e =  13.9329890748 eV
     psi = 0.390*[#  5]+0.390*[#  2]+0.072*[#  4]+0.072*[#  3]+0.072*[#  6]+
    |psi|^2 = 0.998
     e =  14.7339543360 eV
     psi = 0.265*[#  4]+0.265*[#  3]+0.265*[#  6]+0.102*[#  5]+0.102*[#  2]+
    |psi|^2 = 0.998
     e =  19.4448716210 eV
     psi = 0.396*[#  1]+0.028*[#  4]+0.028*[#  3]+0.028*[#  6]+0.018*[#  5]+
          +0.018*[#  2]+
    |psi|^2 = 0.515
     e =  23.9569510981 eV
     psi = 0.277*[#  1]+0.009*[#  4]+0.009*[#  3]+0.009*[#  6]+
    |psi|^2 = 0.306
     e =  28.6935311480 eV
     psi = 0.132*[#  1]+0.004*[#  5]+0.004*[#  2]+
    |psi|^2 = 0.142

 k =   0.5833333333 -0.0833333333  0.7500000000
     e =  11.3487271393 eV
     psi = 0.245*[#  4]+0.245*[#  3]+0.245*[#  6]+0.107*[#  5]+0.107*[#  2]+
          +0.048*[#  1]+
    |psi|^2 = 0.996
     e =  11.5335746208 eV
     psi = 0.384*[#  5]+0.384*[#  2]+0.063*[#  4]+0.063*[#  3]+0.063*[#  6]+
          +0.017*[#  1]+
    |psi|^2 = 0.972
     e =  12.3871794402 eV
     psi = 0.325*[#  4]+0.325*[#  3]+0.325*[#  6]+
    |psi|^2 = 0.977
     e =  13.7881355400 eV
     psi = 0.451*[#  2]+0.451*[#  5]+0.032*[#  4]+0.032*[#  3]+0.032*[#  6]+
    |psi|^2 = 0.999
     e =  14.5577950468 eV
     psi = 0.303*[#  4]+0.303*[#  3]+0.303*[#  6]+0.045*[#  2]+0.045*[#  5]+
    |psi|^2 = 0.999
     e =  20.5074735151 eV
     psi = 0.296*[#  1]+0.016*[#  4]+0.016*[#  3]+0.016*[#  6]+0.008*[#  5]+
          +0.008*[#  2]+
    |psi|^2 = 0.360
     e =  22.8066843387 eV
     psi = 0.345*[#  1]+0.014*[#  4]+0.014*[#  3]+0.014*[#  6]+0.001*[#  5]+
          +0.001*[#  2]+
    |psi|^2 = 0.389
     e =  27.6656979979 eV
     psi = 0.218*[#  1]+0.003*[#  2]+0.003*[#  5]+0.002*[#  4]+0.002*[#  3]+
          +0.002*[#  6]+
    |psi|^2 = 0.230

 k =   0.5000000000  0.0000000000  0.6666666667
     e =  11.3825141987 eV
     psi = 0.208*[#  4]+0.208*[#  3]+0.208*[#  6]+0.204*[#  1]+0.075*[#  5]+
          +0.075*[#  2]+
    |psi|^2 = 0.980
     e =  11.8235427378 eV
     psi = 0.399*[#  5]+0.399*[#  2]+0.065*[#  4]+0.065*[#  3]+0.065*[#  6]+
    |psi|^2 = 0.992
     e =  12.0086685895 eV
     psi = 0.329*[#  4]+0.329*[#  3]+0.329*[#  6]+
    |psi|^2 = 0.988
     e =  13.7241910894 eV
     psi = 0.494*[#  2]+0.494*[#  5]+0.003*[#  4]+0.003*[#  3]+0.003*[#  6]+
          +0.001*[#  1]+
    |psi|^2 = 0.998
     e =  14.2623513321 eV
     psi = 0.333*[#  4]+0.333*[#  3]+0.333*[#  6]+
    |psi|^2 = 0.999
     e =  18.2884643309 eV
     psi = 0.605*[#  1]+0.055*[#  4]+0.055*[#  3]+0.055*[#  6]+0.029*[#  5]+
          +0.029*[#  2]+
    |psi|^2 = 0.827
     e =  25.5258458575 eV
     psi = 0.004*[#  4]+0.004*[#  3]+0.004*[#  6]+
    |psi|^2 = 0.012
     e =  27.6465633948 eV
     psi = 0.153*[#  1]+0.003*[#  4]+0.003*[#  3]+0.003*[#  6]+
    |psi|^2 = 0.164

 k =   0.8333333333 -0.1666666667  1.0000000000
     e =  10.4170169434 eV
     psi = 0.439*[#  5]+0.439*[#  2]+0.113*[#  1]+0.001*[#  3]+0.001*[#  4]+
          +0.001*[#  6]+
    |psi|^2 = 0.994
     e =  10.9454094252 eV
     psi = 0.332*[#  4]+0.332*[#  3]+0.332*[#  6]+
    |psi|^2 = 0.995
     e =  13.8208166624 eV
     psi = 0.273*[#  4]+0.273*[#  3]+0.273*[#  6]+0.081*[#  1]+0.040*[#  5]+
          +0.040*[#  2]+
    |psi|^2 = 0.979
     e =  14.6084576998 eV
     psi = 0.473*[#  5]+0.473*[#  2]+0.014*[#  4]+0.014*[#  6]+0.014*[#  3]+
          +0.007*[#  1]+
    |psi|^2 = 0.995
     e =  14.7183591306 eV
     psi = 0.333*[#  4]+0.333*[#  3]+0.333*[#  6]+
    |psi|^2 = 0.998
     e =  17.3436058063 eV
     psi = 0.586*[#  1]+0.045*[#  4]+0.045*[#  3]+0.045*[#  6]+0.037*[#  5]+
          +0.037*[#  2]+
    |psi|^2 = 0.794
     e =  27.6925114743 eV
     psi = 0.108*[#  1]+0.009*[#  5]+0.009*[#  2]+
    |psi|^2 = 0.127
     e =  29.6668143920 eV
     psi = 
    |psi|^2 = 0.003

 k =   0.7500000000 -0.0833333333  0.9166666667
     e =  10.6571249281 eV
     psi = 0.457*[#  5]+0.457*[#  2]+0.049*[#  1]+0.009*[#  4]+0.009*[#  3]+
          +0.009*[#  6]+
    |psi|^2 = 0.992
     e =  11.0598422680 eV
     psi = 0.322*[#  4]+0.322*[#  3]+0.322*[#  6]+0.014*[#  5]+0.014*[#  2]+
    |psi|^2 = 0.993
     e =  13.4145494096 eV
     psi = 0.308*[#  4]+0.308*[#  3]+0.308*[#  6]+0.024*[#  1]+0.010*[#  5]+
          +0.010*[#  2]+
    |psi|^2 = 0.966
     e =  14.3701443222 eV
     psi = 0.470*[#  5]+0.470*[#  2]+0.019*[#  4]+0.019*[#  3]+0.019*[#  6]+
    |psi|^2 = 0.997
     e =  14.8369572277 eV
     psi = 0.318*[#  4]+0.318*[#  3]+0.318*[#  6]+0.022*[#  5]+0.022*[#  2]+
    |psi|^2 = 0.998
     e =  19.5291072259 eV
     psi = 0.282*[#  1]+0.021*[#  4]+0.021*[#  3]+0.021*[#  6]+0.010*[#  5]+
          +0.010*[#  2]+
    |psi|^2 = 0.363
     e =  26.0430958808 eV
     psi = 0.083*[#  1]+0.009*[#  2]+0.009*[#  5]+
    |psi|^2 = 0.102
     e =  26.7919720583 eV
     psi = 0.418*[#  1]+0.007*[#  2]+0.007*[#  5]+0.002*[#  4]+0.002*[#  3]+
          +0.002*[#  6]+
    |psi|^2 = 0.438

 k =   0.6666666667  0.0000000000  0.8333333333
     e =  10.9996769498 eV
     psi = 0.422*[#  5]+0.422*[#  2]+0.042*[#  4]+0.042*[#  3]+0.042*[#  6]+
          +0.020*[#  1]+
    |psi|^2 = 0.992
     e =  11.3098199256 eV
     psi = 0.283*[#  4]+0.283*[#  3]+0.283*[#  6]+0.066*[#  5]+0.066*[#  2]+
          +0.005*[#  1]+
    |psi|^2 = 0.985
     e =  12.8558545268 eV
     psi = 0.324*[#  4]+0.324*[#  3]+0.324*[#  6]+
    |psi|^2 = 0.971
     e =  14.1025359627 eV
     psi = 0.498*[#  2]+0.498*[#  5]+0.003*[#  1]+
    |psi|^2 = 0.999
     e =  14.7222755697 eV
     psi = 0.333*[#  4]+0.333*[#  3]+0.333*[#  6]+
    |psi|^2 = 0.998
     e =  21.6898037135 eV
     psi = 0.010*[#  4]+0.010*[#  3]+0.010*[#  6]+
    |psi|^2 = 0.029
     e =  23.2792028023 eV
     psi = 0.179*[#  1]+0.006*[#  4]+0.006*[#  3]+0.006*[#  6]+0.002*[#  5]+
          +0.002*[#  2]+
    |psi|^2 = 0.199
     e =  26.0372219912 eV
     psi = 0.669*[#  1]+0.012*[#  2]+0.012*[#  5]+0.002*[#  4]+0.002*[#  3]+
          +0.002*[#  6]+
    |psi|^2 = 0.700

 k =  -0.1666666667 -1.0000000000  0.0000000000
     e =  10.3735269426 eV
     psi = 0.470*[#  5]+0.470*[#  2]+0.054*[#  1]+
    |psi|^2 = 0.994
     e =  10.8327973861 eV
     psi = 0.332*[#  4]+0.332*[#  3]+0.332*[#  6]+
    |psi|^2 = 0.995
     e =  14.1504361250 eV
     psi = 0.318*[#  4]+0.318*[#  3]+0.318*[#  6]+
    |psi|^2 = 0.954
     e =  14.6155122690 eV
     psi = 0.499*[#  5]+0.499*[#  2]+
    |psi|^2 = 0.999
     e =  14.9203158938 eV
     psi = 0.333*[#  4]+0.333*[#  3]+0.333*[#  6]+
    |psi|^2 = 0.998
     e =  18.9511322348 eV
     psi = 0.015*[#  4]+0.015*[#  3]+0.015*[#  6]+
    |psi|^2 = 0.045
     e =  25.3465935972 eV
     psi = 0.696*[#  1]+0.029*[#  2]+0.029*[#  5]+
    |psi|^2 = 0.753
     e =  29.1539983746 eV
     psi = 
    |psi|^2 = 0.003

 k =   0.6666666667 -0.3333333333  1.0000000000
     e =  10.8606889502 eV
     psi = 0.342*[#  1]+0.253*[#  5]+0.253*[#  2]+0.047*[#  4]+0.047*[#  3]+
          +0.047*[#  6]+
    |psi|^2 = 0.987
     e =  11.5550062955 eV
     psi = 0.331*[#  4]+0.331*[#  3]+0.331*[#  6]+
    |psi|^2 = 0.994
     e =  12.3336809985 eV
     psi = 0.192*[#  5]+0.192*[#  2]+0.186*[#  4]+0.186*[#  3]+0.186*[#  6]+
          +0.055*[#  1]+
    |psi|^2 = 0.997
     e =  14.0282411711 eV
     psi = 0.483*[#  2]+0.483*[#  5]+0.026*[#  1]+0.001*[#  4]+0.001*[#  6]+
          +0.001*[#  3]+
    |psi|^2 = 0.996
     e =  14.2217639024 eV
     psi = 0.333*[#  4]+0.333*[#  3]+0.333*[#  6]+
    |psi|^2 = 0.999
     e =  16.7027320203 eV
     psi = 0.513*[#  1]+0.097*[#  4]+0.097*[#  3]+0.097*[#  6]+0.071*[#  5]+
          +0.071*[#  2]+
    |psi|^2 = 0.947
     e =  28.1601884074 eV
     psi = 0.002*[#  4]+0.002*[#  3]+0.002*[#  6]+
    |psi|^2 = 0.006
     e =  29.3231645143 eV
     psi = 0.035*[#  1]+0.001*[#  4]+0.001*[#  3]+0.001*[#  6]+
    |psi|^2 = 0.040

 k =   0.5833333333 -0.2500000000  0.9166666667
     e =  11.2564926889 eV
     psi = 0.272*[#  5]+0.272*[#  2]+0.112*[#  1]+0.110*[#  4]+0.110*[#  3]+
          +0.110*[#  6]+
    |psi|^2 = 0.984
     e =  11.6536292073 eV
     psi = 0.218*[#  4]+0.218*[#  3]+0.218*[#  6]+0.166*[#  5]+0.166*[#  2]+
    |psi|^2 = 0.986
     e =  12.1645013741 eV
     psi = 0.281*[#  4]+0.281*[#  3]+0.281*[#  6]+0.054*[#  1]+0.046*[#  5]+
          +0.046*[#  2]+
    |psi|^2 = 0.990
     e =  13.8504645437 eV
     psi = 0.428*[#  2]+0.428*[#  5]+0.047*[#  4]+0.047*[#  3]+0.047*[#  6]+
          +0.002*[#  1]+
    |psi|^2 = 0.997
     e =  14.5493260340 eV
     psi = 0.293*[#  4]+0.293*[#  3]+0.293*[#  6]+0.060*[#  2]+0.060*[#  5]+
    |psi|^2 = 0.998
     e =  18.6709739749 eV
     psi = 0.564*[#  1]+0.043*[#  4]+0.043*[#  3]+0.043*[#  6]+0.026*[#  5]+
          +0.026*[#  2]+
    |psi|^2 = 0.745
     e =  24.8871924454 eV
     psi = 0.125*[#  1]+0.007*[#  4]+0.007*[#  3]+0.007*[#  6]+
    |psi|^2 = 0.145
     e =  29.1469542189 eV
     psi = 0.055*[#  1]+0.001*[#  4]+0.001*[#  3]+0.001*[#  6]+
    |psi|^2 = 0.060

 k =   0.5000000000 -0.1666666667  0.8333333333
     e =  11.4647035053 eV
     psi = 0.306*[#  4]+0.306*[#  3]+0.306*[#  6]+0.065*[#  1]+0.005*[#  5]+
          +0.005*[#  2]+
    |psi|^2 = 0.993
     e =  11.5003042616 eV
     psi = 0.488*[#  5]+0.488*[#  2]+
    |psi|^2 = 0.978
     e =  12.2552222985 eV
     psi = 0.324*[#  4]+0.324*[#  3]+0.324*[#  6]+
    |psi|^2 = 0.973
     e =  13.7419614181 eV
     psi = 0.431*[#  2]+0.431*[#  5]+0.045*[#  4]+0.045*[#  3]+0.045*[#  6]+
    |psi|^2 = 0.999
     e =  14.6726959652 eV
     psi = 0.292*[#  4]+0.292*[#  3]+0.292*[#  6]+0.061*[#  2]+0.061*[#  5]+
          +0.003*[#  1]+
    |psi|^2 = 0.999
     e =  20.6137928013 eV
     psi = 0.010*[#  5]+0.010*[#  2]+0.008*[#  4]+0.008*[#  3]+0.008*[#  6]+
    |psi|^2 = 0.044
     e =  22.3926748859 eV
     psi = 0.722*[#  1]+0.023*[#  4]+0.023*[#  3]+0.023*[#  6]+0.002*[#  2]+
          +0.002*[#  5]+
    |psi|^2 = 0.795
     e =  29.6310555979 eV
     psi = 0.002*[#  5]+0.002*[#  2]+
    |psi|^2 = 0.004

 k =   0.6666666667 -0.1666666667  1.0000000000
     e =  10.9428778861 eV
     psi = 0.455*[#  5]+0.455*[#  2]+0.064*[#  1]+0.005*[#  3]+0.005*[#  4]+
          +0.005*[#  6]+
    |psi|^2 = 0.988
     e =  11.3370427071 eV
     psi = 0.331*[#  4]+0.331*[#  3]+0.331*[#  6]+
    |psi|^2 = 0.992
     e =  12.6993354151 eV
     psi = 0.285*[#  4]+0.285*[#  3]+0.285*[#  6]+0.063*[#  1]+0.032*[#  5]+
          +0.032*[#  2]+
    |psi|^2 = 0.984
     e =  14.1971292595 eV
     psi = 0.484*[#  5]+0.484*[#  2]+0.009*[#  4]+0.009*[#  6]+0.009*[#  3]+
    |psi|^2 = 0.996
     e =  14.7147806412 eV
     psi = 0.333*[#  4]+0.333*[#  3]+0.333*[#  6]+
    |psi|^2 = 0.998
     e =  19.0758328883 eV
     psi = 0.549*[#  1]+0.033*[#  4]+0.033*[#  3]+0.033*[#  6]+0.021*[#  5]+
          +0.021*[#  2]+
    |psi|^2 = 0.690
     e =  26.8140858025 eV
     psi = 0.002*[#  4]+0.002*[#  3]+0.002*[#  6]+
    |psi|^2 = 0.007
     e =  27.9015145124 eV
     psi = 0.004*[#  1]+0.003*[#  5]+0.003*[#  2]+
    |psi|^2 = 0.010

 k =   0.5833333333 -0.0833333333  0.9166666667
     e =  11.1458882574 eV
     psi = 0.481*[#  5]+0.481*[#  2]+0.010*[#  1]+0.005*[#  4]+0.005*[#  3]+
          +0.005*[#  6]+
    |psi|^2 = 0.986
     e =  11.5689245571 eV
     psi = 0.322*[#  4]+0.322*[#  3]+0.322*[#  6]+0.008*[#  5]+0.008*[#  2]+
          +0.007*[#  1]+
    |psi|^2 = 0.988
     e =  12.3822567228 eV
     psi = 0.319*[#  4]+0.319*[#  3]+0.319*[#  6]+0.013*[#  1]+0.004*[#  2]+
          +0.004*[#  5]+
    |psi|^2 = 0.980
     e =  13.9706560840 eV
     psi = 0.486*[#  2]+0.486*[#  5]+0.007*[#  4]+0.007*[#  6]+0.007*[#  3]+
          +0.006*[#  1]+
    |psi|^2 = 0.998
     e =  14.8227199590 eV
     psi = 0.329*[#  4]+0.329*[#  3]+0.329*[#  6]+0.005*[#  2]+0.005*[#  5]+
    |psi|^2 = 0.998
     e =  21.5530885221 eV
     psi = 0.187*[#  1]+0.011*[#  4]+0.011*[#  3]+0.011*[#  6]+0.005*[#  5]+
          +0.005*[#  2]+
    |psi|^2 = 0.230
     e =  23.9445960896 eV
     psi = 0.208*[#  1]+0.006*[#  4]+0.006*[#  3]+0.006*[#  6]+0.001*[#  5]+
          +0.001*[#  2]+
    |psi|^2 = 0.228
     e =  27.0392723393 eV
     psi = 0.213*[#  1]+0.006*[#  2]+0.006*[#  5]+
    |psi|^2 = 0.227

 k =   0.5000000000  0.0000000000  0.8333333333
     e =  11.3230459279 eV
     psi = 0.488*[#  5]+0.488*[#  2]+0.005*[#  1]+
    |psi|^2 = 0.983
     e =  11.8238424538 eV
     psi = 0.310*[#  4]+0.310*[#  3]+0.310*[#  6]+0.042*[#  1]+0.008*[#  2]+
          +0.008*[#  5]+
    |psi|^2 = 0.988
     e =  11.9875473315 eV
     psi = 0.328*[#  4]+0.328*[#  3]+0.328*[#  6]+
    |psi|^2 = 0.985
     e =  13.8880901513 eV
     psi = 0.490*[#  2]+0.490*[#  5]+0.004*[#  4]+0.004*[#  3]+0.004*[#  6]+
          +0.004*[#  1]+
    |psi|^2 = 0.998
     e =  14.7122961453 eV
     psi = 0.333*[#  4]+0.333*[#  3]+0.333*[#  6]+
    |psi|^2 = 0.998
     e =  21.0259738098 eV
     psi = 0.426*[#  1]+0.016*[#  4]+0.016*[#  3]+0.016*[#  6]+0.008*[#  5]+
          +0.008*[#  2]+
    |psi|^2 = 0.489
     e =  24.0952614169 eV
     psi = 0.005*[#  4]+0.005*[#  3]+0.005*[#  6]+
    |psi|^2 = 0.015
     e =  26.8086434569 eV
     psi = 0.330*[#  1]+0.004*[#  2]+0.004*[#  5]+0.002*[#  4]+0.002*[#  3]+
          +0.002*[#  6]+
    |psi|^2 = 0.344

 k =  -0.3333333333 -1.0000000000  0.0000000000
     e =  10.8516081786 eV
     psi = 0.484*[#  5]+0.484*[#  2]+0.022*[#  1]+
    |psi|^2 = 0.990
     e =  11.2567919857 eV
     psi = 0.331*[#  4]+0.331*[#  3]+0.331*[#  6]+
    |psi|^2 = 0.992
     e =  12.9662087605 eV
     psi = 0.323*[#  4]+0.323*[#  3]+0.323*[#  6]+
    |psi|^2 = 0.968
     e =  14.1854220674 eV
     psi = 0.496*[#  2]+0.496*[#  5]+0.006*[#  1]+
    |psi|^2 = 0.999
     e =  14.9209273275 eV
     psi = 0.333*[#  4]+0.333*[#  3]+0.333*[#  6]+
    |psi|^2 = 0.998
     e =  21.0572621506 eV
     psi = 0.011*[#  4]+0.011*[#  3]+0.011*[#  6]+
    |psi|^2 = 0.032
     e =  25.6199130806 eV
     psi = 0.431*[#  1]+0.016*[#  2]+0.016*[#  5]+
    |psi|^2 = 0.463
     e =  26.3224675112 eV
     psi = 0.003*[#  4]+0.003*[#  3]+0.003*[#  6]+
    |psi|^2 = 0.008

 k =  -0.5000000000 -1.0000000000  0.0000000000
     e =  11.1546030478 eV
     psi = 0.494*[#  5]+0.494*[#  2]+
    |psi|^2 = 0.987
     e =  11.9708423456 eV
     psi = 0.328*[#  4]+0.328*[#  3]+0.328*[#  6]+
    |psi|^2 = 0.984
     e =  11.9708423456 eV
     psi = 0.328*[#  4]+0.328*[#  3]+0.328*[#  6]+
    |psi|^2 = 0.984
     e =  13.9041735175 eV
     psi = 0.492*[#  2]+0.492*[#  5]+0.015*[#  1]+
    |psi|^2 = 1.000
     e =  14.9212284548 eV
     psi = 0.333*[#  4]+0.333*[#  3]+0.333*[#  6]+
    |psi|^2 = 0.998
     e =  23.5614125339 eV
     psi = 0.005*[#  4]+0.005*[#  3]+0.005*[#  6]+
    |psi|^2 = 0.016
     e =  23.5614125339 eV
     psi = 0.005*[#  4]+0.005*[#  3]+0.005*[#  6]+
    |psi|^2 = 0.016
     e =  25.9312290657 eV
     psi = 0.006*[#  5]+0.006*[#  2]+
    |psi|^2 = 0.013

 k =   0.0000000000  0.0000000000  0.0000000000
     e =   5.7794761375 eV
     psi = 0.999*[#  1]+
    |psi|^2 = 0.999
     e =  13.3411289870 eV
     psi = 0.333*[#  4]+0.333*[#  3]+0.333*[#  6]+
    |psi|^2 = 1.000
     e =  13.3411289870 eV
     psi = 0.333*[#  4]+0.333*[#  3]+0.333*[#  6]+
    |psi|^2 = 1.000
     e =  13.3411289870 eV
     psi = 0.333*[#  4]+0.333*[#  3]+0.333*[#  6]+
    |psi|^2 = 1.000
     e =  14.5865566444 eV
     psi = 0.500*[#  5]+0.500*[#  2]+
    |psi|^2 = 1.000
     e =  14.5865566444 eV
     psi = 0.500*[#  2]+0.500*[#  5]+
    |psi|^2 = 1.000
     e =  39.8450205123 eV
     psi = 
    |psi|^2 = 0.000
     e =  44.2982078930 eV
     psi = 
    |psi|^2 = 0.000

 k =  -0.0833333333  0.0833333333 -0.0833333333
     e =   6.0678985473 eV
     psi = 0.999*[#  1]+
    |psi|^2 = 0.999
     e =  13.2551711493 eV
     psi = 0.333*[#  4]+0.333*[#  3]+0.333*[#  6]+
    |psi|^2 = 0.999
     e =  13.4095084712 eV
     psi = 0.332*[#  4]+0.332*[#  3]+0.332*[#  6]+0.002*[#  2]+0.002*[#  5]+
    |psi|^2 = 1.000
     e =  13.4095084712 eV
     psi = 0.332*[#  4]+0.332*[#  3]+0.332*[#  6]+0.002*[#  2]+0.002*[#  5]+
    |psi|^2 = 1.000
     e =  14.5574758796 eV
     psi = 0.498*[#  2]+0.498*[#  5]+0.001*[#  4]+0.001*[#  3]+0.001*[#  6]+
    |psi|^2 = 1.000
     e =  14.5574758796 eV
     psi = 0.498*[#  5]+0.498*[#  2]+0.001*[#  4]+0.001*[#  3]+0.001*[#  6]+
    |psi|^2 = 1.000
     e =  39.0172106921 eV
     psi = 
    |psi|^2 = 0.000
     e =  41.7690494784 eV
     psi = 
    |psi|^2 = 0.000

 k =  -0.1666666667  0.1666666667 -0.1666666667
     e =   6.9018591473 eV
     psi = 0.991*[#  1]+0.003*[#  4]+0.003*[#  3]+0.003*[#  6]+
    |psi|^2 = 0.999
     e =  13.0510218751 eV
     psi = 0.330*[#  4]+0.330*[#  3]+0.330*[#  6]+0.008*[#  1]+
    |psi|^2 = 0.998
     e =  13.5449804632 eV
     psi = 0.309*[#  4]+0.309*[#  3]+0.309*[#  6]+0.037*[#  2]+0.037*[#  5]+
    |psi|^2 = 1.000
     e =  13.5449804632 eV
     psi = 0.309*[#  4]+0.309*[#  3]+0.309*[#  6]+0.037*[#  5]+0.037*[#  2]+
    |psi|^2 = 1.000
     e =  14.5384099449 eV
     psi = 0.463*[#  2]+0.463*[#  5]+0.025*[#  4]+0.025*[#  3]+0.025*[#  6]+
    |psi|^2 = 1.000
     e =  14.5384099449 eV
     psi = 0.463*[#  5]+0.463*[#  2]+0.025*[#  4]+0.025*[#  3]+0.025*[#  6]+
    |psi|^2 = 1.000
     e =  35.1995216861 eV
     psi = 
    |psi|^2 = 0.002
     e =  40.7504429424 eV
     psi = 
    |psi|^2 = 0.000

 k =  -0.2500000000  0.2500000000 -0.2500000000
     e =   8.1573835185 eV
     psi = 0.940*[#  1]+0.019*[#  4]+0.019*[#  3]+0.019*[#  6]+
    |psi|^2 = 0.998
     e =  12.8914787438 eV
     psi = 0.312*[#  4]+0.312*[#  3]+0.312*[#  6]+0.057*[#  1]+
    |psi|^2 = 0.993
     e =  13.5657503225 eV
     psi = 0.230*[#  4]+0.230*[#  3]+0.230*[#  6]+0.154*[#  5]+0.154*[#  2]+
    |psi|^2 = 1.000
     e =  13.5657503225 eV
     psi = 0.230*[#  4]+0.230*[#  3]+0.230*[#  6]+0.154*[#  2]+0.154*[#  5]+
    |psi|^2 = 1.000
     e =  14.7005736524 eV
     psi = 0.345*[#  2]+0.345*[#  5]+0.103*[#  4]+0.103*[#  3]+0.103*[#  6]+
    |psi|^2 = 1.000
     e =  14.7005736524 eV
     psi = 0.345*[#  5]+0.345*[#  2]+0.103*[#  4]+0.103*[#  3]+0.103*[#  6]+
    |psi|^2 = 1.000
     e =  30.8081195092 eV
     psi = 0.002*[#  4]+0.002*[#  3]+0.002*[#  6]+
    |psi|^2 = 0.007
     e =  40.0566480665 eV
     psi = 
    |psi|^2 = 0.000

 k =  -0.3333333333  0.3333333333 -0.3333333333
     e =   9.4799901677 eV
     psi = 0.722*[#  1]+0.091*[#  4]+0.091*[#  3]+0.091*[#  6]+
    |psi|^2 = 0.996
     e =  13.1190338706 eV
     psi = 0.259*[#  1]+0.235*[#  4]+0.235*[#  3]+0.235*[#  6]+
    |psi|^2 = 0.962
     e =  13.4456293088 eV
     psi = 0.249*[#  2]+0.249*[#  5]+0.167*[#  4]+0.167*[#  3]+0.167*[#  6]+
    |psi|^2 = 1.000
     e =  13.4456293088 eV
     psi = 0.249*[#  5]+0.249*[#  2]+0.167*[#  4]+0.167*[#  3]+0.167*[#  6]+
    |psi|^2 = 1.000
     e =  15.0318625034 eV
     psi = 0.251*[#  2]+0.251*[#  5]+0.166*[#  4]+0.166*[#  3]+0.166*[#  6]+
    |psi|^2 = 0.999
     e =  15.0318625034 eV
     psi = 0.251*[#  5]+0.251*[#  2]+0.166*[#  4]+0.166*[#  3]+0.166*[#  6]+
    |psi|^2 = 0.999
     e =  26.7679660813 eV
     psi = 0.015*[#  1]+0.007*[#  4]+0.007*[#  3]+0.007*[#  6]+
    |psi|^2 = 0.037
     e =  39.1961115601 eV
     psi = 
    |psi|^2 = 0.000

 k =  -0.4166666667  0.4166666667 -0.4166666667
     e =  10.2473369713 eV
     psi = 0.345*[#  1]+0.217*[#  4]+0.217*[#  3]+0.217*[#  6]+
    |psi|^2 = 0.995
     e =  13.3201692078 eV
     psi = 0.289*[#  2]+0.289*[#  5]+0.140*[#  4]+0.140*[#  3]+0.140*[#  6]+
    |psi|^2 = 1.000
     e =  13.3201692078 eV
     psi = 0.289*[#  5]+0.289*[#  2]+0.140*[#  4]+0.140*[#  3]+0.140*[#  6]+
    |psi|^2 = 1.000
     e =  14.1316555613 eV
     psi = 0.446*[#  1]+0.089*[#  4]+0.089*[#  3]+0.089*[#  6]+
    |psi|^2 = 0.713
     e =  15.3321383831 eV
     psi = 0.210*[#  2]+0.210*[#  5]+0.193*[#  4]+0.193*[#  3]+0.193*[#  6]+
    |psi|^2 = 0.999
     e =  15.3321383831 eV
     psi = 0.210*[#  5]+0.210*[#  2]+0.193*[#  4]+0.193*[#  3]+0.193*[#  6]+
    |psi|^2 = 0.999
     e =  23.4606197418 eV
     psi = 0.192*[#  1]+0.028*[#  4]+0.028*[#  3]+0.028*[#  6]+
    |psi|^2 = 0.276
     e =  38.5315478883 eV
     psi = 
    |psi|^2 = 0.000

 k =   0.5000000000 -0.5000000000  0.5000000000
     e =  10.4254613284 eV
     psi = 0.267*[#  4]+0.267*[#  3]+0.267*[#  6]+0.196*[#  1]+
    |psi|^2 = 0.996
     e =  13.2706215422 eV
     psi = 0.300*[#  2]+0.300*[#  5]+0.133*[#  4]+0.133*[#  3]+0.133*[#  6]+
    |psi|^2 = 1.000
     e =  13.2706215422 eV
     psi = 0.300*[#  5]+0.300*[#  2]+0.133*[#  4]+0.133*[#  3]+0.133*[#  6]+
    |psi|^2 = 1.000
     e =  14.9681106756 eV
     psi = 
    |psi|^2 = 0.000
     e =  15.4503253604 eV
     psi = 0.200*[#  4]+0.200*[#  3]+0.200*[#  6]+0.199*[#  2]+0.199*[#  5]+
    |psi|^2 = 0.999
     e =  15.4503253604 eV
     psi = 0.200*[#  4]+0.200*[#  3]+0.200*[#  6]+0.199*[#  5]+0.199*[#  2]+
    |psi|^2 = 0.999
     e =  21.9342377057 eV
     psi = 0.769*[#  1]+0.066*[#  4]+0.066*[#  3]+0.066*[#  6]+
    |psi|^2 = 0.967
     e =  38.2875768838 eV
     psi = 
    |psi|^2 = 0.000

 k =   0.0000000000  0.1666666667  0.0000000000
     e =   6.1634201305 eV
     psi = 0.998*[#  1]+
    |psi|^2 = 0.999
     e =  13.1859520532 eV
     psi = 0.333*[#  4]+0.333*[#  3]+0.333*[#  6]+
    |psi|^2 = 0.999
     e =  13.4582002062 eV
     psi = 0.333*[#  4]+0.333*[#  3]+0.333*[#  6]+
    |psi|^2 = 1.000
     e =  13.4582002062 eV
     psi = 0.333*[#  4]+0.333*[#  3]+0.333*[#  6]+
    |psi|^2 = 1.000
     e =  14.4450525051 eV
     psi = 0.500*[#  2]+0.500*[#  5]+
    |psi|^2 = 1.000
     e =  14.6405280814 eV
     psi = 0.500*[#  5]+0.500*[#  2]+
    |psi|^2 = 1.000
     e =  39.3323484583 eV
     psi = 
    |psi|^2 = 0.000
     e =  42.1728101854 eV
     psi = 
    |psi|^2 = 0.000

 k =  -0.0833333333  0.2500000000 -0.0833333333
     e =   6.8144530807 eV
     psi = 0.993*[#  1]+0.001*[#  5]+0.001*[#  2]+
    |psi|^2 = 0.999
     e =  12.9933893227 eV
     psi = 0.333*[#  4]+0.333*[#  3]+0.333*[#  6]+
    |psi|^2 = 0.999
     e =  13.5946962526 eV
     psi = 0.319*[#  4]+0.319*[#  3]+0.319*[#  6]+0.021*[#  2]+0.021*[#  5]+
          +0.001*[#  1]+
    |psi|^2 = 1.000
     e =  13.6042052841 eV
     psi = 0.322*[#  4]+0.322*[#  3]+0.322*[#  6]+0.017*[#  5]+0.017*[#  2]+
    |psi|^2 = 1.000
     e =  14.3264904484 eV
     psi = 0.477*[#  5]+0.477*[#  2]+0.014*[#  4]+0.014*[#  3]+0.014*[#  6]+
          +0.004*[#  1]+
    |psi|^2 = 1.000
     e =  14.6911752052 eV
     psi = 0.483*[#  5]+0.483*[#  2]+0.011*[#  4]+0.011*[#  6]+0.011*[#  3]+
    |psi|^2 = 0.999
     e =  36.8456564536 eV
     psi = 
    |psi|^2 = 0.001
     e =  40.0775710932 eV
     psi = 
    |psi|^2 = 0.000

[...]
     e =  31.0579072615 eV
     psi = 0.036*[#  1]+
    |psi|^2 = 0.040

 k =   0.4166666667 -0.0833333333  0.5833333333
     e =  11.0021055060 eV
     psi = 0.477*[#  1]+0.127*[#  4]+0.127*[#  3]+0.127*[#  6]+0.065*[#  5]+
          +0.065*[#  2]+
    |psi|^2 = 0.985
     e =  12.4635043214 eV
     psi = 0.259*[#  4]+0.259*[#  3]+0.259*[#  6]+0.086*[#  5]+0.086*[#  2]+
          +0.032*[#  1]+
    |psi|^2 = 0.979
     e =  12.8073333454 eV
     psi = 0.263*[#  5]+0.263*[#  2]+0.155*[#  4]+0.155*[#  3]+0.155*[#  6]+
          +0.004*[#  1]+
    |psi|^2 = 0.997
     e =  14.1003781752 eV
     psi = 0.395*[#  2]+0.395*[#  5]+0.065*[#  4]+0.065*[#  3]+0.065*[#  6]+
          +0.012*[#  1]+
    |psi|^2 = 0.998
     e =  14.8266945490 eV
     psi = 0.268*[#  4]+0.268*[#  3]+0.268*[#  6]+0.096*[#  2]+0.096*[#  5]+
          +0.003*[#  1]+
    |psi|^2 = 0.998
     e =  17.0277791600 eV
     psi = 0.405*[#  1]+0.118*[#  4]+0.118*[#  3]+0.118*[#  6]+0.094*[#  5]+
          +0.094*[#  2]+
    |psi|^2 = 0.948
     e =  26.6811627571 eV
     psi = 0.035*[#  1]+0.006*[#  4]+0.006*[#  3]+0.006*[#  6]+
    |psi|^2 = 0.054
     e =  30.6795495756 eV
     psi = 0.017*[#  1]+0.001*[#  4]+0.001*[#  3]+0.001*[#  6]+
    |psi|^2 = 0.022

 k =   0.3333333333  0.0000000000  0.5000000000
     e =   9.9672551873 eV
     psi = 0.779*[#  1]+0.044*[#  4]+0.044*[#  3]+0.044*[#  6]+0.041*[#  5]+
          +0.041*[#  2]+
    |psi|^2 = 0.994
     e =  12.4124683147 eV
     psi = 0.331*[#  4]+0.331*[#  3]+0.331*[#  6]+
    |psi|^2 = 0.993
     e =  13.1298286016 eV
     psi = 0.308*[#  5]+0.308*[#  2]+0.127*[#  4]+0.127*[#  3]+0.127*[#  6]+
    |psi|^2 = 0.997
     e =  14.2153741743 eV
     psi = 0.470*[#  2]+0.470*[#  5]+0.027*[#  1]+0.010*[#  4]+0.010*[#  3]+
          +0.010*[#  6]+
    |psi|^2 = 0.998
     e =  14.3769505247 eV
     psi = 0.333*[#  4]+0.333*[#  3]+0.333*[#  6]+
    |psi|^2 = 0.999
     e =  15.9615836955 eV
     psi = 0.181*[#  1]+0.179*[#  2]+0.179*[#  5]+0.151*[#  4]+0.151*[#  3]+
          +0.151*[#  6]+
    |psi|^2 = 0.992
     e =  30.3141445700 eV
     psi = 0.002*[#  4]+0.002*[#  3]+0.002*[#  6]+
    |psi|^2 = 0.007
     e =  31.1503835803 eV
     psi = 0.007*[#  1]+0.001*[#  4]+0.001*[#  3]+0.001*[#  6]+
    |psi|^2 = 0.011

 k =  -0.1666666667  0.6666666667  0.0000000000
     e =  10.4460361242 eV
     psi = 0.467*[#  1]+0.251*[#  5]+0.251*[#  2]+0.008*[#  4]+0.008*[#  3]+
          +0.008*[#  6]+
    |psi|^2 = 0.993
     e =  11.8218157812 eV
     psi = 0.331*[#  4]+0.331*[#  3]+0.331*[#  6]+
    |psi|^2 = 0.994
     e =  13.6407783369 eV
     psi = 0.185*[#  1]+0.173*[#  5]+0.173*[#  2]+0.154*[#  4]+0.154*[#  6]+
          +0.154*[#  3]+
    |psi|^2 = 0.992
     e =  14.9336584341 eV
     psi = 0.333*[#  4]+0.333*[#  3]+0.333*[#  6]+
    |psi|^2 = 0.999
     e =  14.9641487172 eV
     psi = 0.454*[#  2]+0.454*[#  5]+0.064*[#  1]+0.008*[#  4]+0.008*[#  3]+
          +0.008*[#  6]+
    |psi|^2 = 0.995
     e =  15.9341579959 eV
     psi = 0.259*[#  1]+0.162*[#  4]+0.162*[#  3]+0.162*[#  6]+0.120*[#  5]+
          +0.120*[#  2]+
    |psi|^2 = 0.985
     e =  31.2136216014 eV
     psi = 0.001*[#  4]+0.001*[#  6]+0.001*[#  3]+
    |psi|^2 = 0.004
     e =  31.4612579418 eV
     psi = 0.001*[#  1]+
    |psi|^2 = 0.004

 k =   0.7500000000 -0.2500000000  0.9166666667
     e =  11.0166245386 eV
     psi = 0.350*[#  5]+0.350*[#  2]+0.220*[#  1]+0.023*[#  4]+0.023*[#  3]+
          +0.023*[#  6]+
    |psi|^2 = 0.988
     e =  11.7994282388 eV
     psi = 0.316*[#  4]+0.316*[#  6]+0.316*[#  3]+0.020*[#  5]+0.020*[#  2]+
    |psi|^2 = 0.990
     e =  13.4458344951 eV
     psi = 0.228*[#  4]+0.228*[#  3]+0.228*[#  6]+0.136*[#  1]+0.083*[#  5]+
          +0.083*[#  2]+
    |psi|^2 = 0.985
     e =  14.7555675626 eV
     psi = 0.350*[#  5]+0.350*[#  2]+0.095*[#  4]+0.095*[#  3]+0.095*[#  6]+
          +0.012*[#  1]+
    |psi|^2 = 0.996
     e =  15.3647047069 eV
     psi = 0.241*[#  4]+0.241*[#  3]+0.241*[#  6]+0.137*[#  5]+0.137*[#  2]+
          +0.002*[#  1]+
    |psi|^2 = 0.998
     e =  17.4915349878 eV
     psi = 0.516*[#  1]+0.093*[#  4]+0.093*[#  3]+0.093*[#  6]+0.054*[#  5]+
          +0.054*[#  2]+
    |psi|^2 = 0.903
     e =  27.5811952674 eV
     psi = 0.032*[#  1]+0.003*[#  4]+0.003*[#  3]+0.003*[#  6]+
    |psi|^2 = 0.042
     e =  30.3462101253 eV
     psi = 0.025*[#  1]+0.004*[#  5]+0.004*[#  2]+
    |psi|^2 = 0.034

 k =   0.6666666667 -0.1666666667  0.8333333333
     e =  11.4433637896 eV
     psi = 0.348*[#  5]+0.348*[#  2]+0.074*[#  1]+0.072*[#  4]+0.072*[#  3]+
          +0.072*[#  6]+
    |psi|^2 = 0.985
     e =  11.8882275989 eV
     psi = 0.251*[#  4]+0.251*[#  3]+0.251*[#  6]+0.110*[#  5]+0.110*[#  2]+
          +0.002*[#  1]+
    |psi|^2 = 0.976
     e =  13.2240342910 eV
     psi = 0.291*[#  4]+0.291*[#  3]+0.291*[#  6]+0.055*[#  1]+0.022*[#  5]+
          +0.022*[#  2]+
    |psi|^2 = 0.971
     e =  14.5367354314 eV
     psi = 0.411*[#  2]+0.411*[#  5]+0.059*[#  4]+0.059*[#  3]+0.059*[#  6]+
    |psi|^2 = 0.997
     e =  15.4554051890 eV
     psi = 0.278*[#  4]+0.278*[#  3]+0.278*[#  6]+0.082*[#  5]+0.082*[#  2]+
    |psi|^2 = 0.999
     e =  19.7462433272 eV
     psi = 0.371*[#  1]+0.036*[#  4]+0.036*[#  3]+0.036*[#  6]+0.021*[#  5]+
          +0.021*[#  2]+
    |psi|^2 = 0.520
     e =  24.1738198205 eV
     psi = 0.280*[#  1]+0.012*[#  4]+0.012*[#  3]+0.012*[#  6]+
    |psi|^2 = 0.317
     e =  28.8712665246 eV
     psi = 0.133*[#  1]+0.006*[#  5]+0.006*[#  2]+
    |psi|^2 = 0.146

 k =   0.5833333333 -0.0833333333  0.7500000000
     e =  11.8478419020 eV
     psi = 0.202*[#  4]+0.202*[#  3]+0.202*[#  6]+0.171*[#  5]+0.171*[#  2]+
          +0.046*[#  1]+
    |psi|^2 = 0.994
     e =  11.9319167868 eV
     psi = 0.315*[#  5]+0.315*[#  2]+0.100*[#  4]+0.100*[#  3]+0.100*[#  6]+
          +0.031*[#  1]+
    |psi|^2 = 0.962
     e =  12.9286666192 eV
     psi = 0.322*[#  4]+0.322*[#  3]+0.322*[#  6]+
    |psi|^2 = 0.968
     e =  14.3753123926 eV
     psi = 0.461*[#  2]+0.461*[#  5]+0.025*[#  4]+0.025*[#  3]+0.025*[#  6]+
    |psi|^2 = 0.999
     e =  15.2835787215 eV
     psi = 0.310*[#  4]+0.310*[#  3]+0.310*[#  6]+0.035*[#  2]+0.035*[#  5]+
    |psi|^2 = 0.999
     e =  20.7807136514 eV
     psi = 0.287*[#  1]+0.021*[#  4]+0.021*[#  3]+0.021*[#  6]+0.010*[#  5]+
          +0.010*[#  2]+
    |psi|^2 = 0.369
     e =  23.0637002103 eV
     psi = 0.343*[#  1]+0.018*[#  4]+0.018*[#  3]+0.018*[#  6]+0.001*[#  5]+
          +0.001*[#  2]+
    |psi|^2 = 0.400
     e =  27.8475705962 eV
     psi = 0.218*[#  1]+0.004*[#  2]+0.004*[#  5]+0.002*[#  4]+0.002*[#  3]+
          +0.002*[#  6]+
    |psi|^2 = 0.232

 k =   0.5000000000  0.0000000000  0.6666666667
     e =  11.7283077119 eV
     psi = 0.237*[#  1]+0.168*[#  4]+0.168*[#  3]+0.168*[#  6]+0.114*[#  5]+
          +0.114*[#  2]+
    |psi|^2 = 0.970
     e =  12.3167976430 eV
     psi = 0.353*[#  5]+0.353*[#  2]+0.094*[#  4]+0.094*[#  3]+0.094*[#  6]+
          +0.003*[#  1]+
    |psi|^2 = 0.992
     e =  12.5543951663 eV
     psi = 0.328*[#  4]+0.328*[#  3]+0.328*[#  6]+
    |psi|^2 = 0.983
     e =  14.2970654433 eV
     psi = 0.495*[#  2]+0.495*[#  5]+0.002*[#  4]+0.002*[#  3]+0.002*[#  6]+
          +0.002*[#  1]+
    |psi|^2 = 0.997
     e =  14.9838879591 eV
     psi = 0.333*[#  4]+0.333*[#  3]+0.333*[#  6]+
    |psi|^2 = 0.999
     e =  18.6792262183 eV
     psi = 0.569*[#  1]+0.065*[#  4]+0.065*[#  3]+0.065*[#  6]+0.035*[#  5]+
          +0.035*[#  2]+
    |psi|^2 = 0.833
     e =  25.7504044047 eV
     psi = 0.006*[#  4]+0.006*[#  3]+0.006*[#  6]+
    |psi|^2 = 0.018
     e =  27.8160098622 eV
     psi = 0.154*[#  1]+0.004*[#  4]+0.004*[#  3]+0.004*[#  6]+0.002*[#  2]+
          +0.002*[#  5]+
    |psi|^2 = 0.168

 k =   0.8333333333 -0.1666666667  1.0000000000
     e =  10.7669208967 eV
     psi = 0.428*[#  5]+0.428*[#  2]+0.132*[#  1]+0.001*[#  3]+0.001*[#  4]+
          +0.001*[#  6]+
    |psi|^2 = 0.991
     e =  11.4921350373 eV
     psi = 0.331*[#  4]+0.331*[#  3]+0.331*[#  6]+
    |psi|^2 = 0.993
     e =  14.3867863215 eV
     psi = 0.256*[#  4]+0.256*[#  3]+0.256*[#  6]+0.113*[#  1]+0.043*[#  5]+
          +0.043*[#  2]+
    |psi|^2 = 0.967
     e =  15.2199784156 eV
     psi = 0.477*[#  5]+0.477*[#  2]+0.010*[#  1]+0.010*[#  4]+0.010*[#  6]+
          +0.010*[#  3]+
    |psi|^2 = 0.994
     e =  15.4584428728 eV
     psi = 0.333*[#  4]+0.333*[#  3]+0.333*[#  6]+
    |psi|^2 = 0.999
     e =  17.6359603474 eV
     psi = 0.527*[#  1]+0.066*[#  4]+0.066*[#  3]+0.066*[#  6]+0.039*[#  5]+
          +0.039*[#  2]+
    |psi|^2 = 0.802
     e =  27.9028578612 eV
     psi = 0.110*[#  1]+0.012*[#  5]+0.012*[#  2]+
    |psi|^2 = 0.134
     e =  29.7932081319 eV
     psi = 0.001*[#  4]+0.001*[#  3]+0.001*[#  6]+
    |psi|^2 = 0.004

 k =   0.7500000000 -0.0833333333  0.9166666667
     e =  11.0429696899 eV
     psi = 0.459*[#  5]+0.459*[#  2]+0.056*[#  1]+0.005*[#  4]+0.005*[#  3]+
          +0.005*[#  6]+
    |psi|^2 = 0.988
     e =  11.5945737114 eV
     psi = 0.325*[#  4]+0.325*[#  3]+0.325*[#  6]+0.007*[#  5]+0.007*[#  2]+
    |psi|^2 = 0.989
     e =  13.9739487024 eV
     psi = 0.299*[#  4]+0.299*[#  3]+0.299*[#  6]+0.031*[#  1]+0.010*[#  5]+
          +0.010*[#  2]+
    |psi|^2 = 0.949
     e =  14.9780275759 eV
     psi = 0.478*[#  5]+0.478*[#  2]+0.014*[#  4]+0.014*[#  3]+0.014*[#  6]+
    |psi|^2 = 0.997
     e =  15.5806954362 eV
     psi = 0.323*[#  4]+0.323*[#  3]+0.323*[#  6]+0.015*[#  5]+0.015*[#  2]+
    |psi|^2 = 0.999
     e =  19.7665922927 eV
     psi = 0.265*[#  1]+0.029*[#  4]+0.029*[#  3]+0.029*[#  6]+0.011*[#  5]+
          +0.011*[#  2]+
    |psi|^2 = 0.375
     e =  26.2597734641 eV
     psi = 0.065*[#  1]+0.010*[#  5]+0.010*[#  2]+
    |psi|^2 = 0.088
     e =  26.9616429745 eV
     psi = 0.439*[#  1]+0.009*[#  2]+0.009*[#  5]+0.003*[#  4]+0.003*[#  3]+
          +0.003*[#  6]+
    |psi|^2 = 0.464

 k =   0.6666666667  0.0000000000  0.8333333333
     e =  11.4195848701 eV
     psi = 0.458*[#  5]+0.458*[#  2]+0.019*[#  1]+0.017*[#  4]+0.017*[#  3]+
          +0.017*[#  6]+
    |psi|^2 = 0.985
     e =  11.8146589868 eV
     psi = 0.306*[#  4]+0.306*[#  3]+0.306*[#  6]+0.027*[#  5]+0.027*[#  2]+
          +0.011*[#  1]+
    |psi|^2 = 0.982
     e =  13.4025730829 eV
     psi = 0.319*[#  4]+0.319*[#  3]+0.319*[#  6]+
    |psi|^2 = 0.957
     e =  14.6934573798 eV
     psi = 0.497*[#  5]+0.497*[#  2]+0.003*[#  1]+
    |psi|^2 = 0.999
     e =  15.4650208059 eV
     psi = 0.333*[#  4]+0.333*[#  3]+0.333*[#  6]+
    |psi|^2 = 0.998
     e =  21.9121487025 eV
     psi = 0.014*[#  4]+0.014*[#  3]+0.014*[#  6]+
    |psi|^2 = 0.043
     e =  23.4910468869 eV
     psi = 0.185*[#  1]+0.008*[#  4]+0.008*[#  3]+0.008*[#  6]+0.002*[#  5]+
          +0.002*[#  2]+
    |psi|^2 = 0.212
     e =  26.2606586215 eV
     psi = 0.660*[#  1]+0.015*[#  2]+0.015*[#  5]+0.002*[#  4]+0.002*[#  6]+
          +0.002*[#  3]+
    |psi|^2 = 0.696

 k =  -0.1666666667 -1.0000000000  0.0000000000
     e =  10.7511629719 eV
     psi = 0.465*[#  5]+0.465*[#  2]+0.061*[#  1]+
    |psi|^2 = 0.992
     e =  11.3738171066 eV
     psi = 0.331*[#  4]+0.331*[#  3]+0.331*[#  6]+
    |psi|^2 = 0.992
     e =  14.7650983873 eV
     psi = 0.308*[#  4]+0.308*[#  3]+0.308*[#  6]+
    |psi|^2 = 0.925
     e =  15.2339663568 eV
     psi = 0.499*[#  5]+0.499*[#  2]+
    |psi|^2 = 0.999
     e =  15.6729679753 eV
     psi = 0.333*[#  4]+0.333*[#  3]+0.333*[#  6]+
    |psi|^2 = 0.999
     e =  19.1070308603 eV
     psi = 0.025*[#  4]+0.025*[#  3]+0.025*[#  6]+
    |psi|^2 = 0.074
     e =  25.6216352846 eV
     psi = 0.687*[#  1]+0.034*[#  5]+0.034*[#  2]+
    |psi|^2 = 0.754
     e =  29.2680798577 eV
     psi = 0.001*[#  4]+0.001*[#  3]+0.001*[#  6]+
    |psi|^2 = 0.004

 k =   0.6666666667 -0.3333333333  1.0000000000
     e =  11.1109273736 eV
     psi = 0.392*[#  1]+0.228*[#  5]+0.228*[#  2]+0.045*[#  4]+0.045*[#  3]+
          +0.045*[#  6]+
    |psi|^2 = 0.984
     e =  12.1103624228 eV
     psi = 0.330*[#  4]+0.330*[#  3]+0.330*[#  6]+
    |psi|^2 = 0.991
     e =  12.8637097624 eV
     psi = 0.209*[#  5]+0.209*[#  2]+0.173*[#  4]+0.173*[#  3]+0.173*[#  6]+
          +0.060*[#  1]+
    |psi|^2 = 0.996
     e =  14.5989287059 eV
     psi = 0.483*[#  2]+0.483*[#  5]+0.028*[#  1]+
    |psi|^2 = 0.995
     e =  14.9377040725 eV
     psi = 0.333*[#  4]+0.333*[#  3]+0.333*[#  6]+
    |psi|^2 = 0.999
     e =  17.1864952984 eV
     psi = 0.456*[#  1]+0.113*[#  4]+0.113*[#  3]+0.113*[#  6]+0.077*[#  5]+
          +0.077*[#  2]+
    |psi|^2 = 0.949
     e =  28.3569346733 eV
     psi = 0.003*[#  4]+0.003*[#  6]+0.003*[#  3]+
    |psi|^2 = 0.009
     e =  29.4579596006 eV
     psi = 0.036*[#  1]+0.002*[#  4]+0.002*[#  3]+0.002*[#  6]+
    |psi|^2 = 0.042

 k =   0.5833333333 -0.2500000000  0.9166666667
     e =  11.6314113334 eV
     psi = 0.298*[#  5]+0.298*[#  2]+0.137*[#  1]+0.081*[#  4]+0.081*[#  3]+
          +0.081*[#  6]+
    |psi|^2 = 0.976
     e =  12.1570608195 eV
     psi = 0.245*[#  4]+0.245*[#  3]+0.245*[#  6]+0.122*[#  5]+0.122*[#  2]+
          +0.003*[#  1]+
    |psi|^2 = 0.982
     e =  12.6963441978 eV
     psi = 0.271*[#  4]+0.271*[#  3]+0.271*[#  6]+0.058*[#  5]+0.058*[#  2]+
          +0.056*[#  1]+
    |psi|^2 = 0.986
     e =  14.4380821137 eV
     psi = 0.443*[#  2]+0.443*[#  5]+0.036*[#  4]+0.036*[#  3]+0.036*[#  6]+
          +0.002*[#  1]+
    |psi|^2 = 0.995
     e =  15.2691673041 eV
     psi = 0.302*[#  4]+0.302*[#  3]+0.302*[#  6]+0.045*[#  2]+0.045*[#  5]+
    |psi|^2 = 0.998
     e =  19.0253039462 eV
     psi = 0.531*[#  1]+0.053*[#  4]+0.053*[#  3]+0.053*[#  6]+0.030*[#  5]+
          +0.030*[#  2]+
    |psi|^2 = 0.751
     e =  25.1060941153 eV
     psi = 0.127*[#  1]+0.009*[#  4]+0.009*[#  6]+0.009*[#  3]+
    |psi|^2 = 0.154
     e =  29.3005838827 eV
     psi = 0.055*[#  1]+0.001*[#  4]+0.001*[#  3]+0.001*[#  6]+0.001*[#  5]+
          +0.001*[#  2]+
    |psi|^2 = 0.062

 k =   0.5000000000 -0.1666666667  0.8333333333
     e =  11.9091919144 eV
     psi = 0.483*[#  5]+0.483*[#  2]+
    |psi|^2 = 0.967
     e =  11.9557378055 eV
     psi = 0.301*[#  4]+0.301*[#  3]+0.301*[#  6]+0.077*[#  1]+0.005*[#  5]+
          +0.005*[#  2]+
    |psi|^2 = 0.989
     e =  12.7963925758 eV
     psi = 0.321*[#  4]+0.321*[#  6]+0.321*[#  3]+0.001*[#  2]+0.001*[#  5]+
    |psi|^2 = 0.965
     e =  14.3293912877 eV
     psi = 0.442*[#  2]+0.442*[#  5]+0.038*[#  4]+0.038*[#  3]+0.038*[#  6]+
    |psi|^2 = 0.998
     e =  15.3990209310 eV
     psi = 0.299*[#  4]+0.299*[#  3]+0.299*[#  6]+0.049*[#  2]+0.049*[#  5]+
          +0.003*[#  1]+
    |psi|^2 = 0.999
     e =  20.8706493930 eV
     psi = 0.013*[#  5]+0.013*[#  2]+0.012*[#  4]+0.012*[#  3]+0.012*[#  6]+
    |psi|^2 = 0.061
     e =  22.6720971629 eV
     psi = 0.710*[#  1]+0.028*[#  4]+0.028*[#  3]+0.028*[#  6]+0.002*[#  2]+
          +0.002*[#  5]+
    |psi|^2 = 0.799
     e =  29.7946033445 eV
     psi = 0.002*[#  5]+0.002*[#  2]+
    |psi|^2 = 0.007

 k =   0.6666666667 -0.1666666667  1.0000000000
     e =  11.3160027016 eV
     psi = 0.444*[#  5]+0.444*[#  2]+0.077*[#  1]+0.006*[#  3]+0.006*[#  4]+
          +0.006*[#  6]+
    |psi|^2 = 0.983
     e =  11.8796320428 eV
     psi = 0.330*[#  4]+0.330*[#  3]+0.330*[#  6]+
    |psi|^2 = 0.989
     e =  13.2264847711 eV
     psi = 0.275*[#  4]+0.275*[#  3]+0.275*[#  6]+0.076*[#  1]+0.037*[#  5]+
          +0.037*[#  2]+
    |psi|^2 = 0.977
     e =  14.7880414068 eV
     psi = 0.485*[#  2]+0.485*[#  5]+0.008*[#  4]+0.008*[#  6]+0.008*[#  3]+
    |psi|^2 = 0.994
     e =  15.4551682106 eV
     psi = 0.333*[#  4]+0.333*[#  3]+0.333*[#  6]+
    |psi|^2 = 0.998
     e =  19.3844493357 eV
     psi = 0.520*[#  1]+0.043*[#  4]+0.043*[#  3]+0.043*[#  6]+0.024*[#  5]+
          +0.024*[#  2]+
    |psi|^2 = 0.696
     e =  26.9963283726 eV
     psi = 0.004*[#  4]+0.004*[#  3]+0.004*[#  6]+
    |psi|^2 = 0.011
     e =  28.0761450511 eV
     psi = 0.006*[#  1]+0.004*[#  5]+0.004*[#  2]+
    |psi|^2 = 0.015

 k =   0.5833333333 -0.0833333333  0.9166666667
     e =  11.5497903321 eV
     psi = 0.481*[#  5]+0.481*[#  2]+0.011*[#  1]+0.003*[#  4]+0.003*[#  3]+
          +0.003*[#  6]+
    |psi|^2 = 0.980
     e =  12.0975925148 eV
     psi = 0.322*[#  4]+0.322*[#  3]+0.322*[#  6]+0.009*[#  1]+0.004*[#  5]+
          +0.004*[#  2]+
    |psi|^2 = 0.983
     e =  12.9196095397 eV
     psi = 0.315*[#  4]+0.315*[#  3]+0.315*[#  6]+0.015*[#  1]+0.005*[#  2]+
          +0.005*[#  5]+
    |psi|^2 = 0.970
     e =  14.5537056837 eV
     psi = 0.487*[#  2]+0.487*[#  5]+0.007*[#  1]+0.006*[#  4]+0.006*[#  6]+
          +0.006*[#  3]+
    |psi|^2 = 0.998
     e =  15.5685880760 eV
     psi = 0.330*[#  4]+0.330*[#  3]+0.330*[#  6]+0.004*[#  2]+0.004*[#  5]+
    |psi|^2 = 0.999
     e =  21.7950112785 eV
     psi = 0.180*[#  1]+0.015*[#  4]+0.015*[#  3]+0.015*[#  6]+0.006*[#  5]+
          +0.006*[#  2]+
    |psi|^2 = 0.238
     e =  24.1552458694 eV
     psi = 0.209*[#  1]+0.008*[#  4]+0.008*[#  3]+0.008*[#  6]+0.002*[#  5]+
          +0.002*[#  2]+
    |psi|^2 = 0.237
     e =  27.2391143153 eV
     psi = 0.215*[#  1]+0.008*[#  2]+0.008*[#  5]+
    |psi|^2 = 0.233

 k =   0.5000000000  0.0000000000  0.8333333333
     e =  11.7240462358 eV
     psi = 0.479*[#  5]+0.479*[#  2]+0.008*[#  1]+0.003*[#  4]+0.003*[#  3]+
          +0.003*[#  6]+
    |psi|^2 = 0.975
     e =  12.3398578249 eV
     psi = 0.303*[#  4]+0.303*[#  3]+0.303*[#  6]+0.049*[#  1]+0.013*[#  2]+
          +0.013*[#  5]+
    |psi|^2 = 0.983
     e =  12.5276800685 eV
     psi = 0.326*[#  4]+0.326*[#  3]+0.326*[#  6]+
    |psi|^2 = 0.978
     e =  14.4671992917 eV
     psi = 0.490*[#  2]+0.490*[#  5]+0.005*[#  1]+0.005*[#  4]+0.005*[#  3]+
          +0.005*[#  6]+
    |psi|^2 = 0.998
     e =  15.4533389480 eV
     psi = 0.333*[#  4]+0.333*[#  3]+0.333*[#  6]+
    |psi|^2 = 0.998
     e =  21.2952715715 eV
     psi = 0.417*[#  1]+0.021*[#  4]+0.021*[#  3]+0.021*[#  6]+0.010*[#  5]+
          +0.010*[#  2]+
    |psi|^2 = 0.498
     e =  24.3088432782 eV
     psi = 0.007*[#  4]+0.007*[#  3]+0.007*[#  6]+
    |psi|^2 = 0.022
     e =  26.9954862916 eV
     psi = 0.331*[#  1]+0.005*[#  2]+0.005*[#  5]+0.002*[#  4]+0.002*[#  3]+
          +0.002*[#  6]+
    |psi|^2 = 0.349

 k =  -0.3333333333 -1.0000000000  0.0000000000
     e =  11.2463681270 eV
     psi = 0.480*[#  5]+0.480*[#  2]+0.025*[#  1]+
    |psi|^2 = 0.986
     e =  11.7948979698 eV
     psi = 0.329*[#  4]+0.329*[#  3]+0.329*[#  6]+
    |psi|^2 = 0.988
     e =  13.5188070111 eV
     psi = 0.317*[#  4]+0.317*[#  3]+0.317*[#  6]+
    |psi|^2 = 0.952
     e =  14.7780122432 eV
     psi = 0.496*[#  5]+0.496*[#  2]+0.007*[#  1]+
    |psi|^2 = 0.999
     e =  15.6736274369 eV
     psi = 0.333*[#  4]+0.333*[#  3]+0.333*[#  6]+
    |psi|^2 = 0.999
     e =  21.2657231199 eV
     psi = 0.016*[#  4]+0.016*[#  3]+0.016*[#  6]+
    |psi|^2 = 0.047
     e =  25.8670970894 eV
     psi = 0.427*[#  1]+0.020*[#  2]+0.020*[#  5]+
    |psi|^2 = 0.466
     e =  26.4952491397 eV
     psi = 0.004*[#  4]+0.004*[#  3]+0.004*[#  6]+
    |psi|^2 = 0.011

 k =  -0.5000000000 -1.0000000000  0.0000000000
     e =  11.5603920427 eV
     psi = 0.491*[#  5]+0.491*[#  2]+
    |psi|^2 = 0.982
     e =  12.5091136676 eV
     psi = 0.325*[#  4]+0.325*[#  3]+0.325*[#  6]+
    |psi|^2 = 0.976
     e =  12.5091136676 eV
     psi = 0.325*[#  4]+0.325*[#  3]+0.325*[#  6]+
    |psi|^2 = 0.976
     e =  14.4806043823 eV
     psi = 0.491*[#  2]+0.491*[#  5]+0.018*[#  1]+
    |psi|^2 = 1.000
     e =  15.6739506664 eV
     psi = 0.333*[#  4]+0.333*[#  3]+0.333*[#  6]+
    |psi|^2 = 0.999
     e =  23.7658880836 eV
     psi = 0.008*[#  4]+0.008*[#  3]+0.008*[#  6]+
    |psi|^2 = 0.023
     e =  23.7658880836 eV
     psi = 0.008*[#  4]+0.008*[#  3]+0.008*[#  6]+
    |psi|^2 = 0.023
     e =  26.1524096386 eV
     psi = 0.009*[#  5]+0.009*[#  2]+
    |psi|^2 = 0.018

Lowdin Charges: 

     Atom #   1: total charge =   9.8849, s, p, d, f =   0.9347  0.0000  8.9501
     Spilling Parameter:   0.0115
