
     Program POST-PROC v.3.0    starts ...
     Today is 17Oct2005 at  2:42:55 

     Reading file ni.save ...      only dimensions
     read complete

     Reading file ni.save ...      all except wavefuctions
     read complete

     nbndx  =     8  nbnd   =     8  natomwfc =     6  npwx   =     144
     nelec  =  10.00  nkb   =    18  ngl    =     104

     Check: negative/imaginary core charge=   -0.000015    0.000000

     Gaussian broadening (read from input): ngauss,degauss=   1    0.020000


     Calling projwave .... 

Projection on atomic states:

     state #  1: atom   1 (Ni ), wfc  1 (l=0 m= 1)
     state #  2: atom   1 (Ni ), wfc  2 (l=2 m= 1)
     state #  3: atom   1 (Ni ), wfc  2 (l=2 m= 2)
     state #  4: atom   1 (Ni ), wfc  2 (l=2 m= 3)
     state #  5: atom   1 (Ni ), wfc  2 (l=2 m= 4)
     state #  6: atom   1 (Ni ), wfc  2 (l=2 m= 5)

 k =   0.0000000000  0.0000000000  0.0000000000
     e =     5.74919231 eV
     psi = 0.999*[#  1]+
    |psi|^2 = 0.999
     e =    12.68556244 eV
     psi = 0.333*[#  3]+0.333*[#  4]+0.333*[#  6]+
    |psi|^2 = 1.000
     e =    12.68556244 eV
     psi = 0.333*[#  3]+0.333*[#  4]+0.333*[#  6]+
    |psi|^2 = 1.000
     e =    12.68556244 eV
     psi = 0.333*[#  3]+0.333*[#  4]+0.333*[#  6]+
    |psi|^2 = 1.000
     e =    13.98446158 eV
     psi = 0.500*[#  2]+0.500*[#  5]+
    |psi|^2 = 0.999
     e =    13.98446158 eV
     psi = 0.500*[#  2]+0.500*[#  5]+
    |psi|^2 = 0.999
     e =    39.87484081 eV
     psi = 
    |psi|^2 = 0.000
     e =    44.27478837 eV
     psi = 
    |psi|^2 = 0.000

 k =  -0.0833333333  0.0833333333 -0.0833333333
     e =     6.03762572 eV
     psi = 0.998*[#  1]+
    |psi|^2 = 0.999
     e =    12.60760173 eV
     psi = 0.333*[#  3]+0.333*[#  4]+0.333*[#  6]+
    |psi|^2 = 1.000
     e =    12.75194177 eV
     psi = 0.332*[#  3]+0.332*[#  4]+0.332*[#  6]+0.002*[#  2]+0.002*[#  5]+
    |psi|^2 = 1.000
     e =    12.75194177 eV
     psi = 0.332*[#  3]+0.332*[#  4]+0.332*[#  6]+0.002*[#  2]+0.002*[#  5]+
    |psi|^2 = 1.000
     e =    13.95687964 eV
     psi = 0.498*[#  2]+0.498*[#  5]+0.001*[#  3]+0.001*[#  4]+0.001*[#  6]+
    |psi|^2 = 0.999
     e =    13.95687964 eV
     psi = 0.498*[#  2]+0.498*[#  5]+0.001*[#  3]+0.001*[#  4]+0.001*[#  6]+
    |psi|^2 = 0.999
     e =    38.98161719 eV
     psi = 
    |psi|^2 = 0.000
     e =    41.75140418 eV
     psi = 
    |psi|^2 = 0.000

 k =  -0.1666666667  0.1666666667 -0.1666666667
     e =     6.86892777 eV
     psi = 0.989*[#  1]+0.003*[#  3]+0.003*[#  4]+0.003*[#  6]+
    |psi|^2 = 0.999
     e =    12.42868245 eV
     psi = 0.330*[#  3]+0.330*[#  4]+0.330*[#  6]+0.009*[#  1]+
    |psi|^2 = 0.999
     e =    12.88948240 eV
     psi = 0.313*[#  3]+0.313*[#  4]+0.313*[#  6]+0.031*[#  2]+0.031*[#  5]+
    |psi|^2 = 1.000
     e =    12.88948240 eV
     psi = 0.313*[#  3]+0.313*[#  4]+0.313*[#  6]+0.031*[#  2]+0.031*[#  5]+
    |psi|^2 = 1.000
     e =    13.93361617 eV
     psi = 0.469*[#  2]+0.469*[#  5]+0.020*[#  3]+0.020*[#  4]+0.020*[#  6]+
    |psi|^2 = 0.999
     e =    13.93361617 eV
     psi = 0.469*[#  2]+0.469*[#  5]+0.020*[#  3]+0.020*[#  4]+0.020*[#  6]+
    |psi|^2 = 0.999
     e =    35.07348856 eV
     psi = 
    |psi|^2 = 0.001
     e =    40.76620958 eV
     psi = 
    |psi|^2 = 0.000

 k =  -0.2500000000  0.2500000000 -0.2500000000
     e =     8.10218956 eV
     psi = 0.927*[#  1]+0.024*[#  3]+0.024*[#  4]+0.024*[#  6]+
    |psi|^2 = 0.998
     e =    12.32699202 eV
     psi = 0.308*[#  3]+0.308*[#  4]+0.308*[#  6]+0.071*[#  1]+
    |psi|^2 = 0.995
     e =    12.93342663 eV
     psi = 0.243*[#  3]+0.243*[#  4]+0.243*[#  6]+0.135*[#  2]+0.135*[#  5]+
    |psi|^2 = 1.000
     e =    12.93342663 eV
     psi = 0.243*[#  3]+0.243*[#  4]+0.243*[#  6]+0.135*[#  2]+0.135*[#  5]+
    |psi|^2 = 1.000
     e =    14.06743762 eV
     psi = 0.365*[#  2]+0.365*[#  5]+0.090*[#  3]+0.090*[#  4]+0.090*[#  6]+
    |psi|^2 = 0.999
     e =    14.06743762 eV
     psi = 0.365*[#  2]+0.365*[#  5]+0.090*[#  3]+0.090*[#  4]+0.090*[#  6]+
    |psi|^2 = 0.999
     e =    30.63356939 eV
     psi = 0.001*[#  3]+0.001*[#  4]+0.001*[#  6]+
    |psi|^2 = 0.005
     e =    40.07431813 eV
     psi = 
    |psi|^2 = 0.000

 k =  -0.3333333333  0.3333333333 -0.3333333333
     e =     9.31770710 eV
     psi = 0.662*[#  1]+0.112*[#  3]+0.112*[#  4]+0.112*[#  6]+
    |psi|^2 = 0.997
     e =    12.71405101 eV
     psi = 0.319*[#  1]+0.216*[#  3]+0.216*[#  4]+0.216*[#  6]+
    |psi|^2 = 0.968
     e =    12.83910683 eV
     psi = 0.231*[#  2]+0.231*[#  5]+0.179*[#  3]+0.179*[#  4]+0.179*[#  6]+
    |psi|^2 = 1.000
     e =    12.83910683 eV
     psi = 0.231*[#  2]+0.231*[#  5]+0.179*[#  3]+0.179*[#  4]+0.179*[#  6]+
    |psi|^2 = 1.000
     e =    14.36517729 eV
     psi = 0.269*[#  2]+0.269*[#  5]+0.154*[#  3]+0.154*[#  4]+0.154*[#  6]+
    |psi|^2 = 0.999
     e =    14.36517729 eV
     psi = 0.269*[#  2]+0.269*[#  5]+0.154*[#  3]+0.154*[#  4]+0.154*[#  6]+
    |psi|^2 = 0.999
     e =    26.53729758 eV
     psi = 0.014*[#  1]+0.005*[#  3]+0.005*[#  4]+0.005*[#  6]+
    |psi|^2 = 0.030
     e =    39.22284698 eV
     psi = 
    |psi|^2 = 0.000

 k =  -0.4166666667  0.4166666667 -0.4166666667
     e =     9.91004557 eV
     psi = 0.295*[#  1]+0.234*[#  3]+0.234*[#  4]+0.234*[#  6]+
    |psi|^2 = 0.996
     e =    12.72810516 eV
     psi = 0.275*[#  2]+0.275*[#  5]+0.150*[#  3]+0.150*[#  4]+0.150*[#  6]+
    |psi|^2 = 1.000
     e =    12.72810516 eV
     psi = 0.275*[#  2]+0.275*[#  5]+0.150*[#  3]+0.150*[#  4]+0.150*[#  6]+
    |psi|^2 = 1.000
     e =    13.98621590 eV
     psi = 0.500*[#  1]+0.077*[#  3]+0.077*[#  4]+0.077*[#  6]+
    |psi|^2 = 0.730
     e =    14.64330707 eV
     psi = 0.225*[#  2]+0.225*[#  5]+0.183*[#  3]+0.183*[#  4]+0.183*[#  6]+
    |psi|^2 = 0.999
     e =    14.64330707 eV
     psi = 0.225*[#  2]+0.225*[#  5]+0.183*[#  3]+0.183*[#  4]+0.183*[#  6]+
    |psi|^2 = 0.999
     e =    23.14463857 eV
     psi = 0.189*[#  1]+0.023*[#  3]+0.023*[#  4]+0.023*[#  6]+
    |psi|^2 = 0.257
     e =    38.56684746 eV
     psi = 
    |psi|^2 = 0.000

 k =   0.5000000000 -0.5000000000  0.5000000000
     e =    10.02719238 eV
     psi = 0.275*[#  3]+0.275*[#  4]+0.275*[#  6]+0.174*[#  1]+
    |psi|^2 = 0.998
     e =    12.68310305 eV
     psi = 0.287*[#  2]+0.287*[#  5]+0.142*[#  3]+0.142*[#  4]+0.142*[#  6]+
    |psi|^2 = 1.000
     e =    12.68310305 eV
     psi = 0.287*[#  2]+0.287*[#  5]+0.142*[#  3]+0.142*[#  4]+0.142*[#  6]+
    |psi|^2 = 1.000
     e =    14.75365049 eV
     psi = 0.213*[#  2]+0.213*[#  5]+0.191*[#  3]+0.191*[#  4]+0.191*[#  6]+
    |psi|^2 = 0.999
     e =    14.75365049 eV
     psi = 0.213*[#  2]+0.213*[#  5]+0.191*[#  3]+0.191*[#  4]+0.191*[#  6]+
    |psi|^2 = 0.999
     e =    14.96586970 eV
     psi = 
    |psi|^2 = 0.000
     e =    21.53615084 eV
     psi = 0.791*[#  1]+0.058*[#  3]+0.058*[#  4]+0.058*[#  6]+
    |psi|^2 = 0.966
     e =    38.32606494 eV
     psi = 
    |psi|^2 = 0.000

 k =   0.0000000000  0.1666666667  0.0000000000
     e =     6.13320135 eV
     psi = 0.998*[#  1]+
    |psi|^2 = 0.999
     e =    12.53984145 eV
     psi = 0.333*[#  3]+0.333*[#  4]+0.333*[#  6]+
    |psi|^2 = 1.000
     e =    12.79959927 eV
     psi = 0.333*[#  3]+0.333*[#  4]+0.333*[#  6]+
    |psi|^2 = 1.000
     e =    12.79959927 eV
     psi = 0.333*[#  3]+0.333*[#  4]+0.333*[#  6]+
    |psi|^2 = 1.000
     e =    13.85041629 eV
     psi = 0.499*[#  2]+0.499*[#  5]+
    |psi|^2 = 1.000
     e =    14.03676168 eV
     psi = 0.500*[#  2]+0.500*[#  5]+
    |psi|^2 = 0.999
     e =    39.31644459 eV
     psi = 
    |psi|^2 = 0.000
     e =    42.08776533 eV
     psi = 
    |psi|^2 = 0.000

 k =  -0.0833333333  0.2500000000 -0.0833333333
     e =     6.78284272 eV
     psi = 0.992*[#  1]+0.001*[#  2]+0.001*[#  5]+0.001*[#  3]+0.001*[#  4]+
          +0.001*[#  6]+
    |psi|^2 = 0.999
     e =    12.36309566 eV
     psi = 0.333*[#  3]+0.333*[#  4]+0.333*[#  6]+0.001*[#  1]+
    |psi|^2 = 0.999
     e =    12.93656435 eV
     psi = 0.322*[#  3]+0.322*[#  4]+0.322*[#  6]+0.017*[#  2]+0.017*[#  5]+
          +0.001*[#  1]+
    |psi|^2 = 1.000
     e =    12.94441094 eV
     psi = 0.324*[#  3]+0.324*[#  4]+0.324*[#  6]+0.014*[#  2]+0.014*[#  5]+
    |psi|^2 = 1.000
     e =    13.73610891 eV
     psi = 0.482*[#  2]+0.482*[#  5]+0.011*[#  3]+0.011*[#  4]+0.011*[#  6]+
          +0.004*[#  1]+
    |psi|^2 = 1.000
     e =    14.08328340 eV
     psi = 0.486*[#  2]+0.486*[#  5]+0.009*[#  3]+0.009*[#  4]+0.009*[#  6]+
    |psi|^2 = 0.999
     e =    36.73763091 eV
     psi = 
    |psi|^2 = 0.001
     e =    40.05257204 eV
     psi = 
    |psi|^2 = 0.000

 k =  -0.1666666667  0.3333333333 -0.1666666667
     e =     7.89186196 eV
     psi = 0.954*[#  1]+0.012*[#  3]+0.012*[#  4]+0.012*[#  6]+0.004*[#  2]+
          +0.004*[#  5]+
    |psi|^2 = 0.998
     e =    12.19045881 eV
     psi = 0.325*[#  3]+0.325*[#  4]+0.325*[#  6]+0.021*[#  1]+
    |psi|^2 = 0.997
     e =    12.97005915 eV
     psi = 0.232*[#  3]+0.232*[#  4]+0.232*[#  6]+0.152*[#  2]+0.152*[#  5]+
          +0.002*[#  1]+
    |psi|^2 = 1.000
     e =    13.04191947 eV
     psi = 0.274*[#  3]+0.274*[#  4]+0.274*[#  6]+0.089*[#  2]+0.089*[#  5]+
    |psi|^2 = 1.000
     e =    13.84007243 eV
     psi = 0.343*[#  2]+0.343*[#  5]+0.097*[#  3]+0.097*[#  4]+0.097*[#  6]+
          +0.021*[#  1]+
    |psi|^2 = 0.999
     e =    14.20607326 eV
     psi = 0.410*[#  2]+0.410*[#  5]+0.060*[#  3]+0.060*[#  4]+0.060*[#  6]+
    |psi|^2 = 0.999
     e =    32.27498635 eV
     psi = 
    |psi|^2 = 0.003
     e =    39.33249416 eV
     psi = 
    |psi|^2 = 0.000

 k =  -0.2500000000  0.4166666667 -0.2500000000
     e =     9.16438196 eV
     psi = 0.770*[#  1]+0.069*[#  3]+0.069*[#  4]+0.069*[#  6]+0.009*[#  2]+
          +0.009*[#  5]+
    |psi|^2 = 0.997
     e =    12.27299457 eV
     psi = 0.273*[#  3]+0.273*[#  4]+0.273*[#  6]+0.139*[#  1]+0.015*[#  2]+
          +0.015*[#  5]+
    |psi|^2 = 0.988
     e =    12.81396816 eV
     psi = 0.259*[#  2]+0.259*[#  5]+0.161*[#  3]+0.161*[#  4]+0.161*[#  6]+
    |psi|^2 = 1.000
     e =    12.99653945 eV
     psi = 0.205*[#  3]+0.205*[#  4]+0.205*[#  6]+0.193*[#  2]+0.193*[#  5]+
    |psi|^2 = 1.000
     e =    14.30318547 eV
     psi = 0.216*[#  2]+0.216*[#  5]+0.161*[#  3]+0.161*[#  4]+0.161*[#  6]+
          +0.081*[#  1]+
    |psi|^2 = 0.996
     e =    14.45396466 eV
     psi = 0.307*[#  2]+0.307*[#  5]+0.129*[#  3]+0.129*[#  4]+0.129*[#  6]+
    |psi|^2 = 0.999
     e =    28.02047449 eV
     psi = 0.006*[#  1]+0.003*[#  3]+0.003*[#  4]+0.003*[#  6]+
    |psi|^2 = 0.015
     e =    38.56912998 eV
     psi = 
    |psi|^2 = 0.000

 k =  -0.3333333333  0.5000000000 -0.3333333333
     e =     9.97008575 eV
     psi = 0.380*[#  1]+0.201*[#  3]+0.201*[#  4]+0.201*[#  6]+0.007*[#  5]+
          +0.007*[#  2]+
    |psi|^2 = 0.996
     e =    12.63234030 eV
     psi = 0.339*[#  2]+0.339*[#  5]+0.101*[#  3]+0.101*[#  4]+0.101*[#  6]+
          +0.013*[#  1]+
    |psi|^2 = 0.993
     e =    12.88507711 eV
     psi = 0.258*[#  2]+0.258*[#  5]+0.161*[#  3]+0.161*[#  4]+0.161*[#  6]+
    |psi|^2 = 1.000
     e =    12.97870965 eV
     psi = 0.260*[#  1]+0.213*[#  3]+0.213*[#  4]+0.213*[#  6]+0.018*[#  2]+
          +0.018*[#  5]+
    |psi|^2 = 0.933
     e =    14.68922699 eV
     psi = 0.242*[#  2]+0.242*[#  5]+0.172*[#  3]+0.172*[#  4]+0.172*[#  6]+
    |psi|^2 = 0.999
     e =    15.07936608 eV
     psi = 0.248*[#  1]+0.139*[#  3]+0.139*[#  4]+0.139*[#  6]+0.137*[#  2]+
          +0.137*[#  5]+
    |psi|^2 = 0.939
     e =    24.30107704 eV
     psi = 0.086*[#  1]+0.013*[#  3]+0.013*[#  4]+0.013*[#  6]+
    |psi|^2 = 0.125
     e =    37.80749071 eV
     psi = 
    |psi|^2 = 0.000

 k =   0.5833333333 -0.4166666667  0.5833333333
     e =    10.18426566 eV
     psi = 0.273*[#  3]+0.273*[#  4]+0.273*[#  6]+0.177*[#  1]+
    |psi|^2 = 0.997
     e =    12.55758096 eV
     psi = 0.331*[#  2]+0.331*[#  5]+0.110*[#  3]+0.110*[#  4]+0.110*[#  6]+
    |psi|^2 = 0.993
     e =    12.80525956 eV
     psi = 0.288*[#  2]+0.288*[#  5]+0.141*[#  3]+0.141*[#  4]+0.141*[#  6]+
    |psi|^2 = 1.000
     e =    13.66040907 eV
     psi = 0.181*[#  3]+0.181*[#  4]+0.181*[#  6]+0.104*[#  2]+0.104*[#  5]+
          +0.037*[#  1]+
    |psi|^2 = 0.786
     e =    14.76090702 eV
     psi = 0.211*[#  2]+0.211*[#  5]+0.192*[#  3]+0.192*[#  4]+0.192*[#  6]+
    |psi|^2 = 0.999
     e =    16.11846275 eV
     psi = 0.097*[#  1]+0.064*[#  2]+0.064*[#  5]+0.054*[#  3]+0.054*[#  4]+
          +0.054*[#  6]+
    |psi|^2 = 0.388
     e =    21.80064247 eV
     psi = 0.653*[#  1]+0.048*[#  3]+0.048*[#  4]+0.048*[#  6]+
    |psi|^2 = 0.797
     e =    37.14623987 eV
     psi = 
    |psi|^2 = 0.001

 k =   0.5000000000 -0.3333333333  0.5000000000
     e =    10.15500261 eV
     psi = 0.260*[#  3]+0.260*[#  4]+0.260*[#  6]+0.216*[#  1]+
    |psi|^2 = 0.997
     e =    12.59140116 eV
     psi = 0.312*[#  2]+0.312*[#  5]+0.123*[#  3]+0.123*[#  4]+0.123*[#  6]+
          +0.002*[#  1]+
    |psi|^2 = 0.996
     e =    12.80741371 eV
     psi = 0.295*[#  2]+0.295*[#  5]+0.136*[#  3]+0.136*[#  4]+0.136*[#  6]+
    |psi|^2 = 1.000
     e =    13.56624097 eV
     psi = 0.165*[#  3]+0.165*[#  4]+0.165*[#  6]+0.127*[#  1]+0.098*[#  2]+
          +0.098*[#  5]+
    |psi|^2 = 0.818
     e =    14.60970604 eV
     psi = 0.204*[#  2]+0.204*[#  5]+0.197*[#  3]+0.197*[#  4]+0.197*[#  6]+
    |psi|^2 = 0.999
     e =    15.88098390 eV
     psi = 0.242*[#  1]+0.089*[#  2]+0.089*[#  5]+0.084*[#  3]+0.084*[#  4]+
          +0.084*[#  6]+
    |psi|^2 = 0.673
     e =    22.40672773 eV
     psi = 0.386*[#  1]+0.033*[#  3]+0.033*[#  4]+0.033*[#  6]+
    |psi|^2 = 0.487
     e =    36.69892897 eV
     psi = 0.002*[#  1]+
    |psi|^2 = 0.003

 k =   0.4166666667 -0.2500000000  0.4166666667
     e =     9.79283431 eV
     psi = 0.511*[#  1]+0.159*[#  3]+0.159*[#  4]+0.159*[#  6]+0.004*[#  2]+
          +0.004*[#  5]+
    |psi|^2 = 0.996
     e =    12.70969324 eV
     psi = 0.228*[#  3]+0.228*[#  4]+0.228*[#  6]+0.133*[#  2]+0.133*[#  5]+
          +0.044*[#  1]+
    |psi|^2 = 0.994
     e =    12.74472963 eV
     psi = 0.243*[#  1]+0.170*[#  2]+0.170*[#  5]+0.125*[#  3]+0.125*[#  4]+
          +0.125*[#  6]+
    |psi|^2 = 0.960
     e =    12.89617522 eV
     psi = 0.274*[#  2]+0.274*[#  5]+0.150*[#  3]+0.150*[#  4]+0.150*[#  6]+
    |psi|^2 = 1.000
     e =    14.28050340 eV
     psi = 0.226*[#  2]+0.226*[#  5]+0.183*[#  3]+0.183*[#  4]+0.183*[#  6]+
    |psi|^2 = 0.999
     e =    15.04612983 eV
     psi = 0.192*[#  2]+0.192*[#  5]+0.158*[#  1]+0.146*[#  3]+0.146*[#  4]+
          +0.146*[#  6]+
    |psi|^2 = 0.980
     e =    25.46654095 eV
     psi = 0.036*[#  1]+0.008*[#  3]+0.008*[#  4]+0.008*[#  6]+
    |psi|^2 = 0.060
     e =    36.58726338 eV
     psi = 
    |psi|^2 = 0.001

 k =   0.3333333333 -0.1666666667  0.3333333333
     e =     8.76171820 eV
     psi = 0.863*[#  1]+0.042*[#  3]+0.042*[#  4]+0.042*[#  6]+0.004*[#  2]+
          +0.004*[#  5]+
    |psi|^2 = 0.998
     e =    12.23099106 eV
     psi = 0.303*[#  3]+0.303*[#  4]+0.303*[#  6]+0.080*[#  1]+0.002*[#  5]+
          +0.002*[#  2]+
    |psi|^2 = 0.993
     e =    12.87475158 eV
     psi = 0.206*[#  2]+0.206*[#  5]+0.193*[#  3]+0.193*[#  4]+0.193*[#  6]+
          +0.008*[#  1]+
    |psi|^2 = 0.999
     e =    13.02002640 eV
     psi = 0.207*[#  3]+0.207*[#  4]+0.207*[#  6]+0.190*[#  2]+0.190*[#  5]+
    |psi|^2 = 1.000
     e =    13.90857427 eV
     psi = 0.310*[#  2]+0.310*[#  5]+0.127*[#  3]+0.127*[#  4]+0.127*[#  6]+
    |psi|^2 = 0.999
     e =    14.52745926 eV
     psi = 0.288*[#  2]+0.288*[#  5]+0.126*[#  3]+0.126*[#  4]+0.126*[#  6]+
          +0.044*[#  1]+
    |psi|^2 = 0.998
     e =    29.40110157 eV
     psi = 0.002*[#  1]+0.002*[#  3]+0.002*[#  4]+0.002*[#  6]+
    |psi|^2 = 0.008
     e =    36.86447831 eV
     psi = 
    |psi|^2 = 0.001

 k =   0.2500000000 -0.0833333333  0.2500000000
     e =     7.48359585 eV
     psi = 0.975*[#  1]+0.007*[#  3]+0.007*[#  4]+0.007*[#  6]+0.001*[#  2]+
          +0.001*[#  5]+
    |psi|^2 = 0.999
     e =    12.27529046 eV
     psi = 0.330*[#  3]+0.330*[#  4]+0.330*[#  6]+0.008*[#  1]+
    |psi|^2 = 0.998
     e =    12.94709233 eV
     psi = 0.267*[#  3]+0.267*[#  4]+0.267*[#  6]+0.096*[#  2]+0.096*[#  5]+
          +0.006*[#  1]+
    |psi|^2 = 1.000
     e =    13.01650851 eV
     psi = 0.310*[#  3]+0.310*[#  4]+0.310*[#  6]+0.035*[#  2]+0.035*[#  5]+
    |psi|^2 = 1.000
     e =    13.73063705 eV
     psi = 0.465*[#  2]+0.465*[#  5]+0.023*[#  3]+0.023*[#  4]+0.023*[#  6]+
    |psi|^2 = 1.000
     e =    14.18641646 eV
     psi = 0.402*[#  2]+0.402*[#  5]+0.062*[#  3]+0.062*[#  4]+0.062*[#  6]+
          +0.010*[#  1]+
    |psi|^2 = 0.999
     e =    33.76182516 eV
     psi = 
    |psi|^2 = 0.002
     e =    37.50382637 eV
     psi = 
    |psi|^2 = 0.000

 k =   0.1666666667  0.0000000000  0.1666666667
     e =     6.50765322 eV
     psi = 0.996*[#  1]+
    |psi|^2 = 0.999
     e =    12.47071273 eV
     psi = 0.333*[#  3]+0.333*[#  4]+0.333*[#  6]+
    |psi|^2 = 0.999
     e =    12.85035480 eV
     psi = 0.333*[#  3]+0.333*[#  4]+0.333*[#  6]+
    |psi|^2 = 1.000
     e =    12.86750889 eV
     psi = 0.320*[#  3]+0.320*[#  4]+0.320*[#  6]+0.019*[#  2]+0.019*[#  5]+
          +0.002*[#  1]+
    |psi|^2 = 1.000
     e =    13.82240240 eV
     psi = 0.500*[#  2]+0.500*[#  5]+
    |psi|^2 = 1.000
     e =    14.03140794 eV
     psi = 0.481*[#  2]+0.481*[#  5]+0.012*[#  3]+0.012*[#  4]+0.012*[#  6]+
          +0.001*[#  1]+
    |psi|^2 = 0.999
     e =    37.70403171 eV
     psi = 
    |psi|^2 = 0.001
     e =    39.03984275 eV
     psi = 
    |psi|^2 = 0.000

 k =   0.0000000000  0.3333333333  0.0000000000
     e =     7.23028458 eV
     psi = 0.984*[#  1]+0.007*[#  2]+0.007*[#  5]+
    |psi|^2 = 0.999
     e =    12.15139620 eV
     psi = 0.333*[#  3]+0.333*[#  4]+0.333*[#  6]+
    |psi|^2 = 0.999
     e =    13.13075733 eV
     psi = 0.333*[#  3]+0.333*[#  4]+0.333*[#  6]+
    |psi|^2 = 1.000
     e =    13.13075733 eV
     psi = 0.333*[#  3]+0.333*[#  4]+0.333*[#  6]+
    |psi|^2 = 1.000
     e =    13.52224790 eV
     psi = 0.493*[#  2]+0.493*[#  5]+0.014*[#  1]+
    |psi|^2 = 1.000
     e =    14.18084426 eV
     psi = 0.500*[#  2]+0.500*[#  5]+
    |psi|^2 = 0.999
     e =    38.29506089 eV
     psi = 
    |psi|^2 = 0.001
     e =    38.77324655 eV
     psi = 
    |psi|^2 = 0.000

 k =  -0.0833333333  0.4166666667 -0.0833333333
     e =     8.14330590 eV
     psi = 0.943*[#  1]+0.022*[#  2]+0.022*[#  5]+0.004*[#  3]+0.004*[#  4]+
          +0.004*[#  6]+
    |psi|^2 = 0.998
     e =    11.92250717 eV
     psi = 0.332*[#  3]+0.332*[#  4]+0.332*[#  6]+0.001*[#  1]+
    |psi|^2 = 0.998
     e =    13.09735175 eV
     psi = 0.248*[#  2]+0.248*[#  5]+0.166*[#  3]+0.166*[#  4]+0.166*[#  6]+
          +0.007*[#  1]+
    |psi|^2 = 1.000
     e =    13.31321410 eV
     psi = 0.307*[#  3]+0.307*[#  4]+0.307*[#  6]+0.039*[#  2]+0.039*[#  5]+
    |psi|^2 = 1.000
     e =    13.68128690 eV
     psi = 0.229*[#  2]+0.229*[#  5]+0.165*[#  3]+0.165*[#  4]+0.165*[#  6]+
          +0.046*[#  1]+
    |psi|^2 = 0.999
     e =    14.30104460 eV
     psi = 0.460*[#  2]+0.460*[#  5]+0.026*[#  3]+0.026*[#  4]+0.026*[#  6]+
    |psi|^2 = 0.999
     e =    34.27363782 eV
     psi = 
    |psi|^2 = 0.001
     e =    37.40128485 eV
     psi = 
    |psi|^2 = 0.000

 k =  -0.1666666667  0.5000000000 -0.1666666667
     e =     9.31556704 eV
     psi = 0.796*[#  1]+0.053*[#  2]+0.053*[#  5]+0.032*[#  3]+0.032*[#  4]+
          +0.032*[#  6]+
    |psi|^2 = 0.997
     e =    11.80131667 eV
     psi = 0.314*[#  3]+0.314*[#  4]+0.314*[#  6]+0.027*[#  1]+0.014*[#  2]+
          +0.014*[#  5]+
    |psi|^2 = 0.995
     e =    12.80521072 eV
     psi = 0.285*[#  2]+0.285*[#  5]+0.137*[#  3]+0.137*[#  4]+0.137*[#  6]+
          +0.019*[#  1]+
    |psi|^2 = 0.999
     e =    13.34415777 eV
     psi = 0.233*[#  3]+0.233*[#  4]+0.233*[#  6]+0.150*[#  2]+0.150*[#  5]+
    |psi|^2 = 1.000
     e =    14.37798194 eV
     psi = 0.182*[#  3]+0.182*[#  4]+0.182*[#  6]+0.151*[#  1]+0.149*[#  2]+
          +0.149*[#  5]+
    |psi|^2 = 0.995
     e =    14.52025913 eV
     psi = 0.349*[#  2]+0.349*[#  5]+0.100*[#  3]+0.100*[#  4]+0.100*[#  6]+
    |psi|^2 = 0.999
     e =    29.90519297 eV
     psi = 0.002*[#  1]+0.001*[#  3]+0.001*[#  4]+0.001*[#  6]+
    |psi|^2 = 0.007
     e =    36.59262215 eV
     psi = 
    |psi|^2 = 0.000

 k =  -0.2500000000  0.5833333333 -0.2500000000
     e =    10.24504926 eV
     psi = 0.439*[#  1]+0.143*[#  3]+0.143*[#  4]+0.143*[#  6]+0.063*[#  2]+
          +0.063*[#  5]+
    |psi|^2 = 0.994
     e =    11.98099166 eV
     psi = 0.184*[#  3]+0.184*[#  4]+0.184*[#  6]+0.169*[#  2]+0.169*[#  5]+
          +0.090*[#  1]+
    |psi|^2 = 0.979
     e =    12.60902394 eV
     psi = 0.202*[#  3]+0.202*[#  4]+0.202*[#  6]+0.167*[#  2]+0.167*[#  5]+
          +0.056*[#  1]+
    |psi|^2 = 0.997
     e =    13.25468800 eV
     psi = 0.240*[#  2]+0.240*[#  5]+0.173*[#  3]+0.173*[#  4]+0.173*[#  6]+
    |psi|^2 = 1.000
     e =    14.73320643 eV
     psi = 0.259*[#  2]+0.259*[#  5]+0.160*[#  3]+0.160*[#  4]+0.160*[#  6]+
    |psi|^2 = 0.999
     e =    15.52766580 eV
     psi = 0.363*[#  1]+0.132*[#  3]+0.132*[#  4]+0.132*[#  6]+0.099*[#  2]+
          +0.099*[#  5]+
    |psi|^2 = 0.956
     e =    25.92670601 eV
     psi = 0.038*[#  1]+0.006*[#  3]+0.006*[#  4]+0.006*[#  6]+
    |psi|^2 = 0.057
     e =    35.44833854 eV
     psi = 0.002*[#  1]+
    |psi|^2 = 0.003

 k =   0.6666666667 -0.3333333333  0.6666666667
     e =    10.57522883 eV
     psi = 0.260*[#  3]+0.260*[#  4]+0.260*[#  6]+0.175*[#  1]+0.021*[#  2]+
          +0.021*[#  5]+
    |psi|^2 = 0.996
     e =    12.16010150 eV
     psi = 0.431*[#  2]+0.431*[#  5]+0.032*[#  3]+0.032*[#  4]+0.032*[#  6]+
          +0.009*[#  1]+
    |psi|^2 = 0.968
     e =    12.80947534 eV
     psi = 0.291*[#  3]+0.291*[#  4]+0.291*[#  6]+0.065*[#  1]+0.002*[#  5]+
          +0.002*[#  2]+
    |psi|^2 = 0.942
     e =    13.15194058 eV
     psi = 0.293*[#  2]+0.293*[#  5]+0.138*[#  3]+0.138*[#  4]+0.138*[#  6]+
    |psi|^2 = 1.000
     e =    14.78104704 eV
     psi = 0.207*[#  2]+0.207*[#  5]+0.195*[#  3]+0.195*[#  4]+0.195*[#  6]+
    |psi|^2 = 0.999
     e =    17.16475952 eV
     psi = 0.320*[#  1]+0.055*[#  3]+0.055*[#  4]+0.055*[#  6]+0.046*[#  2]+
          +0.046*[#  5]+
    |psi|^2 = 0.579
     e =    22.69828634 eV
     psi = 0.388*[#  1]+0.027*[#  3]+0.027*[#  4]+0.027*[#  6]+
    |psi|^2 = 0.468
     e =    34.04244285 eV
     psi = 0.012*[#  1]+
    |psi|^2 = 0.013

 k =   0.5833333333 -0.2500000000  0.5833333333
     e =    10.63447365 eV
     psi = 0.283*[#  3]+0.283*[#  4]+0.283*[#  6]+0.148*[#  1]+
    |psi|^2 = 0.996
     e =    12.22184906 eV
     psi = 0.421*[#  2]+0.421*[#  5]+0.044*[#  3]+0.044*[#  4]+0.044*[#  6]+
          +0.004*[#  1]+
    |psi|^2 = 0.978
     e =    12.91901144 eV
     psi = 0.268*[#  3]+0.268*[#  4]+0.268*[#  6]+0.044*[#  2]+0.044*[#  5]+
          +0.010*[#  1]+
    |psi|^2 = 0.902
     e =    13.10542387 eV
     psi = 0.322*[#  2]+0.322*[#  5]+0.119*[#  3]+0.119*[#  4]+0.119*[#  6]+
    |psi|^2 = 1.000
     e =    14.60023296 eV
     psi = 0.214*[#  3]+0.214*[#  4]+0.214*[#  6]+0.178*[#  2]+0.178*[#  5]+
    |psi|^2 = 0.999
     e =    17.70887501 eV
     psi = 0.147*[#  1]+0.034*[#  2]+0.034*[#  5]+0.032*[#  3]+0.032*[#  4]+
          +0.032*[#  6]+
    |psi|^2 = 0.312
     e =    22.02219432 eV
     psi = 0.634*[#  1]+0.039*[#  3]+0.039*[#  4]+0.039*[#  6]+
    |psi|^2 = 0.751
     e =    33.01962486 eV
     psi = 0.021*[#  1]+
    |psi|^2 = 0.022

 k =   0.5000000000 -0.1666666667  0.5000000000
     e =    10.48973406 eV
     psi = 0.338*[#  1]+0.212*[#  3]+0.212*[#  4]+0.212*[#  6]+0.010*[#  2]+
          +0.010*[#  5]+
    |psi|^2 = 0.993
     e =    12.39471980 eV
     psi = 0.386*[#  2]+0.386*[#  5]+0.062*[#  3]+0.062*[#  4]+0.062*[#  6]+
          +0.028*[#  1]+
    |psi|^2 = 0.987
     e =    12.48159062 eV
     psi = 0.278*[#  3]+0.278*[#  4]+0.278*[#  6]+0.111*[#  1]+0.011*[#  5]+
          +0.011*[#  2]+
    |psi|^2 = 0.966
     e =    13.14615056 eV
     psi = 0.334*[#  2]+0.334*[#  5]+0.111*[#  3]+0.111*[#  4]+0.111*[#  6]+
    |psi|^2 = 1.000
     e =    14.23167868 eV
     psi = 0.222*[#  3]+0.222*[#  4]+0.222*[#  6]+0.166*[#  2]+0.166*[#  5]+
    |psi|^2 = 0.999
     e =    16.35165304 eV
     psi = 0.414*[#  1]+0.104*[#  3]+0.104*[#  4]+0.104*[#  6]+0.093*[#  2]+
          +0.093*[#  5]+
    |psi|^2 = 0.911
     e =    24.78256793 eV
     psi = 0.085*[#  1]+0.010*[#  3]+0.010*[#  4]+0.010*[#  6]+
    |psi|^2 = 0.115
     e =    32.49372152 eV
     psi = 0.010*[#  1]+
    |psi|^2 = 0.012

 k =   0.4166666667 -0.0833333333  0.4166666667
     e =     9.75543653 eV
     psi = 0.734*[#  1]+0.076*[#  3]+0.076*[#  4]+0.076*[#  6]+0.017*[#  2]+
          +0.017*[#  5]+
    |psi|^2 = 0.995
     e =    12.04142029 eV
     psi = 0.314*[#  3]+0.314*[#  4]+0.314*[#  6]+0.040*[#  1]+0.005*[#  5]+
          +0.005*[#  2]+
    |psi|^2 = 0.993
     e =    12.64802067 eV
     psi = 0.293*[#  2]+0.293*[#  5]+0.132*[#  3]+0.132*[#  4]+0.132*[#  6]+
          +0.015*[#  1]+
    |psi|^2 = 0.997
     e =    13.27029920 eV
     psi = 0.306*[#  2]+0.306*[#  5]+0.130*[#  3]+0.130*[#  4]+0.130*[#  6]+
    |psi|^2 = 1.000
     e =    13.78389842 eV
     psi = 0.204*[#  3]+0.204*[#  4]+0.204*[#  6]+0.194*[#  2]+0.194*[#  5]+
    |psi|^2 = 1.000
     e =    15.31090854 eV
     psi = 0.196*[#  1]+0.185*[#  2]+0.185*[#  5]+0.141*[#  3]+0.141*[#  4]+
          +0.141*[#  6]+
    |psi|^2 = 0.991
     e =    28.57087526 eV
     psi = 0.006*[#  1]+0.002*[#  3]+0.002*[#  4]+0.002*[#  6]+
    |psi|^2 = 0.014
     e =    32.49122294 eV
     psi = 0.003*[#  1]+
    |psi|^2 = 0.005

 k =   0.3333333333  0.0000000000  0.3333333333
     e =     8.53963011 eV
     psi = 0.924*[#  1]+0.020*[#  3]+0.020*[#  4]+0.020*[#  6]+0.007*[#  2]+
          +0.007*[#  5]+
    |psi|^2 = 0.998
     e =    12.07220285 eV
     psi = 0.332*[#  3]+0.332*[#  4]+0.332*[#  6]+
    |psi|^2 = 0.997
     e =    12.87063438 eV
     psi = 0.205*[#  2]+0.205*[#  5]+0.192*[#  3]+0.192*[#  4]+0.192*[#  6]+
          +0.013*[#  1]+
    |psi|^2 = 0.999
     e =    13.29192815 eV
     psi = 0.333*[#  3]+0.333*[#  4]+0.333*[#  6]+
    |psi|^2 = 1.000
     e =    13.53486136 eV
     psi = 0.500*[#  2]+0.500*[#  5]+
    |psi|^2 = 1.000
     e =    14.63111632 eV
     psi = 0.287*[#  2]+0.287*[#  5]+0.121*[#  3]+0.121*[#  4]+0.121*[#  6]+
          +0.060*[#  1]+
    |psi|^2 = 0.998
     e =    32.52401347 eV
     psi = 
    |psi|^2 = 0.003
     e =    33.28978180 eV
     psi = 
    |psi|^2 = 0.002

 k =   0.0000000000  0.5000000000  0.0000000000
     e =     8.78560630 eV
     psi = 0.865*[#  1]+0.066*[#  2]+0.066*[#  5]+
    |psi|^2 = 0.997
     e =    11.64347826 eV
     psi = 0.333*[#  3]+0.333*[#  4]+0.333*[#  6]+
    |psi|^2 = 0.998
     e =    13.30763921 eV
     psi = 0.433*[#  2]+0.433*[#  5]+0.131*[#  1]+
    |psi|^2 = 0.998
     e =    13.63715795 eV
     psi = 0.333*[#  3]+0.333*[#  4]+0.333*[#  6]+
    |psi|^2 = 0.999
     e =    13.63715795 eV
     psi = 0.333*[#  3]+0.333*[#  4]+0.333*[#  6]+
    |psi|^2 = 0.999
     e =    14.38058555 eV
     psi = 0.499*[#  2]+0.499*[#  5]+
    |psi|^2 = 0.999
     e =    35.69272114 eV
     psi = 
    |psi|^2 = 0.000
     e =    35.69272114 eV
     psi = 
    |psi|^2 = 0.000

 k =  -0.0833333333  0.5833333333 -0.0833333333
     e =     9.63841059 eV
     psi = 0.673*[#  1]+0.152*[#  2]+0.152*[#  5]+0.006*[#  3]+0.006*[#  4]+
          +0.006*[#  6]+
    |psi|^2 = 0.996
     e =    11.43173696 eV
     psi = 0.331*[#  3]+0.331*[#  4]+0.331*[#  6]+0.002*[#  2]+0.002*[#  5]+
          +0.001*[#  1]+
    |psi|^2 = 0.997
     e =    13.13962264 eV
     psi = 0.249*[#  2]+0.249*[#  5]+0.149*[#  1]+0.117*[#  3]+0.117*[#  4]+
          +0.117*[#  6]+
    |psi|^2 = 0.997
     e =    13.80676631 eV
     psi = 0.275*[#  3]+0.275*[#  4]+0.275*[#  6]+0.087*[#  2]+0.087*[#  5]+
    |psi|^2 = 0.999
     e =    14.35191318 eV
     psi = 0.211*[#  3]+0.211*[#  4]+0.211*[#  6]+0.170*[#  1]+0.096*[#  2]+
          +0.096*[#  5]+
    |psi|^2 = 0.995
     e =    14.55068519 eV
     psi = 0.413*[#  2]+0.413*[#  5]+0.058*[#  3]+0.058*[#  4]+0.058*[#  6]+
    |psi|^2 = 0.999
     e =    32.02966629 eV
     psi = 
    |psi|^2 = 0.003
     e =    34.51577640 eV
     psi = 
    |psi|^2 = 0.002

 k =  -0.1666666667  0.6666666667 -0.1666666667
     e =    10.39939006 eV
     psi = 0.373*[#  1]+0.240*[#  2]+0.240*[#  5]+0.047*[#  3]+0.047*[#  4]+
          +0.047*[#  6]+
    |psi|^2 = 0.993
     e =    11.38526545 eV
     psi = 0.295*[#  3]+0.295*[#  4]+0.295*[#  6]+0.048*[#  2]+0.048*[#  5]+
          +0.013*[#  1]+
    |psi|^2 = 0.993
     e =    12.90265560 eV
     psi = 0.198*[#  3]+0.198*[#  4]+0.198*[#  6]+0.138*[#  1]+0.132*[#  2]+
          +0.132*[#  5]+
    |psi|^2 = 0.995
     e =    13.76914298 eV
     psi = 0.219*[#  2]+0.219*[#  5]+0.187*[#  3]+0.187*[#  4]+0.187*[#  6]+
    |psi|^2 = 0.999
     e =    14.76140288 eV
     psi = 0.280*[#  2]+0.280*[#  5]+0.146*[#  3]+0.146*[#  4]+0.146*[#  6]+
    |psi|^2 = 0.999
     e =    15.74994943 eV
     psi = 0.437*[#  1]+0.124*[#  3]+0.124*[#  4]+0.124*[#  6]+0.078*[#  2]+
          +0.078*[#  5]+
    |psi|^2 = 0.967
     e =    27.99634408 eV
     psi = 0.016*[#  1]+0.002*[#  3]+0.002*[#  4]+0.002*[#  6]+
    |psi|^2 = 0.023
     e =    32.48724892 eV
     psi = 0.008*[#  1]+0.002*[#  2]+0.002*[#  5]+
    |psi|^2 = 0.012

 k =   0.7500000000 -0.2500000000  0.7500000000
     e =    10.83159973 eV
     psi = 0.172*[#  2]+0.172*[#  5]+0.171*[#  3]+0.171*[#  4]+0.171*[#  6]+
          +0.138*[#  1]+
    |psi|^2 = 0.993
     e =    11.53350921 eV
     psi = 0.254*[#  2]+0.254*[#  5]+0.152*[#  3]+0.152*[#  4]+0.152*[#  6]+
          +0.011*[#  1]+
    |psi|^2 = 0.977
     e =    12.74489052 eV
     psi = 0.276*[#  3]+0.276*[#  4]+0.276*[#  6]+0.088*[#  1]+0.034*[#  2]+
          +0.034*[#  5]+
    |psi|^2 = 0.984
     e =    13.65993778 eV
     psi = 0.302*[#  2]+0.302*[#  5]+0.132*[#  3]+0.132*[#  4]+0.132*[#  6]+
    |psi|^2 = 0.999
     e =    14.80953721 eV
     psi = 0.201*[#  3]+0.201*[#  4]+0.201*[#  6]+0.198*[#  2]+0.198*[#  5]+
    |psi|^2 = 0.998
     e =    17.79366004 eV
     psi = 0.503*[#  1]+0.057*[#  3]+0.057*[#  4]+0.057*[#  6]+0.037*[#  2]+
          +0.037*[#  5]+
    |psi|^2 = 0.748
     e =    24.36394641 eV
     psi = 0.181*[#  1]+0.010*[#  3]+0.010*[#  4]+0.010*[#  6]+
    |psi|^2 = 0.210
     e =    30.78248554 eV
     psi = 0.043*[#  1]+0.002*[#  2]+0.002*[#  5]+
    |psi|^2 = 0.049

 k =   0.6666666667 -0.1666666667  0.6666666667
     e =    11.06743216 eV
     psi = 0.278*[#  3]+0.278*[#  4]+0.278*[#  6]+0.081*[#  1]+0.041*[#  2]+
          +0.041*[#  5]+
    |psi|^2 = 0.996
     e =    11.70717693 eV
     psi = 0.443*[#  2]+0.443*[#  5]+0.026*[#  3]+0.026*[#  4]+0.026*[#  6]+
          +0.002*[#  1]+
    |psi|^2 = 0.967
     e =    12.61183773 eV
     psi = 0.319*[#  3]+0.319*[#  4]+0.319*[#  6]+0.008*[#  1]+
    |psi|^2 = 0.965
     e =    13.56326419 eV
     psi = 0.362*[#  2]+0.362*[#  5]+0.092*[#  3]+0.092*[#  4]+0.092*[#  6]+
    |psi|^2 = 0.999
     e =    14.62248631 eV
     psi = 0.241*[#  3]+0.241*[#  4]+0.241*[#  6]+0.138*[#  2]+0.138*[#  5]+
    |psi|^2 = 0.999
     e =    19.67560147 eV
     psi = 0.014*[#  2]+0.014*[#  5]+0.011*[#  3]+0.011*[#  4]+0.011*[#  6]+
          +0.003*[#  1]+
    |psi|^2 = 0.063
     e =    22.06016255 eV
     psi = 0.757*[#  1]+0.031*[#  3]+0.031*[#  4]+0.031*[#  6]+
    |psi|^2 = 0.851
     e =    29.51309829 eV
     psi = 0.100*[#  1]+0.002*[#  2]+0.002*[#  5]+
    |psi|^2 = 0.106

 k =   0.5833333333 -0.0833333333  0.5833333333
     e =    11.15890817 eV
     psi = 0.268*[#  3]+0.268*[#  4]+0.268*[#  6]+0.179*[#  1]+0.003*[#  2]+
          +0.003*[#  5]+
    |psi|^2 = 0.989
     e =    11.94149632 eV
     psi = 0.462*[#  2]+0.462*[#  5]+0.017*[#  1]+0.013*[#  3]+0.013*[#  4]+
          +0.013*[#  6]+
    |psi|^2 = 0.981
     e =    12.28419029 eV
     psi = 0.319*[#  3]+0.319*[#  4]+0.319*[#  6]+0.014*[#  1]+0.003*[#  5]+
          +0.003*[#  2]+
    |psi|^2 = 0.978
     e =    13.51525830 eV
     psi = 0.426*[#  2]+0.426*[#  5]+0.049*[#  3]+0.049*[#  4]+0.049*[#  6]+
    |psi|^2 = 1.000
     e =    14.25722170 eV
     psi = 0.284*[#  3]+0.284*[#  4]+0.284*[#  6]+0.074*[#  2]+0.074*[#  5]+
    |psi|^2 = 0.999
     e =    18.14364925 eV
     psi = 0.556*[#  1]+0.055*[#  3]+0.055*[#  4]+0.055*[#  6]+0.031*[#  2]+
          +0.031*[#  5]+
    |psi|^2 = 0.782
     e =    24.36212545 eV
     psi = 0.123*[#  1]+0.009*[#  3]+0.009*[#  4]+0.009*[#  6]+
    |psi|^2 = 0.150
     e =    28.78306710 eV
     psi = 0.082*[#  1]+0.002*[#  3]+0.002*[#  4]+0.002*[#  6]+
    |psi|^2 = 0.089

 k =   0.5000000000  0.0000000000  0.5000000000
     e =    10.75797513 eV
     psi = 0.491*[#  1]+0.145*[#  3]+0.145*[#  4]+0.145*[#  6]+0.030*[#  2]+
          +0.030*[#  5]+
    |psi|^2 = 0.987
     e =    11.96824837 eV
     psi = 0.331*[#  3]+0.331*[#  4]+0.331*[#  6]+
    |psi|^2 = 0.992
     e =    12.29415360 eV
     psi = 0.375*[#  2]+0.375*[#  5]+0.075*[#  3]+0.075*[#  4]+0.075*[#  6]+
          +0.017*[#  1]+
    |psi|^2 = 0.993
     e =    13.48726409 eV
     psi = 0.500*[#  2]+0.500*[#  5]+
    |psi|^2 = 1.000
     e =    13.87084805 eV
     psi = 0.333*[#  3]+0.333*[#  4]+0.333*[#  6]+
    |psi|^2 = 0.999
     e =    16.46707556 eV
     psi = 0.440*[#  1]+0.111*[#  3]+0.111*[#  4]+0.111*[#  6]+0.094*[#  2]+
          +0.094*[#  5]+
    |psi|^2 = 0.960
     e =    27.58626873 eV
     psi = 0.003*[#  3]+0.003*[#  4]+0.003*[#  6]+
    |psi|^2 = 0.008
     e =    29.02560843 eV
     psi = 0.040*[#  1]+0.002*[#  3]+0.002*[#  4]+0.002*[#  6]+
    |psi|^2 = 0.047

 k =   0.0000000000  0.6666666667  0.0000000000
     e =     9.97529696 eV
     psi = 0.434*[#  1]+0.281*[#  2]+0.281*[#  5]+
    |psi|^2 = 0.996
     e =    11.15774216 eV
     psi = 0.332*[#  3]+0.332*[#  4]+0.332*[#  6]+
    |psi|^2 = 0.997
     e =    14.07802831 eV
     psi = 0.549*[#  1]+0.217*[#  2]+0.217*[#  5]+
    |psi|^2 = 0.982
     e =    14.22318510 eV
     psi = 0.333*[#  3]+0.333*[#  4]+0.333*[#  6]+
    |psi|^2 = 0.999
     e =    14.22318510 eV
     psi = 0.333*[#  3]+0.333*[#  4]+0.333*[#  6]+
    |psi|^2 = 0.999
     e =    14.58376526 eV
     psi = 0.499*[#  2]+0.499*[#  5]+
    |psi|^2 = 0.999
     e =    31.89222320 eV
     psi = 0.004*[#  1]+0.002*[#  2]+0.002*[#  5]+
    |psi|^2 = 0.009
     e =    33.17761242 eV
     psi = 
    |psi|^2 = 0.000

 k =  -0.0833333333  0.7500000000 -0.0833333333
     e =    10.28468218 eV
     psi = 0.380*[#  2]+0.380*[#  5]+0.226*[#  1]+0.003*[#  3]+0.003*[#  4]+
          +0.003*[#  6]+
    |psi|^2 = 0.995
     e =    11.02178348 eV
     psi = 0.330*[#  3]+0.330*[#  4]+0.330*[#  6]+0.002*[#  2]+0.002*[#  5]+
    |psi|^2 = 0.996
     e =    13.87094990 eV
     psi = 0.244*[#  3]+0.244*[#  4]+0.244*[#  6]+0.167*[#  1]+0.044*[#  2]+
          +0.044*[#  5]+
    |psi|^2 = 0.986
     e =    14.31122520 eV
     psi = 0.207*[#  3]+0.207*[#  4]+0.207*[#  6]+0.189*[#  2]+0.189*[#  5]+
    |psi|^2 = 0.999
     e =    14.76290925 eV
     psi = 0.311*[#  2]+0.311*[#  5]+0.126*[#  3]+0.126*[#  4]+0.126*[#  6]+
    |psi|^2 = 0.999
     e =    15.79544094 eV
     psi = 0.546*[#  1]+0.087*[#  3]+0.087*[#  4]+0.087*[#  6]+0.069*[#  2]+
          +0.069*[#  5]+
    |psi|^2 = 0.946
     e =    29.61333885 eV
     psi = 0.015*[#  1]+0.004*[#  2]+0.004*[#  5]+
    |psi|^2 = 0.023
     e =    30.45221840 eV
     psi = 0.020*[#  1]+
    |psi|^2 = 0.024

 k =   0.8333333333 -0.1666666667  0.8333333333
     e =    10.59471632 eV
     psi = 0.407*[#  2]+0.407*[#  5]+0.097*[#  1]+0.027*[#  3]+0.027*[#  4]+
          +0.027*[#  6]+
    |psi|^2 = 0.993
     e =    11.06945229 eV
     psi = 0.305*[#  3]+0.305*[#  4]+0.305*[#  6]+0.038*[#  2]+0.038*[#  5]+
    |psi|^2 = 0.992
     e =    13.47715814 eV
     psi = 0.287*[#  3]+0.287*[#  4]+0.287*[#  6]+0.084*[#  1]+0.016*[#  2]+
          +0.016*[#  5]+
    |psi|^2 = 0.976
     e =    14.21619292 eV
     psi = 0.326*[#  2]+0.326*[#  5]+0.116*[#  3]+0.116*[#  4]+0.116*[#  6]+
    |psi|^2 = 0.999
     e =    14.84062072 eV
     psi = 0.217*[#  3]+0.217*[#  4]+0.217*[#  6]+0.173*[#  2]+0.173*[#  5]+
    |psi|^2 = 0.998
     e =    18.02413509 eV
     psi = 0.547*[#  1]+0.044*[#  3]+0.044*[#  4]+0.044*[#  6]+0.030*[#  2]+
          +0.030*[#  5]+
    |psi|^2 = 0.739
     e =    26.62488087 eV
     psi = 0.038*[#  1]+0.002*[#  3]+0.002*[#  4]+0.002*[#  6]+
    |psi|^2 = 0.046
     e =    28.05359554 eV
     psi = 0.178*[#  1]+0.008*[#  2]+0.008*[#  5]+
    |psi|^2 = 0.196

 k =   0.7500000000 -0.0833333333  0.7500000000
     e =    10.93349327 eV
     psi = 0.330*[#  2]+0.330*[#  5]+0.099*[#  3]+0.099*[#  4]+0.099*[#  6]+
          +0.038*[#  1]+
    |psi|^2 = 0.994
     e =    11.27016222 eV
     psi = 0.226*[#  3]+0.226*[#  4]+0.226*[#  6]+0.151*[#  2]+0.151*[#  5]+
          +0.001*[#  1]+
    |psi|^2 = 0.981
     e =    13.00859619 eV
     psi = 0.317*[#  3]+0.317*[#  4]+0.317*[#  6]+0.015*[#  1]+0.002*[#  2]+
          +0.002*[#  5]+
    |psi|^2 = 0.970
     e =    14.07279457 eV
     psi = 0.430*[#  2]+0.430*[#  5]+0.046*[#  3]+0.046*[#  4]+0.046*[#  6]+
    |psi|^2 = 0.999
     e =    14.68178487 eV
     psi = 0.287*[#  3]+0.287*[#  4]+0.287*[#  6]+0.070*[#  2]+0.070*[#  5]+
    |psi|^2 = 0.999
     e =    20.63439933 eV
     psi = 0.143*[#  1]+0.015*[#  3]+0.015*[#  4]+0.015*[#  6]+0.007*[#  2]+
          +0.007*[#  5]+
    |psi|^2 = 0.201
     e =    23.36343117 eV
     psi = 0.311*[#  1]+0.009*[#  3]+0.009*[#  4]+0.009*[#  6]+
    |psi|^2 = 0.337
     e =    26.79737072 eV
     psi = 0.416*[#  1]+0.009*[#  2]+0.009*[#  5]+0.002*[#  3]+0.002*[#  4]+
          +0.002*[#  6]+
    |psi|^2 = 0.439

 k =   0.6666666667  0.0000000000  0.6666666667
     e =    11.27582700 eV
     psi = 0.252*[#  3]+0.252*[#  4]+0.252*[#  6]+0.097*[#  2]+0.097*[#  5]+
          +0.049*[#  1]+
    |psi|^2 = 0.997
     e =    11.53898315 eV
     psi = 0.393*[#  2]+0.393*[#  5]+0.056*[#  3]+0.056*[#  4]+0.056*[#  6]+
          +0.017*[#  1]+
    |psi|^2 = 0.971
     e =    12.50656261 eV
     psi = 0.326*[#  3]+0.326*[#  4]+0.326*[#  6]+
    |psi|^2 = 0.979
     e =    13.85982168 eV
     psi = 0.500*[#  2]+0.500*[#  5]+
    |psi|^2 = 0.999
     e =    14.41577153 eV
     psi = 0.333*[#  3]+0.333*[#  4]+0.333*[#  6]+
    |psi|^2 = 0.999
     e =    20.42399097 eV
     psi = 0.490*[#  1]+0.022*[#  3]+0.022*[#  4]+0.022*[#  6]+0.006*[#  2]+
          +0.006*[#  5]+
    |psi|^2 = 0.566
     e =    23.30512866 eV
     psi = 0.007*[#  3]+0.007*[#  4]+0.007*[#  6]+
    |psi|^2 = 0.020
     e =    26.58270292 eV
     psi = 0.390*[#  1]+0.005*[#  2]+0.005*[#  5]+0.004*[#  3]+0.004*[#  4]+
          +0.004*[#  6]+
    |psi|^2 = 0.410

 k =   0.0000000000  0.8333333333  0.0000000000
     e =    10.20111978 eV
     psi = 0.433*[#  2]+0.433*[#  5]+0.130*[#  1]+
    |psi|^2 = 0.996
     e =    10.81553746 eV
     psi = 0.332*[#  3]+0.332*[#  4]+0.332*[#  6]+
    |psi|^2 = 0.996
     e =    14.71998954 eV
     psi = 0.333*[#  3]+0.333*[#  4]+0.333*[#  6]+
    |psi|^2 = 0.999
     e =    14.71998954 eV
     psi = 0.333*[#  3]+0.333*[#  4]+0.333*[#  6]+
    |psi|^2 = 0.999
     e =    14.73476471 eV
     psi = 0.499*[#  2]+0.499*[#  5]+
    |psi|^2 = 0.999
     e =    16.27710966 eV
     psi = 0.690*[#  1]+0.055*[#  2]+0.055*[#  5]+
    |psi|^2 = 0.801
     e =    27.51879526 eV
     psi = 0.121*[#  1]+0.011*[#  2]+0.011*[#  5]+
    |psi|^2 = 0.143
     e =    31.49426927 eV
     psi = 
    |psi|^2 = 0.000

 k =   0.9166666667 -0.0833333333  0.9166666667
     e =    10.28800120 eV
     psi = 0.459*[#  2]+0.459*[#  5]+0.074*[#  1]+0.001*[#  3]+0.001*[#  4]+
          +0.001*[#  6]+
    |psi|^2 = 0.995
     e =    10.79181254 eV
     psi = 0.331*[#  3]+0.331*[#  4]+0.331*[#  6]+0.001*[#  2]+0.001*[#  5]+
    |psi|^2 = 0.995
     e =    14.43773513 eV
     psi = 0.314*[#  3]+0.314*[#  4]+0.314*[#  6]+0.022*[#  1]+0.002*[#  2]+
          +0.002*[#  5]+
    |psi|^2 = 0.968
     e =    14.65250630 eV
     psi = 0.415*[#  2]+0.415*[#  5]+0.056*[#  3]+0.056*[#  4]+0.056*[#  6]+
    |psi|^2 = 0.999
     e =    14.87528172 eV
     psi = 0.277*[#  3]+0.277*[#  4]+0.277*[#  6]+0.084*[#  2]+0.084*[#  5]+
    |psi|^2 = 0.998
     e =    17.97485581 eV
     psi = 0.331*[#  1]+0.019*[#  3]+0.019*[#  4]+0.019*[#  6]+0.015*[#  2]+
          +0.015*[#  5]+
    |psi|^2 = 0.417
     e =    25.97675644 eV
     psi = 0.413*[#  1]+0.022*[#  2]+0.022*[#  5]+
    |psi|^2 = 0.456
     e =    29.34793604 eV
     psi = 0.054*[#  1]+
    |psi|^2 = 0.057

 k =   0.8333333333  0.0000000000  0.8333333333
     e =    10.55296651 eV
     psi = 0.453*[#  2]+0.453*[#  5]+0.044*[#  1]+0.014*[#  3]+0.014*[#  4]+
          +0.014*[#  6]+
    |psi|^2 = 0.993
     e =    10.95893899 eV
     psi = 0.316*[#  3]+0.316*[#  4]+0.316*[#  6]+0.022*[#  2]+0.022*[#  5]+
    |psi|^2 = 0.992
     e =    13.75608257 eV
     psi = 0.318*[#  3]+0.318*[#  4]+0.318*[#  6]+
    |psi|^2 = 0.954
     e =    14.46967457 eV
     psi = 0.499*[#  2]+0.499*[#  5]+
    |psi|^2 = 0.999
     e =    14.78937106 eV
     psi = 0.333*[#  3]+0.333*[#  4]+0.333*[#  6]+
    |psi|^2 = 0.998
     e =    19.79038024 eV
     psi = 0.015*[#  3]+0.015*[#  4]+0.015*[#  6]+
    |psi|^2 = 0.045
     e =    25.28033835 eV
     psi = 0.322*[#  1]+0.018*[#  2]+0.018*[#  5]+
    |psi|^2 = 0.358
     e =    26.42973397 eV
     psi = 0.520*[#  1]+0.006*[#  2]+0.006*[#  5]+0.002*[#  3]+0.002*[#  4]+
          +0.002*[#  6]+
    |psi|^2 = 0.539

 k =   0.0000000000 -1.0000000000  0.0000000000
     e =    10.17295558 eV
     psi = 0.464*[#  2]+0.464*[#  5]+0.067*[#  1]+
    |psi|^2 = 0.996
     e =    10.69316183 eV
     psi = 0.332*[#  3]+0.332*[#  4]+0.332*[#  6]+
    |psi|^2 = 0.996
     e =    14.79052316 eV
     psi = 0.499*[#  2]+0.499*[#  5]+
    |psi|^2 = 0.999
     e =    14.92022920 eV
     psi = 0.333*[#  3]+0.333*[#  4]+0.333*[#  6]+
    |psi|^2 = 0.998
     e =    14.92022920 eV
     psi = 0.333*[#  3]+0.333*[#  4]+0.333*[#  6]+
    |psi|^2 = 0.998
     e =    17.87165801 eV
     psi = 
    |psi|^2 = 0.000
     e =    25.26664094 eV
     psi = 0.768*[#  1]+0.034*[#  2]+0.034*[#  5]+
    |psi|^2 = 0.837
     e =    30.89339904 eV
     psi = 
    |psi|^2 = 0.000

 k =  -0.1666666667  0.3333333333  0.0000000000
     e =     7.57450707 eV
     psi = 0.974*[#  1]+0.006*[#  2]+0.006*[#  5]+0.004*[#  3]+0.004*[#  4]+
          +0.004*[#  6]+
    |psi|^2 = 0.998
     e =    12.15365557 eV
     psi = 0.333*[#  3]+0.333*[#  4]+0.333*[#  6]+
    |psi|^2 = 0.999
     e =    13.00481942 eV
     psi = 0.252*[#  3]+0.252*[#  4]+0.252*[#  6]+0.121*[#  2]+0.121*[#  5]+
          +0.002*[#  1]+
    |psi|^2 = 1.000
     e =    13.14447733 eV
     psi = 0.333*[#  3]+0.333*[#  4]+0.333*[#  6]+
    |psi|^2 = 1.000
     e =    13.63318937 eV
     psi = 0.443*[#  2]+0.443*[#  5]+0.033*[#  3]+0.033*[#  4]+0.033*[#  6]+
          +0.015*[#  1]+
    |psi|^2 = 1.000
     e =    14.23394352 eV
     psi = 0.429*[#  2]+0.429*[#  5]+0.045*[#  3]+0.045*[#  4]+0.045*[#  6]+
          +0.007*[#  1]+
    |psi|^2 = 0.999
     e =    35.32675424 eV
     psi = 
    |psi|^2 = 0.001
     e =    36.09394501 eV
     psi = 
    |psi|^2 = 0.000

 k =  -0.2500000000  0.4166666667 -0.0833333333
     e =     8.74458790 eV
     psi = 0.895*[#  1]+0.023*[#  3]+0.023*[#  4]+0.023*[#  6]+0.017*[#  2]+
          +0.017*[#  5]+
    |psi|^2 = 0.998
     e =    11.99136579 eV
     psi = 0.326*[#  3]+0.326*[#  4]+0.326*[#  6]+0.015*[#  1]+0.002*[#  2]+
          +0.002*[#  5]+
    |psi|^2 = 0.997
     e =    12.84969876 eV
     psi = 0.252*[#  2]+0.252*[#  5]+0.165*[#  3]+0.165*[#  4]+0.165*[#  6]+
    |psi|^2 = 0.999
     e =    13.26885729 eV
     psi = 0.252*[#  3]+0.252*[#  4]+0.252*[#  6]+0.121*[#  2]+0.121*[#  5]+
          +0.003*[#  1]+
    |psi|^2 = 1.000
     e =    13.80001822 eV
     psi = 0.313*[#  2]+0.313*[#  5]+0.114*[#  3]+0.114*[#  4]+0.114*[#  6]+
          +0.030*[#  1]+
    |psi|^2 = 0.999
     e =    14.59275743 eV
     psi = 0.295*[#  2]+0.295*[#  5]+0.119*[#  3]+0.119*[#  4]+0.119*[#  6]+
          +0.053*[#  1]+
    |psi|^2 = 0.998
     e =    31.17855166 eV
     psi = 0.001*[#  3]+0.001*[#  4]+0.001*[#  6]+
    |psi|^2 = 0.004
     e =    34.97263416 eV
     psi = 
    |psi|^2 = 0.001

 k =  -0.3333333333  0.5000000000 -0.1666666667
     e =     9.88759087 eV
     psi = 0.616*[#  1]+0.107*[#  3]+0.107*[#  4]+0.107*[#  6]+0.028*[#  2]+
          +0.028*[#  5]+
    |psi|^2 = 0.995
     e =    12.12514000 eV
     psi = 0.256*[#  3]+0.256*[#  4]+0.256*[#  6]+0.115*[#  1]+0.050*[#  2]+
          +0.050*[#  5]+
    |psi|^2 = 0.984
     e =    12.61183065 eV
     psi = 0.275*[#  2]+0.275*[#  5]+0.149*[#  3]+0.149*[#  4]+0.149*[#  6]+
    |psi|^2 = 0.999
     e =    13.18230520 eV
     psi = 0.245*[#  2]+0.245*[#  5]+0.168*[#  3]+0.168*[#  4]+0.168*[#  6]+
          +0.007*[#  1]+
    |psi|^2 = 0.999
     e =    14.24130515 eV
     psi = 0.229*[#  2]+0.229*[#  5]+0.171*[#  3]+0.171*[#  4]+0.171*[#  6]+
          +0.026*[#  1]+
    |psi|^2 = 0.997
     e =    15.23524868 eV
     psi = 0.211*[#  1]+0.172*[#  2]+0.172*[#  5]+0.144*[#  3]+0.144*[#  4]+
          +0.144*[#  6]+
    |psi|^2 = 0.985
     e =    27.05205658 eV
     psi = 0.016*[#  1]+0.004*[#  3]+0.004*[#  4]+0.004*[#  6]+
    |psi|^2 = 0.028
     e =    34.60811463 eV
     psi = 0.001*[#  1]+
    |psi|^2 = 0.002

 k =   0.5833333333 -0.4166666667  0.7500000000
     e =    10.41020642 eV
     psi = 0.253*[#  1]+0.239*[#  3]+0.239*[#  4]+0.239*[#  6]+0.012*[#  2]+
          +0.012*[#  5]+
    |psi|^2 = 0.995
     e =    12.36436680 eV
     psi = 0.403*[#  2]+0.403*[#  5]+0.052*[#  3]+0.052*[#  4]+0.052*[#  6]+
          +0.018*[#  1]+
    |psi|^2 = 0.981
     e =    12.76820302 eV
     psi = 0.264*[#  3]+0.264*[#  4]+0.264*[#  6]+0.105*[#  1]+0.025*[#  2]+
          +0.025*[#  5]+
    |psi|^2 = 0.946
     e =    13.07884424 eV
     psi = 0.279*[#  2]+0.279*[#  5]+0.141*[#  3]+0.141*[#  4]+0.141*[#  6]+
          +0.012*[#  1]+
    |psi|^2 = 0.995
     e =    14.58938004 eV
     psi = 0.203*[#  2]+0.203*[#  5]+0.196*[#  3]+0.196*[#  4]+0.196*[#  6]+
          +0.003*[#  1]+
    |psi|^2 = 0.996
     e =    16.38250294 eV
     psi = 0.390*[#  1]+0.089*[#  3]+0.089*[#  4]+0.089*[#  6]+0.077*[#  2]+
          +0.077*[#  5]+
    |psi|^2 = 0.810
     e =    23.52761501 eV
     psi = 0.191*[#  1]+0.018*[#  3]+0.018*[#  4]+0.018*[#  6]+
    |psi|^2 = 0.245
     e =    34.68949107 eV
     psi = 0.003*[#  1]+
    |psi|^2 = 0.004

 k =   0.5000000000 -0.3333333333  0.6666666667
     e =    10.50145866 eV
     psi = 0.283*[#  3]+0.283*[#  4]+0.283*[#  6]+0.146*[#  1]+
    |psi|^2 = 0.997
     e =    12.30420866 eV
     psi = 0.401*[#  2]+0.401*[#  5]+0.059*[#  3]+0.059*[#  4]+0.059*[#  6]+
    |psi|^2 = 0.980
     e =    13.01632713 eV
     psi = 0.308*[#  2]+0.308*[#  5]+0.128*[#  3]+0.128*[#  4]+0.128*[#  6]+
    |psi|^2 = 1.000
     e =    13.10475830 eV
     psi = 0.249*[#  3]+0.249*[#  4]+0.249*[#  6]+0.061*[#  2]+0.061*[#  5]+
    |psi|^2 = 0.867
     e =    14.70074392 eV
     psi = 0.206*[#  3]+0.206*[#  4]+0.206*[#  6]+0.191*[#  2]+0.191*[#  5]+
    |psi|^2 = 0.999
     e =    17.41752652 eV
     psi = 0.037*[#  2]+0.037*[#  5]+0.026*[#  3]+0.026*[#  4]+0.026*[#  6]+
    |psi|^2 = 0.151
     e =    21.68327008 eV
     psi = 0.801*[#  1]+0.049*[#  3]+0.049*[#  4]+0.049*[#  6]+
    |psi|^2 = 0.950
     e =    34.93357184 eV
     psi = 
    |psi|^2 = 0.001

 k =  -0.1666666667  0.5000000000  0.0000000000
     e =     9.08007113 eV
     psi = 0.844*[#  1]+0.061*[#  2]+0.061*[#  5]+0.010*[#  3]+0.010*[#  4]+
          +0.010*[#  6]+
    |psi|^2 = 0.997
     e =    11.69988733 eV
     psi = 0.333*[#  3]+0.333*[#  4]+0.333*[#  6]+
    |psi|^2 = 0.998
     e =    12.91068721 eV
     psi = 0.291*[#  2]+0.291*[#  5]+0.130*[#  3]+0.130*[#  4]+0.130*[#  6]+
          +0.028*[#  1]+
    |psi|^2 = 0.999
     e =    13.63849062 eV
     psi = 0.333*[#  3]+0.333*[#  4]+0.333*[#  6]+
    |psi|^2 = 0.999
     e =    13.86597006 eV
     psi = 0.325*[#  2]+0.325*[#  5]+0.090*[#  3]+0.090*[#  4]+0.090*[#  6]+
          +0.078*[#  1]+
    |psi|^2 = 0.998
     e =    14.58697032 eV
     psi = 0.322*[#  2]+0.322*[#  5]+0.103*[#  3]+0.103*[#  4]+0.103*[#  6]+
          +0.046*[#  1]+
    |psi|^2 = 0.998
     e =    33.04273913 eV
     psi = 
    |psi|^2 = 0.002
     e =    33.55680861 eV
     psi = 
    |psi|^2 = 0.002

 k =  -0.2500000000  0.5833333333 -0.0833333333
     e =    10.10871989 eV
     psi = 0.605*[#  1]+0.128*[#  2]+0.128*[#  5]+0.045*[#  3]+0.045*[#  4]+
          +0.045*[#  6]+
    |psi|^2 = 0.994
     e =    11.61167504 eV
     psi = 0.314*[#  3]+0.314*[#  4]+0.314*[#  6]+0.019*[#  2]+0.019*[#  5]+
          +0.015*[#  1]+
    |psi|^2 = 0.995
     e =    12.62640331 eV
     psi = 0.246*[#  2]+0.246*[#  5]+0.154*[#  3]+0.154*[#  4]+0.154*[#  6]+
          +0.044*[#  1]+
    |psi|^2 = 0.999
     e =    13.67326749 eV
     psi = 0.197*[#  3]+0.197*[#  4]+0.197*[#  6]+0.197*[#  2]+0.197*[#  5]+
          +0.014*[#  1]+
    |psi|^2 = 0.999
     e =    14.30232159 eV
     psi = 0.264*[#  2]+0.264*[#  5]+0.143*[#  3]+0.143*[#  4]+0.143*[#  6]+
          +0.041*[#  1]+
    |psi|^2 = 0.997
     e =    15.34709037 eV
     psi = 0.263*[#  1]+0.145*[#  2]+0.145*[#  5]+0.145*[#  3]+0.145*[#  4]+
          +0.145*[#  6]+
    |psi|^2 = 0.988
     e =    29.03983629 eV
     psi = 0.006*[#  1]+0.002*[#  3]+0.002*[#  4]+0.002*[#  6]+
    |psi|^2 = 0.012
     e =    32.79208318 eV
     psi = 0.002*[#  1]+
    |psi|^2 = 0.003

 k =   0.6666666667 -0.3333333333  0.8333333333
     e =    10.74921757 eV
     psi = 0.257*[#  1]+0.169*[#  3]+0.169*[#  4]+0.169*[#  6]+0.114*[#  2]+
          +0.114*[#  5]+
    |psi|^2 = 0.992
     e =    11.76870265 eV
     psi = 0.234*[#  2]+0.234*[#  5]+0.158*[#  3]+0.158*[#  4]+0.158*[#  6]+
          +0.035*[#  1]+
    |psi|^2 = 0.978
     e =    12.46742906 eV
     psi = 0.242*[#  3]+0.242*[#  4]+0.242*[#  6]+0.098*[#  2]+0.098*[#  5]+
          +0.070*[#  1]+
    |psi|^2 = 0.994
     e =    13.54711506 eV
     psi = 0.288*[#  2]+0.288*[#  5]+0.138*[#  3]+0.138*[#  4]+0.138*[#  6]+
          +0.008*[#  1]+
    |psi|^2 = 0.998
     e =    14.63342619 eV
     psi = 0.202*[#  2]+0.202*[#  5]+0.196*[#  3]+0.196*[#  4]+0.196*[#  6]+
          +0.003*[#  1]+
    |psi|^2 = 0.997
     e =    16.82003200 eV
     psi = 0.503*[#  1]+0.087*[#  3]+0.087*[#  4]+0.087*[#  6]+0.062*[#  2]+
          +0.062*[#  5]+
    |psi|^2 = 0.888
     e =    25.22099421 eV
     psi = 0.086*[#  1]+0.007*[#  3]+0.007*[#  4]+0.007*[#  6]+
    |psi|^2 = 0.109
     e =    32.62399969 eV
     psi = 
    |psi|^2 = 0.002

 k =   0.5833333333 -0.2500000000  0.7500000000
     e =    10.95809560 eV
     psi = 0.278*[#  3]+0.278*[#  4]+0.278*[#  6]+0.112*[#  1]+0.024*[#  2]+
          +0.024*[#  5]+
    |psi|^2 = 0.995
     e =    11.85534260 eV
     psi = 0.453*[#  2]+0.453*[#  5]+0.020*[#  3]+0.020*[#  4]+0.020*[#  6]+
    |psi|^2 = 0.968
     e =    12.58604011 eV
     psi = 0.311*[#  3]+0.311*[#  4]+0.311*[#  6]+0.018*[#  1]+0.003*[#  2]+
          +0.003*[#  5]+
    |psi|^2 = 0.957
     e =    13.42669090 eV
     psi = 0.337*[#  2]+0.337*[#  5]+0.108*[#  3]+0.108*[#  4]+0.108*[#  6]+
    |psi|^2 = 0.999
     e =    14.68740748 eV
     psi = 0.227*[#  3]+0.227*[#  4]+0.227*[#  6]+0.158*[#  2]+0.158*[#  5]+
    |psi|^2 = 0.998
     e =    18.73574767 eV
     psi = 0.152*[#  1]+0.024*[#  3]+0.024*[#  4]+0.024*[#  6]+0.023*[#  2]+
          +0.023*[#  5]+
    |psi|^2 = 0.269
     e =    22.27980004 eV
     psi = 0.626*[#  1]+0.030*[#  3]+0.030*[#  4]+0.030*[#  6]+
    |psi|^2 = 0.718
     e =    31.80200865 eV
     psi = 0.026*[#  1]+
    |psi|^2 = 0.029

 k =   0.5000000000 -0.1666666667  0.6666666667
     e =    10.99701725 eV
     psi = 0.276*[#  3]+0.276*[#  4]+0.276*[#  6]+0.148*[#  1]+0.009*[#  2]+
          +0.009*[#  5]+
    |psi|^2 = 0.993
     e =    11.94722121 eV
     psi = 0.459*[#  2]+0.459*[#  5]+0.017*[#  3]+0.017*[#  4]+0.017*[#  6]+
          +0.008*[#  1]+
    |psi|^2 = 0.977
     e =    12.46762588 eV
     psi = 0.308*[#  3]+0.308*[#  4]+0.308*[#  6]+0.023*[#  1]+0.006*[#  5]+
          +0.006*[#  2]+
    |psi|^2 = 0.961
     e =    13.41130847 eV
     psi = 0.358*[#  2]+0.358*[#  5]+0.094*[#  3]+0.094*[#  4]+0.094*[#  6]+
          +0.001*[#  1]+
    |psi|^2 = 0.999
     e =    14.50936348 eV
     psi = 0.241*[#  3]+0.241*[#  4]+0.241*[#  6]+0.137*[#  2]+0.137*[#  5]+
    |psi|^2 = 0.998
     e =    18.23157033 eV
     psi = 0.408*[#  1]+0.043*[#  3]+0.043*[#  4]+0.043*[#  6]+0.029*[#  2]+
          +0.029*[#  5]+
    |psi|^2 = 0.595
     e =    23.09632772 eV
     psi = 0.334*[#  1]+0.019*[#  3]+0.019*[#  4]+0.019*[#  6]+
    |psi|^2 = 0.392
     e =    30.91498612 eV
     psi = 0.036*[#  1]+
    |psi|^2 = 0.039

 k =   0.4166666667 -0.0833333333  0.5833333333
     e =    10.74975829 eV
     psi = 0.411*[#  1]+0.154*[#  3]+0.154*[#  4]+0.154*[#  6]+0.058*[#  2]+
          +0.058*[#  5]+
    |psi|^2 = 0.989
     e =    11.96084849 eV
     psi = 0.261*[#  3]+0.261*[#  4]+0.261*[#  6]+0.076*[#  2]+0.076*[#  5]+
          +0.049*[#  1]+
    |psi|^2 = 0.984
     e =    12.25755018 eV
     psi = 0.288*[#  2]+0.288*[#  5]+0.140*[#  3]+0.140*[#  4]+0.140*[#  6]+
          +0.001*[#  1]+
    |psi|^2 = 0.998
     e =    13.51152993 eV
     psi = 0.362*[#  2]+0.362*[#  5]+0.087*[#  3]+0.087*[#  4]+0.087*[#  6]+
          +0.011*[#  1]+
    |psi|^2 = 0.998
     e =    14.14123597 eV
     psi = 0.246*[#  3]+0.246*[#  4]+0.246*[#  6]+0.128*[#  2]+0.128*[#  5]+
          +0.004*[#  1]+
    |psi|^2 = 0.998
     e =    16.51242772 eV
     psi = 0.457*[#  1]+0.106*[#  3]+0.106*[#  4]+0.106*[#  6]+0.086*[#  2]+
          +0.086*[#  5]+
    |psi|^2 = 0.946
     e =    26.46469795 eV
     psi = 0.034*[#  1]+0.005*[#  3]+0.005*[#  4]+0.005*[#  6]+
    |psi|^2 = 0.047
     e =    30.53323591 eV
     psi = 0.017*[#  1]+0.001*[#  3]+0.001*[#  4]+0.001*[#  6]+
    |psi|^2 = 0.021

 k =   0.3333333333  0.0000000000  0.5000000000
     e =     9.85762460 eV
     psi = 0.746*[#  1]+0.053*[#  3]+0.053*[#  4]+0.053*[#  6]+0.045*[#  2]+
          +0.045*[#  5]+
    |psi|^2 = 0.994
     e =    11.83875975 eV
     psi = 0.332*[#  3]+0.332*[#  4]+0.332*[#  6]+
    |psi|^2 = 0.996
     e =    12.56804066 eV
     psi = 0.305*[#  2]+0.305*[#  5]+0.129*[#  3]+0.129*[#  4]+0.129*[#  6]+
    |psi|^2 = 0.998
     e =    13.64836573 eV
     psi = 0.472*[#  2]+0.472*[#  5]+0.031*[#  1]+0.008*[#  3]+0.008*[#  4]+
          +0.008*[#  6]+
    |psi|^2 = 0.998
     e =    13.68184660 eV
     psi = 0.333*[#  3]+0.333*[#  4]+0.333*[#  6]+
    |psi|^2 = 0.999
     e =    15.34523957 eV
     psi = 0.211*[#  1]+0.177*[#  2]+0.177*[#  5]+0.142*[#  3]+0.142*[#  4]+
          +0.142*[#  6]+
    |psi|^2 = 0.992
     e =    30.11630715 eV
     psi = 0.001*[#  3]+0.001*[#  4]+0.001*[#  6]+
    |psi|^2 = 0.004
     e =    31.02482036 eV
     psi = 0.007*[#  1]+
    |psi|^2 = 0.010

 k =  -0.1666666667  0.6666666667  0.0000000000
     e =    10.22786954 eV
     psi = 0.413*[#  1]+0.279*[#  2]+0.279*[#  5]+0.008*[#  3]+0.008*[#  4]+
          +0.008*[#  6]+
    |psi|^2 = 0.995
     e =    11.25886747 eV
     psi = 0.332*[#  3]+0.332*[#  4]+0.332*[#  6]+
    |psi|^2 = 0.996
     e =    13.13544216 eV
     psi = 0.184*[#  3]+0.184*[#  4]+0.184*[#  6]+0.161*[#  1]+0.141*[#  2]+
          +0.141*[#  5]+
    |psi|^2 = 0.994
     e =    14.22049896 eV
     psi = 0.333*[#  3]+0.333*[#  4]+0.333*[#  6]+
    |psi|^2 = 0.999
     e =    14.38784734 eV
     psi = 0.464*[#  2]+0.464*[#  5]+0.063*[#  1]+0.002*[#  3]+0.002*[#  4]+
          +0.002*[#  6]+
    |psi|^2 = 0.996
     e =    15.38189069 eV
     psi = 0.339*[#  1]+0.139*[#  3]+0.139*[#  4]+0.139*[#  6]+0.114*[#  2]+
          +0.114*[#  5]+
    |psi|^2 = 0.983
     e =    31.06355622 eV
     psi = 
    |psi|^2 = 0.003
     e =    31.34370427 eV
     psi = 
    |psi|^2 = 0.003

 k =   0.7500000000 -0.2500000000  0.9166666667
     e =    10.69217760 eV
     psi = 0.358*[#  2]+0.358*[#  5]+0.183*[#  1]+0.031*[#  3]+0.031*[#  4]+
          +0.031*[#  6]+
    |psi|^2 = 0.991
     e =    11.26062365 eV
     psi = 0.308*[#  3]+0.308*[#  4]+0.308*[#  6]+0.033*[#  2]+0.033*[#  5]+
          +0.003*[#  1]+
    |psi|^2 = 0.993
     e =    12.92754500 eV
     psi = 0.245*[#  3]+0.245*[#  4]+0.245*[#  6]+0.116*[#  1]+0.069*[#  2]+
          +0.069*[#  5]+
    |psi|^2 = 0.990
     e =    14.13227351 eV
     psi = 0.302*[#  2]+0.302*[#  5]+0.128*[#  3]+0.128*[#  4]+0.128*[#  6]+
          +0.010*[#  1]+
    |psi|^2 = 0.997
     e =    14.66742978 eV
     psi = 0.210*[#  3]+0.210*[#  4]+0.210*[#  6]+0.183*[#  2]+0.183*[#  5]+
          +0.003*[#  1]+
    |psi|^2 = 0.998
     e =    17.08650285 eV
     psi = 0.576*[#  1]+0.074*[#  3]+0.074*[#  4]+0.074*[#  6]+0.050*[#  2]+
          +0.050*[#  5]+
    |psi|^2 = 0.900
     e =    27.41210148 eV
     psi = 0.031*[#  1]+0.002*[#  3]+0.002*[#  4]+0.002*[#  6]+
    |psi|^2 = 0.038
     e =    30.18124904 eV
     psi = 0.025*[#  1]+0.003*[#  2]+0.003*[#  5]+
    |psi|^2 = 0.031

 k =   0.6666666667 -0.1666666667  0.8333333333
     e =    11.02254319 eV
     psi = 0.293*[#  2]+0.293*[#  5]+0.114*[#  3]+0.114*[#  4]+0.114*[#  6]+
          +0.063*[#  1]+
    |psi|^2 = 0.992
     e =    11.40607246 eV
     psi = 0.211*[#  3]+0.211*[#  4]+0.211*[#  6]+0.174*[#  2]+0.174*[#  5]+
    |psi|^2 = 0.981
     e =    12.68997649 eV
     psi = 0.299*[#  3]+0.299*[#  4]+0.299*[#  6]+0.047*[#  1]+0.017*[#  2]+
          +0.017*[#  5]+
    |psi|^2 = 0.979
     e =    13.93316581 eV
     psi = 0.390*[#  2]+0.390*[#  5]+0.072*[#  3]+0.072*[#  4]+0.072*[#  6]+
    |psi|^2 = 0.998
     e =    14.73416655 eV
     psi = 0.265*[#  3]+0.265*[#  4]+0.265*[#  6]+0.102*[#  2]+0.102*[#  5]+
    |psi|^2 = 0.998
     e =    19.44495113 eV
     psi = 0.396*[#  1]+0.028*[#  3]+0.028*[#  4]+0.028*[#  6]+0.018*[#  2]+
          +0.018*[#  5]+
    |psi|^2 = 0.515
     e =    23.95700660 eV
     psi = 0.277*[#  1]+0.009*[#  3]+0.009*[#  4]+0.009*[#  6]+
    |psi|^2 = 0.306
     e =    28.69357734 eV
     psi = 0.132*[#  1]+0.004*[#  2]+0.004*[#  5]+
    |psi|^2 = 0.142

 k =   0.5833333333 -0.0833333333  0.7500000000
     e =    11.34886924 eV
     psi = 0.244*[#  3]+0.244*[#  4]+0.244*[#  6]+0.107*[#  2]+0.107*[#  5]+
          +0.048*[#  1]+
    |psi|^2 = 0.996
     e =    11.53368342 eV
     psi = 0.384*[#  2]+0.384*[#  5]+0.063*[#  3]+0.063*[#  4]+0.063*[#  6]+
          +0.017*[#  1]+
    |psi|^2 = 0.972
     e =    12.38733598 eV
     psi = 0.325*[#  3]+0.325*[#  4]+0.325*[#  6]+
    |psi|^2 = 0.977
     e =    13.78830651 eV
     psi = 0.451*[#  2]+0.451*[#  5]+0.032*[#  3]+0.032*[#  4]+0.032*[#  6]+
    |psi|^2 = 0.999
     e =    14.55800839 eV
     psi = 0.303*[#  3]+0.303*[#  4]+0.303*[#  6]+0.045*[#  2]+0.045*[#  5]+
    |psi|^2 = 0.999
     e =    20.50754414 eV
     psi = 0.296*[#  1]+0.016*[#  3]+0.016*[#  4]+0.016*[#  6]+0.008*[#  2]+
          +0.008*[#  5]+
    |psi|^2 = 0.360
     e =    22.80675377 eV
     psi = 0.345*[#  1]+0.014*[#  3]+0.014*[#  4]+0.014*[#  6]+0.001*[#  2]+
          +0.001*[#  5]+
    |psi|^2 = 0.389
     e =    27.66574431 eV
     psi = 0.218*[#  1]+0.003*[#  2]+0.003*[#  5]+0.002*[#  3]+0.002*[#  4]+
          +0.002*[#  6]+
    |psi|^2 = 0.230

 k =   0.5000000000  0.0000000000  0.6666666667
     e =    11.38261432 eV
     psi = 0.208*[#  3]+0.208*[#  4]+0.208*[#  6]+0.204*[#  1]+0.075*[#  2]+
          +0.075*[#  5]+
    |psi|^2 = 0.980
     e =    11.82367729 eV
     psi = 0.399*[#  2]+0.399*[#  5]+0.065*[#  3]+0.065*[#  4]+0.065*[#  6]+
    |psi|^2 = 0.992
     e =    12.00882560 eV
     psi = 0.329*[#  3]+0.329*[#  4]+0.329*[#  6]+
    |psi|^2 = 0.988
     e =    13.72435721 eV
     psi = 0.494*[#  2]+0.494*[#  5]+0.003*[#  3]+0.003*[#  4]+0.003*[#  6]+
          +0.001*[#  1]+
    |psi|^2 = 0.998
     e =    14.26256303 eV
     psi = 0.333*[#  3]+0.333*[#  4]+0.333*[#  6]+
    |psi|^2 = 0.999
     e =    18.28857129 eV
     psi = 0.605*[#  1]+0.055*[#  3]+0.055*[#  4]+0.055*[#  6]+0.029*[#  2]+
          +0.029*[#  5]+
    |psi|^2 = 0.827
     e =    25.52590605 eV
     psi = 0.004*[#  3]+0.004*[#  4]+0.004*[#  6]+
    |psi|^2 = 0.012
     e =    27.64660405 eV
     psi = 0.153*[#  1]+0.003*[#  3]+0.003*[#  4]+0.003*[#  6]+
    |psi|^2 = 0.164

 k =   0.8333333333 -0.1666666667  1.0000000000
     e =    10.41710885 eV
     psi = 0.439*[#  2]+0.439*[#  5]+0.113*[#  1]+0.001*[#  4]+0.001*[#  3]+
          +0.001*[#  6]+
    |psi|^2 = 0.994
     e =    10.94556466 eV
     psi = 0.332*[#  3]+0.332*[#  4]+0.332*[#  6]+
    |psi|^2 = 0.995
     e =    13.82098615 eV
     psi = 0.273*[#  3]+0.273*[#  4]+0.273*[#  6]+0.081*[#  1]+0.040*[#  2]+
          +0.040*[#  5]+
    |psi|^2 = 0.979
     e =    14.60863860 eV
     psi = 0.473*[#  2]+0.473*[#  5]+0.014*[#  3]+0.014*[#  4]+0.014*[#  6]+
          +0.007*[#  1]+
    |psi|^2 = 0.995
     e =    14.71857750 eV
     psi = 0.333*[#  3]+0.333*[#  4]+0.333*[#  6]+
    |psi|^2 = 0.998
     e =    17.34367886 eV
     psi = 0.586*[#  1]+0.045*[#  3]+0.045*[#  4]+0.045*[#  6]+0.037*[#  2]+
          +0.037*[#  5]+
    |psi|^2 = 0.794
     e =    27.69256896 eV
     psi = 0.108*[#  1]+0.009*[#  2]+0.009*[#  5]+
    |psi|^2 = 0.127
     e =    29.66683876 eV
     psi = 
    |psi|^2 = 0.003

 k =   0.7500000000 -0.0833333333  0.9166666667
     e =    10.65722785 eV
     psi = 0.457*[#  2]+0.457*[#  5]+0.049*[#  1]+0.009*[#  3]+0.009*[#  4]+
          +0.009*[#  6]+
    |psi|^2 = 0.992
     e =    11.05999373 eV
     psi = 0.322*[#  3]+0.322*[#  4]+0.322*[#  6]+0.014*[#  2]+0.014*[#  5]+
    |psi|^2 = 0.993
     e =    13.41471471 eV
     psi = 0.308*[#  3]+0.308*[#  4]+0.308*[#  6]+0.024*[#  1]+0.010*[#  2]+
          +0.010*[#  5]+
    |psi|^2 = 0.966
     e =    14.37032316 eV
     psi = 0.470*[#  2]+0.470*[#  5]+0.019*[#  3]+0.019*[#  4]+0.019*[#  6]+
    |psi|^2 = 0.997
     e =    14.83717673 eV
     psi = 0.318*[#  3]+0.318*[#  4]+0.318*[#  6]+0.022*[#  2]+0.022*[#  5]+
    |psi|^2 = 0.998
     e =    19.52916647 eV
     psi = 0.282*[#  1]+0.021*[#  3]+0.021*[#  4]+0.021*[#  6]+0.010*[#  2]+
          +0.010*[#  5]+
    |psi|^2 = 0.363
     e =    26.04315257 eV
     psi = 0.083*[#  1]+0.009*[#  2]+0.009*[#  5]+
    |psi|^2 = 0.102
     e =    26.79201380 eV
     psi = 0.418*[#  1]+0.007*[#  2]+0.007*[#  5]+0.002*[#  3]+0.002*[#  4]+
          +0.002*[#  6]+
    |psi|^2 = 0.438

 k =   0.6666666667  0.0000000000  0.8333333333
     e =    10.99979277 eV
     psi = 0.422*[#  2]+0.422*[#  5]+0.042*[#  3]+0.042*[#  4]+0.042*[#  6]+
          +0.020*[#  1]+
    |psi|^2 = 0.992
     e =    11.30996093 eV
     psi = 0.283*[#  3]+0.283*[#  4]+0.283*[#  6]+0.066*[#  2]+0.066*[#  5]+
          +0.005*[#  1]+
    |psi|^2 = 0.985
     e =    12.85601427 eV
     psi = 0.324*[#  3]+0.324*[#  4]+0.324*[#  6]+
    |psi|^2 = 0.971
     e =    14.10270858 eV
     psi = 0.498*[#  2]+0.498*[#  5]+0.003*[#  1]+
    |psi|^2 = 0.999
     e =    14.72249474 eV
     psi = 0.333*[#  3]+0.333*[#  4]+0.333*[#  6]+
    |psi|^2 = 0.998
     e =    21.68986009 eV
     psi = 0.010*[#  3]+0.010*[#  4]+0.010*[#  6]+
    |psi|^2 = 0.029
     e =    23.27925519 eV
     psi = 0.179*[#  1]+0.006*[#  3]+0.006*[#  4]+0.006*[#  6]+0.002*[#  2]+
          +0.002*[#  5]+
    |psi|^2 = 0.199
     e =    26.03728308 eV
     psi = 0.669*[#  1]+0.012*[#  2]+0.012*[#  5]+0.002*[#  3]+0.002*[#  4]+
          +0.002*[#  6]+
    |psi|^2 = 0.700

 k =  -0.1666666667 -1.0000000000  0.0000000000
     e =    10.37362616 eV
     psi = 0.470*[#  2]+0.470*[#  5]+0.054*[#  1]+
    |psi|^2 = 0.994
     e =    10.83295085 eV
     psi = 0.332*[#  3]+0.332*[#  4]+0.332*[#  6]+
    |psi|^2 = 0.995
     e =    14.15061995 eV
     psi = 0.318*[#  3]+0.318*[#  4]+0.318*[#  6]+
    |psi|^2 = 0.954
     e =    14.61569468 eV
     psi = 0.499*[#  2]+0.499*[#  5]+
    |psi|^2 = 0.999
     e =    14.92053852 eV
     psi = 0.333*[#  3]+0.333*[#  4]+0.333*[#  6]+
    |psi|^2 = 0.998
     e =    18.95116483 eV
     psi = 0.015*[#  3]+0.015*[#  4]+0.015*[#  6]+
    |psi|^2 = 0.045
     e =    25.34667215 eV
     psi = 0.696*[#  1]+0.029*[#  2]+0.029*[#  5]+
    |psi|^2 = 0.753
     e =    29.15401793 eV
     psi = 
    |psi|^2 = 0.003

 k =   0.6666666667 -0.3333333333  1.0000000000
     e =    10.86075485 eV
     psi = 0.342*[#  1]+0.253*[#  2]+0.253*[#  5]+0.047*[#  3]+0.047*[#  4]+
          +0.047*[#  6]+
    |psi|^2 = 0.987
     e =    11.55516502 eV
     psi = 0.331*[#  3]+0.331*[#  4]+0.331*[#  6]+
    |psi|^2 = 0.994
     e =    12.33383286 eV
     psi = 0.192*[#  2]+0.192*[#  5]+0.186*[#  3]+0.186*[#  4]+0.186*[#  6]+
          +0.055*[#  1]+
    |psi|^2 = 0.997
     e =    14.02840748 eV
     psi = 0.483*[#  2]+0.483*[#  5]+0.026*[#  1]+0.001*[#  3]+0.001*[#  4]+
          +0.001*[#  6]+
    |psi|^2 = 0.996
     e =    14.22197385 eV
     psi = 0.333*[#  3]+0.333*[#  4]+0.333*[#  6]+
    |psi|^2 = 0.999
     e =    16.70286706 eV
     psi = 0.513*[#  1]+0.097*[#  3]+0.097*[#  4]+0.097*[#  6]+0.071*[#  2]+
          +0.071*[#  5]+
    |psi|^2 = 0.947
     e =    28.16024029 eV
     psi = 0.002*[#  3]+0.002*[#  4]+0.002*[#  6]+
    |psi|^2 = 0.006
     e =    29.32319165 eV
     psi = 0.035*[#  1]+0.001*[#  3]+0.001*[#  4]+0.001*[#  6]+
    |psi|^2 = 0.040

 k =   0.5833333333 -0.2500000000  0.9166666667
     e =    11.25659842 eV
     psi = 0.272*[#  2]+0.272*[#  5]+0.112*[#  1]+0.110*[#  3]+0.110*[#  4]+
          +0.110*[#  6]+
    |psi|^2 = 0.984
     e =    11.65376963 eV
     psi = 0.218*[#  3]+0.218*[#  4]+0.218*[#  6]+0.166*[#  2]+0.166*[#  5]+
    |psi|^2 = 0.986
     e =    12.16465404 eV
     psi = 0.281*[#  3]+0.281*[#  4]+0.281*[#  6]+0.054*[#  1]+0.046*[#  2]+
          +0.046*[#  5]+
    |psi|^2 = 0.990
     e =    13.85063610 eV
     psi = 0.428*[#  2]+0.428*[#  5]+0.047*[#  3]+0.047*[#  4]+0.047*[#  6]+
          +0.002*[#  1]+
    |psi|^2 = 0.997
     e =    14.54953743 eV
     psi = 0.293*[#  3]+0.293*[#  4]+0.293*[#  6]+0.060*[#  2]+0.060*[#  5]+
    |psi|^2 = 0.998
     e =    18.67106967 eV
     psi = 0.564*[#  1]+0.043*[#  3]+0.043*[#  4]+0.043*[#  6]+0.026*[#  2]+
          +0.026*[#  5]+
    |psi|^2 = 0.745
     e =    24.88724971 eV
     psi = 0.125*[#  1]+0.007*[#  3]+0.007*[#  4]+0.007*[#  6]+
    |psi|^2 = 0.145
     e =    29.14698966 eV
     psi = 0.055*[#  1]+0.001*[#  3]+0.001*[#  4]+0.001*[#  6]+
    |psi|^2 = 0.060

 k =   0.5000000000 -0.1666666667  0.8333333333
     e =    11.46484421 eV
     psi = 0.306*[#  3]+0.306*[#  4]+0.306*[#  6]+0.065*[#  1]+0.005*[#  2]+
          +0.005*[#  5]+
    |psi|^2 = 0.993
     e =    11.50041600 eV
     psi = 0.488*[#  2]+0.488*[#  5]+
    |psi|^2 = 0.978
     e =    12.25537781 eV
     psi = 0.324*[#  3]+0.324*[#  4]+0.324*[#  6]+
    |psi|^2 = 0.973
     e =    13.74213241 eV
     psi = 0.431*[#  2]+0.431*[#  5]+0.045*[#  3]+0.045*[#  4]+0.045*[#  6]+
    |psi|^2 = 0.999
     e =    14.67290976 eV
     psi = 0.292*[#  3]+0.292*[#  4]+0.292*[#  6]+0.061*[#  2]+0.061*[#  5]+
          +0.003*[#  1]+
    |psi|^2 = 0.999
     e =    20.61385766 eV
     psi = 0.010*[#  2]+0.010*[#  5]+0.008*[#  3]+0.008*[#  4]+0.008*[#  6]+
    |psi|^2 = 0.044
     e =    22.39275210 eV
     psi = 0.722*[#  1]+0.023*[#  3]+0.023*[#  4]+0.023*[#  6]+0.002*[#  2]+
          +0.002*[#  5]+
    |psi|^2 = 0.795
     e =    29.63109551 eV
     psi = 0.002*[#  2]+0.002*[#  5]+
    |psi|^2 = 0.004

 k =   0.6666666667 -0.1666666667  1.0000000000
     e =    10.94297756 eV
     psi = 0.455*[#  2]+0.455*[#  5]+0.064*[#  1]+0.005*[#  3]+0.005*[#  4]+
          +0.005*[#  6]+
    |psi|^2 = 0.988
     e =    11.33719754 eV
     psi = 0.331*[#  3]+0.331*[#  4]+0.331*[#  6]+
    |psi|^2 = 0.992
     e =    12.69948902 eV
     psi = 0.285*[#  3]+0.285*[#  4]+0.285*[#  6]+0.063*[#  1]+0.032*[#  2]+
          +0.032*[#  5]+
    |psi|^2 = 0.984
     e =    14.19730235 eV
     psi = 0.484*[#  2]+0.484*[#  5]+0.009*[#  3]+0.009*[#  4]+0.009*[#  6]+
    |psi|^2 = 0.996
     e =    14.71499910 eV
     psi = 0.333*[#  3]+0.333*[#  4]+0.333*[#  6]+
    |psi|^2 = 0.998
     e =    19.07591461 eV
     psi = 0.549*[#  1]+0.033*[#  3]+0.033*[#  4]+0.033*[#  6]+0.021*[#  2]+
          +0.021*[#  5]+
    |psi|^2 = 0.690
     e =    26.81413123 eV
     psi = 0.002*[#  3]+0.002*[#  4]+0.002*[#  6]+
    |psi|^2 = 0.007
     e =    27.90155614 eV
     psi = 0.004*[#  1]+0.003*[#  2]+0.003*[#  5]+
    |psi|^2 = 0.010

 k =   0.5833333333 -0.0833333333  0.9166666667
     e =    11.14599716 eV
     psi = 0.481*[#  2]+0.481*[#  5]+0.010*[#  1]+0.005*[#  3]+0.005*[#  4]+
          +0.005*[#  6]+
    |psi|^2 = 0.986
     e =    11.56907562 eV
     psi = 0.322*[#  3]+0.322*[#  4]+0.322*[#  6]+0.008*[#  2]+0.008*[#  5]+
          +0.007*[#  1]+
    |psi|^2 = 0.988
     e =    12.38241246 eV
     psi = 0.319*[#  3]+0.319*[#  4]+0.319*[#  6]+0.013*[#  1]+0.004*[#  2]+
          +0.004*[#  5]+
    |psi|^2 = 0.980
     e =    13.97082607 eV
     psi = 0.486*[#  2]+0.486*[#  5]+0.007*[#  3]+0.007*[#  4]+0.007*[#  6]+
          +0.006*[#  1]+
    |psi|^2 = 0.998
     e =    14.82294028 eV
     psi = 0.329*[#  3]+0.329*[#  4]+0.329*[#  6]+0.005*[#  2]+0.005*[#  5]+
    |psi|^2 = 0.998
     e =    21.55315101 eV
     psi = 0.187*[#  1]+0.011*[#  3]+0.011*[#  4]+0.011*[#  6]+0.005*[#  2]+
          +0.005*[#  5]+
    |psi|^2 = 0.230
     e =    23.94464965 eV
     psi = 0.208*[#  1]+0.006*[#  3]+0.006*[#  4]+0.006*[#  6]+0.001*[#  2]+
          +0.001*[#  5]+
    |psi|^2 = 0.228
     e =    27.03932414 eV
     psi = 0.213*[#  1]+0.006*[#  2]+0.006*[#  5]+
    |psi|^2 = 0.227

 k =   0.5000000000  0.0000000000  0.8333333333
     e =    11.32315442 eV
     psi = 0.488*[#  2]+0.488*[#  5]+0.005*[#  1]+
    |psi|^2 = 0.983
     e =    11.82399048 eV
     psi = 0.310*[#  3]+0.310*[#  4]+0.310*[#  6]+0.042*[#  1]+0.008*[#  2]+
          +0.008*[#  5]+
    |psi|^2 = 0.988
     e =    11.98770291 eV
     psi = 0.328*[#  3]+0.328*[#  4]+0.328*[#  6]+
    |psi|^2 = 0.985
     e =    13.88825868 eV
     psi = 0.490*[#  2]+0.490*[#  5]+0.004*[#  3]+0.004*[#  4]+0.004*[#  6]+
          +0.004*[#  1]+
    |psi|^2 = 0.998
     e =    14.71251479 eV
     psi = 0.333*[#  3]+0.333*[#  4]+0.333*[#  6]+
    |psi|^2 = 0.998
     e =    21.02604448 eV
     psi = 0.426*[#  1]+0.016*[#  3]+0.016*[#  4]+0.016*[#  6]+0.008*[#  2]+
          +0.008*[#  5]+
    |psi|^2 = 0.489
     e =    24.09531664 eV
     psi = 0.005*[#  3]+0.005*[#  4]+0.005*[#  6]+
    |psi|^2 = 0.015
     e =    26.80869014 eV
     psi = 0.330*[#  1]+0.004*[#  2]+0.004*[#  5]+0.002*[#  3]+0.002*[#  4]+
          +0.002*[#  6]+
    |psi|^2 = 0.344

 k =  -0.3333333333 -1.0000000000  0.0000000000
     e =    10.85171328 eV
     psi = 0.484*[#  2]+0.484*[#  5]+0.022*[#  1]+
    |psi|^2 = 0.990
     e =    11.25694545 eV
     psi = 0.331*[#  3]+0.331*[#  4]+0.331*[#  6]+
    |psi|^2 = 0.992
     e =    12.96637060 eV
     psi = 0.323*[#  3]+0.323*[#  4]+0.323*[#  6]+
    |psi|^2 = 0.968
     e =    14.18559545 eV
     psi = 0.496*[#  2]+0.496*[#  5]+0.006*[#  1]+
    |psi|^2 = 0.999
     e =    14.92114997 eV
     psi = 0.333*[#  3]+0.333*[#  4]+0.333*[#  6]+
    |psi|^2 = 0.998
     e =    21.05731354 eV
     psi = 0.011*[#  3]+0.011*[#  4]+0.011*[#  6]+
    |psi|^2 = 0.032
     e =    25.61998038 eV
     psi = 0.431*[#  1]+0.016*[#  2]+0.016*[#  5]+
    |psi|^2 = 0.463
     e =    26.32250927 eV
     psi = 0.003*[#  3]+0.003*[#  4]+0.003*[#  6]+
    |psi|^2 = 0.008

 k =  -0.5000000000 -1.0000000000  0.0000000000
     e =    11.15471195 eV
     psi = 0.494*[#  2]+0.494*[#  5]+
    |psi|^2 = 0.987
     e =    11.97099741 eV
     psi = 0.328*[#  3]+0.328*[#  4]+0.328*[#  6]+
    |psi|^2 = 0.984
     e =    11.97099741 eV
     psi = 0.328*[#  3]+0.328*[#  4]+0.328*[#  6]+
    |psi|^2 = 0.984
     e =    13.90434130 eV
     psi = 0.492*[#  2]+0.492*[#  5]+0.015*[#  1]+
    |psi|^2 = 1.000
     e =    14.92145110 eV
     psi = 0.333*[#  3]+0.333*[#  4]+0.333*[#  6]+
    |psi|^2 = 0.998
     e =    23.56146434 eV
     psi = 0.005*[#  3]+0.005*[#  4]+0.005*[#  6]+
    |psi|^2 = 0.016
     e =    23.56146434 eV
     psi = 0.005*[#  3]+0.005*[#  4]+0.005*[#  6]+
    |psi|^2 = 0.016
     e =    25.93128482 eV
     psi = 0.006*[#  2]+0.006*[#  5]+
    |psi|^2 = 0.013

 k =   0.0000000000  0.0000000000  0.0000000000
     e =     5.77948137 eV
     psi = 0.999*[#  1]+
    |psi|^2 = 0.999
     e =    13.34151143 eV
     psi = 0.333*[#  3]+0.333*[#  4]+0.333*[#  6]+
    |psi|^2 = 1.000
     e =    13.34151143 eV
     psi = 0.333*[#  3]+0.333*[#  4]+0.333*[#  6]+
    |psi|^2 = 1.000
     e =    13.34151143 eV
     psi = 0.333*[#  3]+0.333*[#  4]+0.333*[#  6]+
    |psi|^2 = 1.000
     e =    14.58697419 eV
     psi = 0.500*[#  2]+0.500*[#  5]+
    |psi|^2 = 1.000
     e =    14.58697419 eV
     psi = 0.500*[#  2]+0.500*[#  5]+
    |psi|^2 = 1.000
     e =    39.84498405 eV
     psi = 
    |psi|^2 = 0.000
     e =    44.29820391 eV
     psi = 
    |psi|^2 = 0.000

 k =  -0.0833333333  0.0833333333 -0.0833333333
     e =     6.06790363 eV
     psi = 0.999*[#  1]+
    |psi|^2 = 0.999
     e =    13.25554829 eV
     psi = 0.333*[#  3]+0.333*[#  4]+0.333*[#  6]+
    |psi|^2 = 0.999
     e =    13.40989249 eV
     psi = 0.332*[#  3]+0.332*[#  4]+0.332*[#  6]+0.002*[#  2]+0.002*[#  5]+
    |psi|^2 = 1.000
     e =    13.40989249 eV
     psi = 0.332*[#  3]+0.332*[#  4]+0.332*[#  6]+0.002*[#  2]+0.002*[#  5]+
    |psi|^2 = 1.000
     e =    14.55789199 eV
     psi = 0.498*[#  2]+0.498*[#  5]+0.001*[#  3]+0.001*[#  4]+0.001*[#  6]+
    |psi|^2 = 1.000
     e =    14.55789199 eV
     psi = 0.498*[#  2]+0.498*[#  5]+0.001*[#  3]+0.001*[#  4]+0.001*[#  6]+
    |psi|^2 = 1.000
     e =    39.01721863 eV
     psi = 
    |psi|^2 = 0.000
     e =    41.76904445 eV
     psi = 
    |psi|^2 = 0.000

 k =  -0.1666666667  0.1666666667 -0.1666666667
     e =     6.90186522 eV
     psi = 0.991*[#  1]+0.003*[#  3]+0.003*[#  4]+0.003*[#  6]+
    |psi|^2 = 0.999
     e =    13.05138272 eV
     psi = 0.330*[#  3]+0.330*[#  4]+0.330*[#  6]+0.008*[#  1]+
    |psi|^2 = 0.998
     e =    13.54536734 eV
     psi = 0.309*[#  3]+0.309*[#  4]+0.309*[#  6]+0.037*[#  2]+0.037*[#  5]+
    |psi|^2 = 1.000
     e =    13.54536734 eV
     psi = 0.309*[#  3]+0.309*[#  4]+0.309*[#  6]+0.037*[#  2]+0.037*[#  5]+
    |psi|^2 = 1.000
     e =    14.53882415 eV
     psi = 0.463*[#  2]+0.463*[#  5]+0.025*[#  3]+0.025*[#  4]+0.025*[#  6]+
    |psi|^2 = 1.000
     e =    14.53882415 eV
     psi = 0.463*[#  2]+0.463*[#  5]+0.025*[#  3]+0.025*[#  4]+0.025*[#  6]+
    |psi|^2 = 1.000
     e =    35.19959046 eV
     psi = 
    |psi|^2 = 0.002
     e =    40.75041770 eV
     psi = 
    |psi|^2 = 0.000

 k =  -0.2500000000  0.2500000000 -0.2500000000
     e =     8.15740048 eV
     psi = 0.940*[#  1]+0.019*[#  3]+0.019*[#  4]+0.019*[#  6]+
    |psi|^2 = 0.998
     e =    12.89180459 eV
     psi = 0.312*[#  3]+0.312*[#  4]+0.312*[#  6]+0.057*[#  1]+
    |psi|^2 = 0.993
     e =    13.56613620 eV
     psi = 0.230*[#  3]+0.230*[#  4]+0.230*[#  6]+0.154*[#  2]+0.154*[#  5]+
    |psi|^2 = 1.000
     e =    13.56613620 eV
     psi = 0.230*[#  3]+0.230*[#  4]+0.230*[#  6]+0.154*[#  2]+0.154*[#  5]+
    |psi|^2 = 1.000
     e =    14.70099181 eV
     psi = 0.345*[#  2]+0.345*[#  5]+0.103*[#  3]+0.103*[#  4]+0.103*[#  6]+
    |psi|^2 = 1.000
     e =    14.70099181 eV
     psi = 0.345*[#  2]+0.345*[#  5]+0.103*[#  3]+0.103*[#  4]+0.103*[#  6]+
    |psi|^2 = 1.000
     e =    30.80822041 eV
     psi = 0.002*[#  3]+0.002*[#  4]+0.002*[#  6]+
    |psi|^2 = 0.007
     e =    40.05662160 eV
     psi = 
    |psi|^2 = 0.000

 k =  -0.3333333333  0.3333333333 -0.3333333333
     e =     9.48006312 eV
     psi = 0.722*[#  1]+0.091*[#  3]+0.091*[#  4]+0.091*[#  6]+
    |psi|^2 = 0.996
     e =    13.11926839 eV
     psi = 0.258*[#  1]+0.235*[#  3]+0.235*[#  4]+0.235*[#  6]+
    |psi|^2 = 0.962
     e =    13.44601015 eV
     psi = 0.249*[#  2]+0.249*[#  5]+0.167*[#  3]+0.167*[#  4]+0.167*[#  6]+
    |psi|^2 = 1.000
     e =    13.44601015 eV
     psi = 0.249*[#  2]+0.249*[#  5]+0.167*[#  3]+0.167*[#  4]+0.167*[#  6]+
    |psi|^2 = 1.000
     e =    15.03229050 eV
     psi = 0.251*[#  2]+0.251*[#  5]+0.166*[#  3]+0.166*[#  4]+0.166*[#  6]+
    |psi|^2 = 0.999
     e =    15.03229050 eV
     psi = 0.251*[#  2]+0.251*[#  5]+0.166*[#  3]+0.166*[#  4]+0.166*[#  6]+
    |psi|^2 = 0.999
     e =    26.76810443 eV
     psi = 0.015*[#  1]+0.007*[#  3]+0.007*[#  4]+0.007*[#  6]+
    |psi|^2 = 0.037
     e =    39.19607746 eV
     psi = 
    |psi|^2 = 0.000

 k =  -0.4166666667  0.4166666667 -0.4166666667
     e =    10.24751422 eV
     psi = 0.345*[#  1]+0.217*[#  3]+0.217*[#  4]+0.217*[#  6]+
    |psi|^2 = 0.995
     e =    13.32054553 eV
     psi = 0.289*[#  2]+0.289*[#  5]+0.140*[#  3]+0.140*[#  4]+0.140*[#  6]+
    |psi|^2 = 1.000
     e =    13.32054553 eV
     psi = 0.289*[#  2]+0.289*[#  5]+0.140*[#  3]+0.140*[#  4]+0.140*[#  6]+
    |psi|^2 = 1.000
     e =    14.13172966 eV
     psi = 0.446*[#  1]+0.089*[#  3]+0.089*[#  4]+0.089*[#  6]+
    |psi|^2 = 0.713
     e =    15.33257588 eV
     psi = 0.210*[#  2]+0.210*[#  5]+0.193*[#  3]+0.193*[#  4]+0.193*[#  6]+
    |psi|^2 = 0.999
     e =    15.33257588 eV
     psi = 0.210*[#  2]+0.210*[#  5]+0.193*[#  3]+0.193*[#  4]+0.193*[#  6]+
    |psi|^2 = 0.999
     e =    23.46081447 eV
     psi = 0.192*[#  1]+0.028*[#  3]+0.028*[#  4]+0.028*[#  6]+
    |psi|^2 = 0.276
     e =    38.53150699 eV
     psi = 
    |psi|^2 = 0.000

 k =   0.5000000000 -0.5000000000  0.5000000000
     e =    10.42567886 eV
     psi = 0.267*[#  3]+0.267*[#  4]+0.267*[#  6]+0.196*[#  1]+
    |psi|^2 = 0.996
     e =    13.27099616 eV
     psi = 0.300*[#  2]+0.300*[#  5]+0.133*[#  3]+0.133*[#  4]+0.133*[#  6]+
    |psi|^2 = 1.000
     e =    13.27099616 eV
     psi = 0.300*[#  2]+0.300*[#  5]+0.133*[#  3]+0.133*[#  4]+0.133*[#  6]+
    |psi|^2 = 1.000
     e =    14.96809200 eV
     psi = 
    |psi|^2 = 0.000
     e =    15.45076674 eV
     psi = 0.200*[#  3]+0.200*[#  4]+0.200*[#  6]+0.199*[#  2]+0.199*[#  5]+
    |psi|^2 = 0.999
     e =    15.45076674 eV
     psi = 0.200*[#  3]+0.200*[#  4]+0.200*[#  6]+0.199*[#  2]+0.199*[#  5]+
    |psi|^2 = 0.999
     e =    21.93448491 eV
     psi = 0.769*[#  1]+0.066*[#  3]+0.066*[#  4]+0.066*[#  6]+
    |psi|^2 = 0.967
     e =    38.28753351 eV
     psi = 
    |psi|^2 = 0.000

 k =   0.0000000000  0.1666666667  0.0000000000
     e =     6.16342516 eV
     psi = 0.998*[#  1]+
    |psi|^2 = 0.999
     e =    13.18632817 eV
     psi = 0.333*[#  3]+0.333*[#  4]+0.333*[#  6]+
    |psi|^2 = 0.999
     e =    13.45858473 eV
     psi = 0.333*[#  3]+0.333*[#  4]+0.333*[#  6]+
    |psi|^2 = 1.000
     e =    13.45858473 eV
     psi = 0.333*[#  3]+0.333*[#  4]+0.333*[#  6]+
    |psi|^2 = 1.000
     e =    14.44546423 eV
     psi = 0.500*[#  2]+0.500*[#  5]+
    |psi|^2 = 1.000
     e =    14.64094698 eV
     psi = 0.500*[#  2]+0.500*[#  5]+
    |psi|^2 = 1.000
     e =    39.33234421 eV
     psi = 
    |psi|^2 = 0.000
     e =    42.17284779 eV
     psi = 
    |psi|^2 = 0.000

 k =  -0.0833333333  0.2500000000 -0.0833333333
     e =     6.81445859 eV
     psi = 0.993*[#  1]+0.001*[#  2]+0.001*[#  5]+
    |psi|^2 = 0.999
     e =    12.99375498 eV
     psi = 0.333*[#  3]+0.333*[#  4]+0.333*[#  6]+
    |psi|^2 = 0.999
     e =    13.59508306 eV
     psi = 0.319*[#  3]+0.319*[#  4]+0.319*[#  6]+0.021*[#  2]+0.021*[#  5]+
          +0.001*[#  1]+
    |psi|^2 = 1.000
     e =    13.60459266 eV
     psi = 0.322*[#  3]+0.322*[#  4]+0.322*[#  6]+0.017*[#  2]+0.017*[#  5]+
    |psi|^2 = 1.000
     e =    14.32689601 eV
     psi = 0.477*[#  2]+0.477*[#  5]+0.014*[#  3]+0.014*[#  4]+0.014*[#  6]+
          +0.004*[#  1]+
    |psi|^2 = 1.000
     e =    14.69159490 eV
[...]
    |psi|^2 = 0.985
     e =    12.46379879 eV
     psi = 0.259*[#  3]+0.259*[#  4]+0.259*[#  6]+0.086*[#  2]+0.086*[#  5]+
          +0.032*[#  1]+
    |psi|^2 = 0.979
     e =    12.80767838 eV
     psi = 0.263*[#  2]+0.263*[#  5]+0.155*[#  3]+0.155*[#  4]+0.155*[#  6]+
          +0.004*[#  1]+
    |psi|^2 = 0.997
     e =    14.10076743 eV
     psi = 0.395*[#  2]+0.395*[#  5]+0.065*[#  3]+0.065*[#  4]+0.065*[#  6]+
          +0.012*[#  1]+
    |psi|^2 = 0.998
     e =    14.82711389 eV
     psi = 0.268*[#  3]+0.268*[#  4]+0.268*[#  6]+0.096*[#  2]+0.096*[#  5]+
          +0.003*[#  1]+
    |psi|^2 = 0.998
     e =    17.02811249 eV
     psi = 0.405*[#  1]+0.118*[#  3]+0.118*[#  4]+0.118*[#  6]+0.094*[#  2]+
          +0.094*[#  5]+
    |psi|^2 = 0.948
     e =    26.68129156 eV
     psi = 0.035*[#  1]+0.006*[#  3]+0.006*[#  4]+0.006*[#  6]+
    |psi|^2 = 0.054
     e =    30.67963598 eV
     psi = 0.017*[#  1]+0.001*[#  3]+0.001*[#  4]+0.001*[#  6]+
    |psi|^2 = 0.022

 k =   0.3333333333  0.0000000000  0.5000000000
     e =     9.96730313 eV
     psi = 0.779*[#  1]+0.044*[#  3]+0.044*[#  4]+0.044*[#  6]+0.041*[#  2]+
          +0.041*[#  5]+
    |psi|^2 = 0.994
     e =    12.41279659 eV
     psi = 0.331*[#  3]+0.331*[#  4]+0.331*[#  6]+
    |psi|^2 = 0.993
     e =    13.13018659 eV
     psi = 0.308*[#  2]+0.308*[#  5]+0.127*[#  3]+0.127*[#  4]+0.127*[#  6]+
    |psi|^2 = 0.997
     e =    14.21576344 eV
     psi = 0.470*[#  2]+0.470*[#  5]+0.027*[#  1]+0.010*[#  3]+0.010*[#  4]+
          +0.010*[#  6]+
    |psi|^2 = 0.998
     e =    14.37735985 eV
     psi = 0.333*[#  3]+0.333*[#  4]+0.333*[#  6]+
    |psi|^2 = 0.999
     e =    15.96198054 eV
     psi = 0.181*[#  1]+0.179*[#  2]+0.179*[#  5]+0.151*[#  3]+0.151*[#  4]+
          +0.151*[#  6]+
    |psi|^2 = 0.992
     e =    30.31425840 eV
     psi = 0.002*[#  3]+0.002*[#  4]+0.002*[#  6]+
    |psi|^2 = 0.007
     e =    31.15045670 eV
     psi = 0.007*[#  1]+0.001*[#  3]+0.001*[#  4]+0.001*[#  6]+
    |psi|^2 = 0.011

 k =  -0.1666666667  0.6666666667  0.0000000000
     e =    10.44616215 eV
     psi = 0.467*[#  1]+0.251*[#  2]+0.251*[#  5]+0.008*[#  3]+0.008*[#  4]+
          +0.008*[#  6]+
    |psi|^2 = 0.993
     e =    11.82213689 eV
     psi = 0.331*[#  3]+0.331*[#  4]+0.331*[#  6]+
    |psi|^2 = 0.994
     e =    13.64108329 eV
     psi = 0.185*[#  1]+0.173*[#  2]+0.173*[#  5]+0.154*[#  3]+0.154*[#  4]+
          +0.154*[#  6]+
    |psi|^2 = 0.992
     e =    14.93408015 eV
     psi = 0.333*[#  3]+0.333*[#  4]+0.333*[#  6]+
    |psi|^2 = 0.999
     e =    14.96454680 eV
     psi = 0.454*[#  2]+0.454*[#  5]+0.064*[#  1]+0.008*[#  3]+0.008*[#  4]+
          +0.008*[#  6]+
    |psi|^2 = 0.995
     e =    15.93451600 eV
     psi = 0.259*[#  1]+0.162*[#  3]+0.162*[#  4]+0.162*[#  6]+0.120*[#  2]+
          +0.120*[#  5]+
    |psi|^2 = 0.985
     e =    31.21370149 eV
     psi = 0.001*[#  3]+0.001*[#  4]+0.001*[#  6]+
    |psi|^2 = 0.004
     e =    31.46132698 eV
     psi = 0.001*[#  1]+
    |psi|^2 = 0.004

 k =   0.7500000000 -0.2500000000  0.9166666667
     e =    11.01682366 eV
     psi = 0.350*[#  2]+0.350*[#  5]+0.220*[#  1]+0.023*[#  3]+0.023*[#  4]+
          +0.023*[#  6]+
    |psi|^2 = 0.988
     e =    11.79973699 eV
     psi = 0.316*[#  3]+0.316*[#  4]+0.316*[#  6]+0.020*[#  2]+0.020*[#  5]+
    |psi|^2 = 0.990
     e =    13.44613638 eV
     psi = 0.227*[#  3]+0.227*[#  4]+0.227*[#  6]+0.136*[#  1]+0.083*[#  2]+
          +0.083*[#  5]+
    |psi|^2 = 0.985
     e =    14.75597448 eV
     psi = 0.350*[#  2]+0.350*[#  5]+0.095*[#  3]+0.095*[#  4]+0.095*[#  6]+
          +0.012*[#  1]+
    |psi|^2 = 0.996
     e =    15.36513959 eV
     psi = 0.241*[#  3]+0.241*[#  4]+0.241*[#  6]+0.137*[#  2]+0.137*[#  5]+
          +0.002*[#  1]+
    |psi|^2 = 0.998
     e =    17.49179679 eV
     psi = 0.516*[#  1]+0.093*[#  3]+0.093*[#  4]+0.093*[#  6]+0.054*[#  2]+
          +0.054*[#  5]+
    |psi|^2 = 0.903
     e =    27.58129162 eV
     psi = 0.032*[#  1]+0.003*[#  3]+0.003*[#  4]+0.003*[#  6]+
    |psi|^2 = 0.042
     e =    30.34631878 eV
     psi = 0.025*[#  1]+0.004*[#  2]+0.004*[#  5]+
    |psi|^2 = 0.034

 k =   0.6666666667 -0.1666666667  0.8333333333
     e =    11.44362129 eV
     psi = 0.348*[#  2]+0.348*[#  5]+0.074*[#  1]+0.072*[#  3]+0.072*[#  4]+
          +0.072*[#  6]+
    |psi|^2 = 0.985
     e =    11.88851184 eV
     psi = 0.251*[#  3]+0.251*[#  4]+0.251*[#  6]+0.110*[#  2]+0.110*[#  5]+
          +0.002*[#  1]+
    |psi|^2 = 0.976
     e =    13.22433914 eV
     psi = 0.291*[#  3]+0.291*[#  4]+0.291*[#  6]+0.055*[#  1]+0.022*[#  2]+
          +0.022*[#  5]+
    |psi|^2 = 0.971
     e =    14.53713866 eV
     psi = 0.411*[#  2]+0.411*[#  5]+0.059*[#  3]+0.059*[#  4]+0.059*[#  6]+
    |psi|^2 = 0.997
     e =    15.45584620 eV
     psi = 0.278*[#  3]+0.278*[#  4]+0.278*[#  6]+0.082*[#  2]+0.082*[#  5]+
    |psi|^2 = 0.999
     e =    19.74643419 eV
     psi = 0.371*[#  1]+0.036*[#  3]+0.036*[#  4]+0.036*[#  6]+0.021*[#  2]+
          +0.021*[#  5]+
    |psi|^2 = 0.520
     e =    24.17394896 eV
     psi = 0.280*[#  1]+0.012*[#  3]+0.012*[#  4]+0.012*[#  6]+
    |psi|^2 = 0.317
     e =    28.87138371 eV
     psi = 0.133*[#  1]+0.006*[#  2]+0.006*[#  5]+
    |psi|^2 = 0.146

 k =   0.5833333333 -0.0833333333  0.7500000000
     e =    11.84813733 eV
     psi = 0.202*[#  3]+0.202*[#  4]+0.202*[#  6]+0.171*[#  2]+0.171*[#  5]+
          +0.046*[#  1]+
    |psi|^2 = 0.994
     e =    11.93216280 eV
     psi = 0.315*[#  2]+0.315*[#  5]+0.100*[#  3]+0.100*[#  4]+0.100*[#  6]+
          +0.031*[#  1]+
    |psi|^2 = 0.962
     e =    12.92897370 eV
     psi = 0.322*[#  3]+0.322*[#  4]+0.322*[#  6]+
    |psi|^2 = 0.968
     e =    14.37571162 eV
     psi = 0.461*[#  2]+0.461*[#  5]+0.025*[#  3]+0.025*[#  4]+0.025*[#  6]+
    |psi|^2 = 0.999
     e =    15.28401477 eV
     psi = 0.310*[#  3]+0.310*[#  4]+0.310*[#  6]+0.035*[#  2]+0.035*[#  5]+
    |psi|^2 = 0.999
     e =    20.78088665 eV
     psi = 0.287*[#  1]+0.021*[#  3]+0.021*[#  4]+0.021*[#  6]+0.010*[#  2]+
          +0.010*[#  5]+
    |psi|^2 = 0.369
     e =    23.06385428 eV
     psi = 0.343*[#  1]+0.018*[#  3]+0.018*[#  4]+0.018*[#  6]+0.001*[#  2]+
          +0.001*[#  5]+
    |psi|^2 = 0.400
     e =    27.84768914 eV
     psi = 0.218*[#  1]+0.004*[#  2]+0.004*[#  5]+0.002*[#  3]+0.002*[#  4]+
          +0.002*[#  6]+
    |psi|^2 = 0.232

 k =   0.5000000000  0.0000000000  0.6666666667
     e =    11.72849421 eV
     psi = 0.237*[#  1]+0.168*[#  3]+0.168*[#  4]+0.168*[#  6]+0.114*[#  2]+
          +0.114*[#  5]+
    |psi|^2 = 0.970
     e =    12.31711622 eV
     psi = 0.353*[#  2]+0.353*[#  5]+0.094*[#  3]+0.094*[#  4]+0.094*[#  6]+
          +0.003*[#  1]+
    |psi|^2 = 0.992
     e =    12.55470480 eV
     psi = 0.328*[#  3]+0.328*[#  4]+0.328*[#  6]+
    |psi|^2 = 0.983
     e =    14.29746003 eV
     psi = 0.495*[#  2]+0.495*[#  5]+0.002*[#  3]+0.002*[#  4]+0.002*[#  6]+
          +0.002*[#  1]+
    |psi|^2 = 0.997
     e =    14.98431520 eV
     psi = 0.333*[#  3]+0.333*[#  4]+0.333*[#  6]+
    |psi|^2 = 0.999
     e =    18.67947800 eV
     psi = 0.568*[#  1]+0.065*[#  3]+0.065*[#  4]+0.065*[#  6]+0.035*[#  2]+
          +0.035*[#  5]+
    |psi|^2 = 0.833
     e =    25.75053438 eV
     psi = 0.006*[#  3]+0.006*[#  4]+0.006*[#  6]+
    |psi|^2 = 0.018
     e =    27.81611933 eV
     psi = 0.154*[#  1]+0.004*[#  3]+0.004*[#  4]+0.004*[#  6]+0.002*[#  2]+
          +0.002*[#  5]+
    |psi|^2 = 0.168

 k =   0.8333333333 -0.1666666667  1.0000000000
     e =    10.76714562 eV
     psi = 0.428*[#  2]+0.428*[#  5]+0.132*[#  1]+0.001*[#  4]+0.001*[#  3]+
          +0.001*[#  6]+
    |psi|^2 = 0.991
     e =    11.49244542 eV
     psi = 0.331*[#  3]+0.331*[#  4]+0.331*[#  6]+
    |psi|^2 = 0.993
     e =    14.38710874 eV
     psi = 0.256*[#  3]+0.256*[#  4]+0.256*[#  6]+0.113*[#  1]+0.043*[#  2]+
          +0.043*[#  5]+
    |psi|^2 = 0.967
     e =    15.22040034 eV
     psi = 0.477*[#  2]+0.477*[#  5]+0.010*[#  1]+0.010*[#  3]+0.010*[#  4]+
          +0.010*[#  6]+
    |psi|^2 = 0.994
     e =    15.45888284 eV
     psi = 0.333*[#  3]+0.333*[#  4]+0.333*[#  6]+
    |psi|^2 = 0.999
     e =    17.63614983 eV
     psi = 0.527*[#  1]+0.066*[#  3]+0.066*[#  4]+0.066*[#  6]+0.039*[#  2]+
          +0.039*[#  5]+
    |psi|^2 = 0.802
     e =    27.90300394 eV
     psi = 0.110*[#  1]+0.012*[#  2]+0.012*[#  5]+
    |psi|^2 = 0.134
     e =    29.79327049 eV
     psi = 0.001*[#  3]+0.001*[#  4]+0.001*[#  6]+
    |psi|^2 = 0.004

 k =   0.7500000000 -0.0833333333  0.9166666667
     e =    11.04322025 eV
     psi = 0.459*[#  2]+0.459*[#  5]+0.056*[#  1]+0.005*[#  3]+0.005*[#  4]+
          +0.005*[#  6]+
    |psi|^2 = 0.988
     e =    11.59487757 eV
     psi = 0.325*[#  3]+0.325*[#  4]+0.325*[#  6]+0.007*[#  2]+0.007*[#  5]+
    |psi|^2 = 0.989
     e =    13.97426560 eV
     psi = 0.299*[#  3]+0.299*[#  4]+0.299*[#  6]+0.031*[#  1]+0.010*[#  2]+
          +0.010*[#  5]+
    |psi|^2 = 0.949
     e =    14.97844605 eV
     psi = 0.478*[#  2]+0.478*[#  5]+0.014*[#  3]+0.014*[#  4]+0.014*[#  6]+
    |psi|^2 = 0.997
     e =    15.58114071 eV
     psi = 0.323*[#  3]+0.323*[#  4]+0.323*[#  6]+0.015*[#  2]+0.015*[#  5]+
    |psi|^2 = 0.999
     e =    19.76673658 eV
     psi = 0.265*[#  1]+0.029*[#  3]+0.029*[#  4]+0.029*[#  6]+0.011*[#  2]+
          +0.011*[#  5]+
    |psi|^2 = 0.375
     e =    26.25991801 eV
     psi = 0.065*[#  1]+0.010*[#  2]+0.010*[#  5]+
    |psi|^2 = 0.088
     e =    26.96174557 eV
     psi = 0.439*[#  1]+0.009*[#  2]+0.009*[#  5]+0.003*[#  3]+0.003*[#  4]+
          +0.003*[#  6]+
    |psi|^2 = 0.464

 k =   0.6666666667  0.0000000000  0.8333333333
     e =    11.41985469 eV
     psi = 0.458*[#  2]+0.458*[#  5]+0.019*[#  1]+0.017*[#  3]+0.017*[#  4]+
          +0.017*[#  6]+
    |psi|^2 = 0.985
     e =    11.81494813 eV
     psi = 0.306*[#  3]+0.306*[#  4]+0.306*[#  6]+0.027*[#  2]+0.027*[#  5]+
          +0.011*[#  1]+
    |psi|^2 = 0.982
     e =    13.40288195 eV
     psi = 0.319*[#  3]+0.319*[#  4]+0.319*[#  6]+
    |psi|^2 = 0.957
     e =    14.69386639 eV
     psi = 0.497*[#  2]+0.497*[#  5]+0.003*[#  1]+
    |psi|^2 = 0.999
     e =    15.46546260 eV
     psi = 0.333*[#  3]+0.333*[#  4]+0.333*[#  6]+
    |psi|^2 = 0.998
     e =    21.91227763 eV
     psi = 0.014*[#  3]+0.014*[#  4]+0.014*[#  6]+
    |psi|^2 = 0.043
     e =    23.49117642 eV
     psi = 0.185*[#  1]+0.008*[#  3]+0.008*[#  4]+0.008*[#  6]+0.002*[#  2]+
          +0.002*[#  5]+
    |psi|^2 = 0.212
     e =    26.26081157 eV
     psi = 0.660*[#  1]+0.015*[#  2]+0.015*[#  5]+0.002*[#  3]+0.002*[#  4]+
          +0.002*[#  6]+
    |psi|^2 = 0.696

 k =  -0.1666666667 -1.0000000000  0.0000000000
     e =    10.75140951 eV
     psi = 0.465*[#  2]+0.465*[#  5]+0.061*[#  1]+
    |psi|^2 = 0.992
     e =    11.37412376 eV
     psi = 0.331*[#  3]+0.331*[#  4]+0.331*[#  6]+
    |psi|^2 = 0.992
     e =    14.76544778 eV
     psi = 0.308*[#  3]+0.308*[#  4]+0.308*[#  6]+
    |psi|^2 = 0.925
     e =    15.23439719 eV
     psi = 0.499*[#  2]+0.499*[#  5]+
    |psi|^2 = 0.999
     e =    15.67341658 eV
     psi = 0.333*[#  3]+0.333*[#  4]+0.333*[#  6]+
    |psi|^2 = 0.999
     e =    19.10711983 eV
     psi = 0.025*[#  3]+0.025*[#  4]+0.025*[#  6]+
    |psi|^2 = 0.074
     e =    25.62183147 eV
     psi = 0.687*[#  1]+0.034*[#  2]+0.034*[#  5]+
    |psi|^2 = 0.754
     e =    29.26813332 eV
     psi = 0.001*[#  3]+0.001*[#  4]+0.001*[#  6]+
    |psi|^2 = 0.004

 k =   0.6666666667 -0.3333333333  1.0000000000
     e =    11.11107052 eV
     psi = 0.392*[#  1]+0.228*[#  2]+0.228*[#  5]+0.045*[#  3]+0.045*[#  4]+
          +0.045*[#  6]+
    |psi|^2 = 0.984
     e =    12.11067849 eV
     psi = 0.330*[#  3]+0.330*[#  4]+0.330*[#  6]+
    |psi|^2 = 0.991
     e =    12.86403476 eV
     psi = 0.209*[#  2]+0.209*[#  5]+0.173*[#  3]+0.173*[#  4]+0.173*[#  6]+
          +0.060*[#  1]+
    |psi|^2 = 0.996
     e =    14.59932243 eV
     psi = 0.483*[#  2]+0.483*[#  5]+0.028*[#  1]+
    |psi|^2 = 0.995
     e =    14.93812753 eV
     psi = 0.333*[#  3]+0.333*[#  4]+0.333*[#  6]+
    |psi|^2 = 0.999
     e =    17.18680786 eV
     psi = 0.456*[#  1]+0.113*[#  3]+0.113*[#  4]+0.113*[#  6]+0.077*[#  2]+
          +0.077*[#  5]+
    |psi|^2 = 0.949
     e =    28.35704632 eV
     psi = 0.003*[#  3]+0.003*[#  4]+0.003*[#  6]+
    |psi|^2 = 0.009
     e =    29.45804092 eV
     psi = 0.036*[#  1]+0.002*[#  3]+0.002*[#  4]+0.002*[#  6]+
    |psi|^2 = 0.042

 k =   0.5833333333 -0.2500000000  0.9166666667
     e =    11.63163489 eV
     psi = 0.298*[#  2]+0.298*[#  5]+0.137*[#  1]+0.081*[#  3]+0.081*[#  4]+
          +0.081*[#  6]+
    |psi|^2 = 0.976
     e =    12.15735863 eV
     psi = 0.245*[#  3]+0.245*[#  4]+0.245*[#  6]+0.122*[#  2]+0.122*[#  5]+
          +0.003*[#  1]+
    |psi|^2 = 0.982
     e =    12.69665358 eV
     psi = 0.271*[#  3]+0.271*[#  4]+0.271*[#  6]+0.058*[#  2]+0.058*[#  5]+
          +0.056*[#  1]+
    |psi|^2 = 0.986
     e =    14.43847878 eV
     psi = 0.443*[#  2]+0.443*[#  5]+0.036*[#  3]+0.036*[#  4]+0.036*[#  6]+
          +0.002*[#  1]+
    |psi|^2 = 0.995
     e =    15.26960124 eV
     psi = 0.302*[#  3]+0.302*[#  4]+0.302*[#  6]+0.045*[#  2]+0.045*[#  5]+
    |psi|^2 = 0.998
     e =    19.02553143 eV
     psi = 0.531*[#  1]+0.053*[#  3]+0.053*[#  4]+0.053*[#  6]+0.030*[#  2]+
          +0.030*[#  5]+
    |psi|^2 = 0.751
     e =    25.10622402 eV
     psi = 0.127*[#  1]+0.009*[#  3]+0.009*[#  4]+0.009*[#  6]+
    |psi|^2 = 0.154
     e =    29.30067794 eV
     psi = 0.055*[#  1]+0.001*[#  3]+0.001*[#  4]+0.001*[#  6]+0.001*[#  2]+
          +0.001*[#  5]+
    |psi|^2 = 0.062

 k =   0.5000000000 -0.1666666667  0.8333333333
     e =    11.90945895 eV
     psi = 0.483*[#  2]+0.483*[#  5]+
    |psi|^2 = 0.967
     e =    11.95601292 eV
     psi = 0.301*[#  3]+0.301*[#  4]+0.301*[#  6]+0.077*[#  1]+0.005*[#  2]+
          +0.005*[#  5]+
    |psi|^2 = 0.989
     e =    12.79670074 eV
     psi = 0.321*[#  3]+0.321*[#  4]+0.321*[#  6]+0.001*[#  2]+0.001*[#  5]+
    |psi|^2 = 0.965
     e =    14.32978774 eV
     psi = 0.442*[#  2]+0.442*[#  5]+0.038*[#  3]+0.038*[#  4]+0.038*[#  6]+
    |psi|^2 = 0.998
     e =    15.39945976 eV
     psi = 0.299*[#  3]+0.299*[#  4]+0.299*[#  6]+0.049*[#  2]+0.049*[#  5]+
          +0.003*[#  1]+
    |psi|^2 = 0.999
     e =    20.87081313 eV
     psi = 0.013*[#  2]+0.013*[#  5]+0.012*[#  3]+0.012*[#  4]+0.012*[#  6]+
    |psi|^2 = 0.061
     e =    22.67226650 eV
     psi = 0.710*[#  1]+0.028*[#  3]+0.028*[#  4]+0.028*[#  6]+0.002*[#  2]+
          +0.002*[#  5]+
    |psi|^2 = 0.799
     e =    29.79470849 eV
     psi = 0.002*[#  2]+0.002*[#  5]+
    |psi|^2 = 0.007

 k =   0.6666666667 -0.1666666667  1.0000000000
     e =    11.31624384 eV
     psi = 0.444*[#  2]+0.444*[#  5]+0.077*[#  1]+0.006*[#  3]+0.006*[#  4]+
          +0.006*[#  6]+
    |psi|^2 = 0.983
     e =    11.87993971 eV
     psi = 0.330*[#  3]+0.330*[#  4]+0.330*[#  6]+
    |psi|^2 = 0.989
     e =    13.22678631 eV
     psi = 0.275*[#  3]+0.275*[#  4]+0.275*[#  6]+0.076*[#  1]+0.037*[#  2]+
          +0.037*[#  5]+
    |psi|^2 = 0.977
     e =    14.78844862 eV
     psi = 0.485*[#  2]+0.485*[#  5]+0.008*[#  3]+0.008*[#  4]+0.008*[#  6]+
    |psi|^2 = 0.994
     e =    15.45560839 eV
     psi = 0.333*[#  3]+0.333*[#  4]+0.333*[#  6]+
    |psi|^2 = 0.998
     e =    19.38464448 eV
     psi = 0.520*[#  1]+0.043*[#  3]+0.043*[#  4]+0.043*[#  6]+0.024*[#  2]+
          +0.024*[#  5]+
    |psi|^2 = 0.696
     e =    26.99642915 eV
     psi = 0.004*[#  3]+0.004*[#  4]+0.004*[#  6]+
    |psi|^2 = 0.011
     e =    28.07626094 eV
     psi = 0.006*[#  1]+0.004*[#  2]+0.004*[#  5]+
    |psi|^2 = 0.015

 k =   0.5833333333 -0.0833333333  0.9166666667
     e =    11.55005481 eV
     psi = 0.481*[#  2]+0.481*[#  5]+0.011*[#  1]+0.003*[#  3]+0.003*[#  4]+
          +0.003*[#  6]+
    |psi|^2 = 0.980
     e =    12.09789181 eV
     psi = 0.322*[#  3]+0.322*[#  4]+0.322*[#  6]+0.009*[#  1]+0.004*[#  2]+
          +0.004*[#  5]+
    |psi|^2 = 0.983
     e =    12.91991393 eV
     psi = 0.315*[#  3]+0.315*[#  4]+0.315*[#  6]+0.015*[#  1]+0.005*[#  2]+
          +0.005*[#  5]+
    |psi|^2 = 0.970
     e =    14.55410720 eV
     psi = 0.487*[#  2]+0.487*[#  5]+0.007*[#  1]+0.006*[#  3]+0.006*[#  4]+
          +0.006*[#  6]+
    |psi|^2 = 0.998
     e =    15.56903271 eV
     psi = 0.330*[#  3]+0.330*[#  4]+0.330*[#  6]+0.004*[#  2]+0.004*[#  5]+
    |psi|^2 = 0.999
     e =    21.79515790 eV
     psi = 0.180*[#  1]+0.015*[#  3]+0.015*[#  4]+0.015*[#  6]+0.006*[#  2]+
          +0.006*[#  5]+
    |psi|^2 = 0.238
     e =    24.15537045 eV
     psi = 0.209*[#  1]+0.008*[#  3]+0.008*[#  4]+0.008*[#  6]+0.002*[#  2]+
          +0.002*[#  5]+
    |psi|^2 = 0.237
     e =    27.23924874 eV
     psi = 0.215*[#  1]+0.008*[#  2]+0.008*[#  5]+
    |psi|^2 = 0.233

 k =   0.5000000000  0.0000000000  0.8333333333
     e =    11.72430827 eV
     psi = 0.479*[#  2]+0.479*[#  5]+0.008*[#  1]+0.003*[#  3]+0.003*[#  4]+
          +0.003*[#  6]+
    |psi|^2 = 0.975
     e =    12.34015070 eV
     psi = 0.303*[#  3]+0.303*[#  4]+0.303*[#  6]+0.049*[#  1]+0.013*[#  2]+
          +0.013*[#  5]+
    |psi|^2 = 0.983
     e =    12.52798583 eV
     psi = 0.326*[#  3]+0.326*[#  4]+0.326*[#  6]+
    |psi|^2 = 0.978
     e =    14.46759816 eV
     psi = 0.490*[#  2]+0.490*[#  5]+0.005*[#  1]+0.005*[#  3]+0.005*[#  4]+
          +0.005*[#  6]+
    |psi|^2 = 0.998
     e =    15.45377958 eV
     psi = 0.333*[#  3]+0.333*[#  4]+0.333*[#  6]+
    |psi|^2 = 0.998
     e =    21.29543985 eV
     psi = 0.417*[#  1]+0.021*[#  3]+0.021*[#  4]+0.021*[#  6]+0.010*[#  2]+
          +0.010*[#  5]+
    |psi|^2 = 0.498
     e =    24.30896530 eV
     psi = 0.007*[#  3]+0.007*[#  4]+0.007*[#  6]+
    |psi|^2 = 0.022
     e =    26.99561093 eV
     psi = 0.331*[#  1]+0.005*[#  2]+0.005*[#  5]+0.002*[#  3]+0.002*[#  4]+
          +0.002*[#  6]+
    |psi|^2 = 0.349

 k =  -0.3333333333 -1.0000000000  0.0000000000
     e =    11.24662723 eV
     psi = 0.480*[#  2]+0.480*[#  5]+0.025*[#  1]+
    |psi|^2 = 0.986
     e =    11.79520270 eV
     psi = 0.329*[#  3]+0.329*[#  4]+0.329*[#  6]+
    |psi|^2 = 0.988
     e =    13.51911932 eV
     psi = 0.317*[#  3]+0.317*[#  4]+0.317*[#  6]+
    |psi|^2 = 0.952
     e =    14.77842264 eV
     psi = 0.496*[#  2]+0.496*[#  5]+0.007*[#  1]+
    |psi|^2 = 0.999
     e =    15.67407607 eV
     psi = 0.333*[#  3]+0.333*[#  4]+0.333*[#  6]+
    |psi|^2 = 0.999
     e =    21.26584297 eV
     psi = 0.016*[#  3]+0.016*[#  4]+0.016*[#  6]+
    |psi|^2 = 0.047
     e =    25.86727236 eV
     psi = 0.427*[#  1]+0.020*[#  2]+0.020*[#  5]+
    |psi|^2 = 0.466
     e =    26.49534307 eV
     psi = 0.004*[#  3]+0.004*[#  4]+0.004*[#  6]+
    |psi|^2 = 0.011

 k =  -0.5000000000 -1.0000000000  0.0000000000
     e =    11.56065926 eV
     psi = 0.491*[#  2]+0.491*[#  5]+
    |psi|^2 = 0.982
     e =    12.50941812 eV
     psi = 0.325*[#  3]+0.325*[#  4]+0.325*[#  6]+
    |psi|^2 = 0.976
     e =    12.50941812 eV
     psi = 0.325*[#  3]+0.325*[#  4]+0.325*[#  6]+
    |psi|^2 = 0.976
     e =    14.48100211 eV
     psi = 0.491*[#  2]+0.491*[#  5]+0.018*[#  1]+
    |psi|^2 = 1.000
     e =    15.67439931 eV
     psi = 0.333*[#  3]+0.333*[#  4]+0.333*[#  6]+
    |psi|^2 = 0.999
     e =    23.76600372 eV
     psi = 0.008*[#  3]+0.008*[#  4]+0.008*[#  6]+
    |psi|^2 = 0.023
     e =    23.76600372 eV
     psi = 0.008*[#  3]+0.008*[#  4]+0.008*[#  6]+
    |psi|^2 = 0.023
     e =    26.15256614 eV
     psi = 0.009*[#  2]+0.009*[#  5]+
    |psi|^2 = 0.018

Lowdin Charges: 

     Atom #   1: total charge =   9.8849, s, p, d, f =   0.9348  0.0000  8.9501
                 spin up      =   5.2271, s, p, d, f =   0.4610  0.0000  4.7661
                 spin down    =   4.6578, s, p, d, f =   0.4738  0.0000  4.1840
                 polarization =   0.5693, s, p, d, f =  -0.0128  0.0000  0.5821
     Spilling Parameter:   0.0115
