
     Program POST-PROC v.2.1    starts ...
     Today is 24Aug2004 at 17:23:27 

     Reading file ni.save ... 
     read complete

     Reading file ni.save ... 
     read complete

     nbndx  =     8  nbnd   =     8  natomwfc =     6  npwx   =     144
     nelec  =   10.00 nkb   =    18  ngl    =     104
  warning: negative or imaginary core charge    -0.000015    0.000000

     Gaussian broadening (read from input): ngauss,degauss=   1    0.020000


     Calling projwave .... 

Projection on atomic states:

     state #  1: atom   1 (Ni ), wfc  1 (l=0 m= 1)
     state #  2: atom   1 (Ni ), wfc  2 (l=2 m= 1)
     state #  3: atom   1 (Ni ), wfc  2 (l=2 m= 2)
     state #  4: atom   1 (Ni ), wfc  2 (l=2 m= 3)
     state #  5: atom   1 (Ni ), wfc  2 (l=2 m= 4)
     state #  6: atom   1 (Ni ), wfc  2 (l=2 m= 5)

 k =   0.0000000000  0.0000000000  0.0000000000
     e =   5.7491858027 eV
     psi = 0.999*[#  1]+
    |psi|^2 = 0.999
     e =  12.6853453242 eV
     psi = 0.333*[#  4]+0.333*[#  3]+0.333*[#  6]+
    |psi|^2 = 1.000
     e =  12.6853455066 eV
     psi = 0.333*[#  4]+0.333*[#  3]+0.333*[#  6]+
    |psi|^2 = 1.000
     e =  12.6853456437 eV
     psi = 0.333*[#  4]+0.333*[#  3]+0.333*[#  6]+
    |psi|^2 = 1.000
     e =  13.9842525397 eV
     psi = 0.500*[#  2]+0.500*[#  5]+
    |psi|^2 = 0.999
     e =  13.9842525704 eV
     psi = 0.500*[#  5]+0.500*[#  2]+
    |psi|^2 = 0.999
     e =  39.8748361456 eV
     psi = 
    |psi|^2 = 0.000
     e =  44.2748078006 eV
     psi = 
    |psi|^2 = 0.000

 k =  -0.0833333333  0.0833333333 -0.0833333333
     e =   6.0376193965 eV
     psi = 0.998*[#  1]+
    |psi|^2 = 0.999
     e =  12.6073870327 eV
     psi = 0.333*[#  4]+0.333*[#  3]+0.333*[#  6]+
    |psi|^2 = 1.000
     e =  12.7517245452 eV
     psi = 0.332*[#  4]+0.332*[#  3]+0.332*[#  6]+0.002*[#  2]+0.002*[#  5]+
    |psi|^2 = 1.000
     e =  12.7517249659 eV
     psi = 0.332*[#  4]+0.332*[#  3]+0.332*[#  6]+0.002*[#  2]+0.002*[#  5]+
    |psi|^2 = 1.000
     e =  13.9566712462 eV
     psi = 0.498*[#  5]+0.498*[#  2]+0.001*[#  4]+0.001*[#  3]+0.001*[#  6]+
    |psi|^2 = 0.999
     e =  13.9566712563 eV
     psi = 0.498*[#  2]+0.498*[#  5]+0.001*[#  4]+0.001*[#  3]+0.001*[#  6]+
    |psi|^2 = 0.999
     e =  38.9815937149 eV
     psi = 
    |psi|^2 = 0.000
     e =  41.7514139293 eV
     psi = 
    |psi|^2 = 0.000

 k =  -0.1666666667  0.1666666667 -0.1666666667
     e =   6.8689209661 eV
     psi = 0.989*[#  1]+0.003*[#  4]+0.003*[#  3]+0.003*[#  6]+
    |psi|^2 = 0.999
     e =  12.4284762548 eV
     psi = 0.330*[#  4]+0.330*[#  3]+0.330*[#  6]+0.009*[#  1]+
    |psi|^2 = 0.999
     e =  12.8892662487 eV
     psi = 0.313*[#  4]+0.313*[#  3]+0.313*[#  6]+0.031*[#  2]+0.031*[#  5]+
    |psi|^2 = 1.000
     e =  12.8892673232 eV
     psi = 0.313*[#  4]+0.313*[#  3]+0.313*[#  6]+0.031*[#  2]+0.031*[#  5]+
    |psi|^2 = 1.000
     e =  13.9334071315 eV
     psi = 0.469*[#  2]+0.469*[#  5]+0.020*[#  4]+0.020*[#  3]+0.020*[#  6]+
    |psi|^2 = 0.999
     e =  13.9334071485 eV
     psi = 0.469*[#  5]+0.469*[#  2]+0.020*[#  4]+0.020*[#  3]+0.020*[#  6]+
    |psi|^2 = 0.999
     e =  35.0734551288 eV
     psi = 
    |psi|^2 = 0.001
     e =  40.7662174597 eV
     psi = 
    |psi|^2 = 0.000

 k =  -0.2500000000  0.2500000000 -0.2500000000
     e =   8.1021746033 eV
     psi = 0.927*[#  1]+0.024*[#  4]+0.024*[#  3]+0.024*[#  6]+
    |psi|^2 = 0.998
     e =  12.3268062571 eV
     psi = 0.308*[#  4]+0.308*[#  3]+0.308*[#  6]+0.071*[#  1]+
    |psi|^2 = 0.995
     e =  12.9332169487 eV
     psi = 0.243*[#  4]+0.243*[#  3]+0.243*[#  6]+0.135*[#  2]+0.135*[#  5]+
    |psi|^2 = 1.000
     e =  12.9332172963 eV
     psi = 0.243*[#  4]+0.243*[#  3]+0.243*[#  6]+0.135*[#  2]+0.135*[#  5]+
    |psi|^2 = 1.000
     e =  14.0672206615 eV
     psi = 0.365*[#  2]+0.365*[#  5]+0.090*[#  4]+0.090*[#  3]+0.090*[#  6]+
    |psi|^2 = 0.999
     e =  14.0672206871 eV
     psi = 0.365*[#  5]+0.365*[#  2]+0.090*[#  4]+0.090*[#  3]+0.090*[#  6]+
    |psi|^2 = 0.999
     e =  30.6335153896 eV
     psi = 0.001*[#  4]+0.001*[#  3]+0.001*[#  6]+
    |psi|^2 = 0.005
     e =  40.0743879348 eV
     psi = 
    |psi|^2 = 0.000

 k =  -0.3333333333  0.3333333333 -0.3333333333
     e =   9.3176521110 eV
     psi = 0.662*[#  1]+0.112*[#  4]+0.112*[#  3]+0.112*[#  6]+
    |psi|^2 = 0.997
     e =  12.7139233976 eV
     psi = 0.319*[#  1]+0.216*[#  4]+0.216*[#  3]+0.216*[#  6]+
    |psi|^2 = 0.968
     e =  12.8389036437 eV
     psi = 0.231*[#  2]+0.231*[#  5]+0.179*[#  4]+0.179*[#  3]+0.179*[#  6]+
    |psi|^2 = 1.000
     e =  12.8389046027 eV
     psi = 0.231*[#  2]+0.231*[#  5]+0.179*[#  4]+0.179*[#  3]+0.179*[#  6]+
    |psi|^2 = 1.000
     e =  14.3649496133 eV
     psi = 0.269*[#  5]+0.269*[#  2]+0.154*[#  4]+0.154*[#  3]+0.154*[#  6]+
    |psi|^2 = 0.999
     e =  14.3649496266 eV
     psi = 0.269*[#  5]+0.269*[#  2]+0.154*[#  4]+0.154*[#  3]+0.154*[#  6]+
    |psi|^2 = 0.999
     e =  26.5372234729 eV
     psi = 0.014*[#  1]+0.005*[#  4]+0.005*[#  3]+0.005*[#  6]+
    |psi|^2 = 0.030
     e =  39.2229859108 eV
     psi = 
    |psi|^2 = 0.000

 k =  -0.4166666667  0.4166666667 -0.4166666667
     e =   9.9099331172 eV
     psi = 0.295*[#  1]+0.234*[#  4]+0.234*[#  3]+0.234*[#  6]+
    |psi|^2 = 0.996
     e =  12.7279059305 eV
     psi = 0.275*[#  5]+0.275*[#  2]+0.150*[#  4]+0.150*[#  3]+0.150*[#  6]+
    |psi|^2 = 1.000
     e =  12.7279065924 eV
     psi = 0.275*[#  2]+0.275*[#  5]+0.150*[#  4]+0.150*[#  3]+0.150*[#  6]+
    |psi|^2 = 1.000
     e =  13.9861770807 eV
     psi = 0.500*[#  1]+0.077*[#  4]+0.077*[#  3]+0.077*[#  6]+
    |psi|^2 = 0.730
     e =  14.6430717106 eV
     psi = 0.225*[#  5]+0.225*[#  2]+0.183*[#  4]+0.183*[#  3]+0.183*[#  6]+
    |psi|^2 = 0.999
     e =  14.6430717708 eV
     psi = 0.225*[#  5]+0.225*[#  2]+0.183*[#  4]+0.183*[#  3]+0.183*[#  6]+
    |psi|^2 = 0.999
     e =  23.1445321717 eV
     psi = 0.189*[#  1]+0.023*[#  4]+0.023*[#  3]+0.023*[#  6]+
    |psi|^2 = 0.257
     e =  38.5669405556 eV
     psi = 
    |psi|^2 = 0.000

 k =   0.5000000000 -0.5000000000  0.5000000000
     e =  10.0270600404 eV
     psi = 0.275*[#  4]+0.275*[#  3]+0.275*[#  6]+0.174*[#  1]+
    |psi|^2 = 0.998
     e =  12.6829054387 eV
     psi = 0.287*[#  2]+0.287*[#  5]+0.142*[#  4]+0.142*[#  3]+0.142*[#  6]+
    |psi|^2 = 1.000
     e =  12.6829056350 eV
     psi = 0.287*[#  2]+0.287*[#  5]+0.142*[#  4]+0.142*[#  3]+0.142*[#  6]+
    |psi|^2 = 1.000
     e =  14.7534123171 eV
     psi = 0.213*[#  5]+0.213*[#  2]+0.191*[#  4]+0.191*[#  3]+0.191*[#  6]+
    |psi|^2 = 0.999
     e =  14.7534123833 eV
     psi = 0.213*[#  5]+0.213*[#  2]+0.191*[#  4]+0.191*[#  3]+0.191*[#  6]+
    |psi|^2 = 0.999
     e =  14.9658812565 eV
     psi = 
    |psi|^2 = 0.000
     e =  21.5360141141 eV
     psi = 0.791*[#  1]+0.058*[#  4]+0.058*[#  3]+0.058*[#  6]+
    |psi|^2 = 0.966
     e =  38.3260840445 eV
     psi = 
    |psi|^2 = 0.000

 k =   0.0000000000  0.1666666667  0.0000000000
     e =   6.1331960862 eV
     psi = 0.998*[#  1]+
    |psi|^2 = 0.999
     e =  12.5396272926 eV
     psi = 0.333*[#  4]+0.333*[#  3]+0.333*[#  6]+
    |psi|^2 = 1.000
     e =  12.7993835556 eV
     psi = 0.333*[#  4]+0.333*[#  3]+0.333*[#  6]+
    |psi|^2 = 1.000
     e =  12.7993844432 eV
     psi = 0.333*[#  4]+0.333*[#  3]+0.333*[#  6]+
    |psi|^2 = 1.000
     e =  13.8502102299 eV
     psi = 0.499*[#  5]+0.499*[#  2]+
    |psi|^2 = 1.000
     e =  14.0365519319 eV
     psi = 0.500*[#  2]+0.500*[#  5]+
    |psi|^2 = 0.999
     e =  39.3164223988 eV
     psi = 
    |psi|^2 = 0.000
     e =  42.0877695244 eV
     psi = 
    |psi|^2 = 0.000

 k =  -0.0833333333  0.2500000000 -0.0833333333
     e =   6.7828361001 eV
     psi = 0.992*[#  1]+0.001*[#  5]+0.001*[#  2]+0.001*[#  4]+0.001*[#  3]+
          +0.001*[#  6]+
    |psi|^2 = 0.999
     e =  12.3628867682 eV
     psi = 0.333*[#  4]+0.333*[#  3]+0.333*[#  6]+0.001*[#  1]+
    |psi|^2 = 0.999
     e =  12.9363452914 eV
     psi = 0.322*[#  4]+0.322*[#  3]+0.322*[#  6]+0.017*[#  2]+0.017*[#  5]+
          +0.001*[#  1]+
    |psi|^2 = 1.000
     e =  12.9441913616 eV
     psi = 0.324*[#  4]+0.324*[#  3]+0.324*[#  6]+0.014*[#  2]+0.014*[#  5]+
    |psi|^2 = 1.000
     e =  13.7359050581 eV
     psi = 0.482*[#  5]+0.482*[#  2]+0.011*[#  4]+0.011*[#  3]+0.011*[#  6]+
          +0.004*[#  1]+
    |psi|^2 = 1.000
     e =  14.0830724198 eV
     psi = 0.486*[#  5]+0.486*[#  2]+0.009*[#  4]+0.009*[#  3]+0.009*[#  6]+
    |psi|^2 = 0.999
     e =  36.7375919785 eV
     psi = 
    |psi|^2 = 0.001
     e =  40.0525861709 eV
     psi = 
    |psi|^2 = 0.000

 k =  -0.1666666667  0.3333333333 -0.1666666667
     e =   7.8918510634 eV
     psi = 0.954*[#  1]+0.012*[#  4]+0.012*[#  3]+0.012*[#  6]+0.004*[#  5]+
          +0.004*[#  2]+
    |psi|^2 = 0.998
     e =  12.1902616217 eV
     psi = 0.325*[#  4]+0.325*[#  3]+0.325*[#  6]+0.021*[#  1]+
    |psi|^2 = 0.997
     e =  12.9698485946 eV
     psi = 0.232*[#  4]+0.232*[#  3]+0.232*[#  6]+0.152*[#  2]+0.152*[#  5]+
          +0.002*[#  1]+
    |psi|^2 = 1.000
     e =  13.0417032746 eV
     psi = 0.274*[#  4]+0.274*[#  3]+0.274*[#  6]+0.089*[#  2]+0.089*[#  5]+
    |psi|^2 = 1.000
     e =  13.8398624082 eV
     psi = 0.343*[#  5]+0.343*[#  2]+0.097*[#  4]+0.097*[#  3]+0.097*[#  6]+
          +0.021*[#  1]+
    |psi|^2 = 0.999
     e =  14.2058563256 eV
     psi = 0.410*[#  2]+0.410*[#  5]+0.060*[#  4]+0.060*[#  3]+0.060*[#  6]+
    |psi|^2 = 0.999
     e =  32.2749350368 eV
     psi = 
    |psi|^2 = 0.003
     e =  39.3325278399 eV
     psi = 
    |psi|^2 = 0.000

 k =  -0.2500000000  0.4166666667 -0.2500000000
     e =   9.1643448792 eV
     psi = 0.770*[#  1]+0.069*[#  4]+0.069*[#  3]+0.069*[#  6]+0.009*[#  5]+
          +0.009*[#  2]+
    |psi|^2 = 0.997
     e =  12.2728296354 eV
     psi = 0.273*[#  4]+0.273*[#  3]+0.273*[#  6]+0.139*[#  1]+0.015*[#  2]+
          +0.015*[#  5]+
    |psi|^2 = 0.988
     e =  12.8137669001 eV
     psi = 0.259*[#  2]+0.259*[#  5]+0.161*[#  4]+0.161*[#  3]+0.161*[#  6]+
    |psi|^2 = 1.000
     e =  12.9963305239 eV
     psi = 0.205*[#  4]+0.205*[#  3]+0.205*[#  6]+0.193*[#  2]+0.193*[#  5]+
    |psi|^2 = 1.000
     e =  14.3029726263 eV
     psi = 0.216*[#  5]+0.216*[#  2]+0.161*[#  4]+0.161*[#  3]+0.161*[#  6]+
          +0.081*[#  1]+
    |psi|^2 = 0.996
     e =  14.4537375902 eV
     psi = 0.307*[#  2]+0.307*[#  5]+0.129*[#  4]+0.129*[#  3]+0.129*[#  6]+
    |psi|^2 = 0.999
     e =  28.0204068311 eV
     psi = 0.006*[#  1]+0.003*[#  4]+0.003*[#  3]+0.003*[#  6]+
    |psi|^2 = 0.015
     e =  38.5691407606 eV
     psi = 
    |psi|^2 = 0.000

 k =  -0.3333333333  0.5000000000 -0.3333333333
     e =   9.9699855402 eV
     psi = 0.380*[#  1]+0.201*[#  4]+0.201*[#  3]+0.201*[#  6]+0.007*[#  5]+
          +0.007*[#  2]+
    |psi|^2 = 0.996
     e =  12.6321548900 eV
     psi = 0.339*[#  2]+0.339*[#  5]+0.101*[#  4]+0.101*[#  3]+0.101*[#  6]+
          +0.013*[#  1]+
    |psi|^2 = 0.993
     e =  12.8848740949 eV
     psi = 0.258*[#  2]+0.258*[#  5]+0.161*[#  4]+0.161*[#  3]+0.161*[#  6]+
    |psi|^2 = 1.000
     e =  12.9785799675 eV
     psi = 0.260*[#  1]+0.213*[#  4]+0.213*[#  3]+0.213*[#  6]+0.018*[#  5]+
          +0.018*[#  2]+
    |psi|^2 = 0.933
     e =  14.6889918336 eV
     psi = 0.242*[#  5]+0.242*[#  2]+0.172*[#  4]+0.172*[#  3]+0.172*[#  6]+
    |psi|^2 = 0.999
     e =  15.0791849908 eV
     psi = 0.248*[#  1]+0.139*[#  4]+0.139*[#  3]+0.139*[#  6]+0.137*[#  5]+
          +0.137*[#  2]+
    |psi|^2 = 0.939
     e =  24.3009857962 eV
     psi = 0.086*[#  1]+0.013*[#  4]+0.013*[#  3]+0.013*[#  6]+
    |psi|^2 = 0.124
     e =  37.8075187265 eV
     psi = 
    |psi|^2 = 0.000

 k =   0.5833333333 -0.4166666667  0.5833333333
     e =  10.1841322730 eV
     psi = 0.273*[#  4]+0.273*[#  3]+0.273*[#  6]+0.177*[#  1]+
    |psi|^2 = 0.997
     e =  12.5573917220 eV
     psi = 0.331*[#  2]+0.331*[#  5]+0.110*[#  4]+0.110*[#  3]+0.110*[#  6]+
    |psi|^2 = 0.993
     e =  12.8050597239 eV
     psi = 0.288*[#  2]+0.288*[#  5]+0.141*[#  4]+0.141*[#  3]+0.141*[#  6]+
    |psi|^2 = 1.000
     e =  13.6602708997 eV
     psi = 0.181*[#  4]+0.181*[#  3]+0.181*[#  6]+0.104*[#  5]+0.104*[#  2]+
          +0.037*[#  1]+
    |psi|^2 = 0.786
     e =  14.7606686229 eV
     psi = 0.211*[#  2]+0.211*[#  5]+0.192*[#  4]+0.192*[#  3]+0.192*[#  6]+
    |psi|^2 = 0.999
     e =  16.1183596584 eV
     psi = 0.097*[#  1]+0.064*[#  5]+0.064*[#  2]+0.054*[#  4]+0.054*[#  3]+
          +0.054*[#  6]+
    |psi|^2 = 0.388
     e =  21.8005150292 eV
     psi = 0.653*[#  1]+0.048*[#  4]+0.048*[#  3]+0.048*[#  6]+
    |psi|^2 = 0.797
     e =  37.1462788564 eV
     psi = 
    |psi|^2 = 0.001

 k =   0.5000000000 -0.3333333333  0.5000000000
     e =  10.1548752850 eV
     psi = 0.260*[#  4]+0.260*[#  3]+0.260*[#  6]+0.216*[#  1]+
    |psi|^2 = 0.997
     e =  12.5912095480 eV
     psi = 0.312*[#  2]+0.312*[#  5]+0.123*[#  4]+0.123*[#  3]+0.123*[#  6]+
          +0.002*[#  1]+
    |psi|^2 = 0.996
     e =  12.8072140762 eV
     psi = 0.295*[#  2]+0.295*[#  5]+0.136*[#  4]+0.136*[#  3]+0.136*[#  6]+
    |psi|^2 = 1.000
     e =  13.5661173425 eV
     psi = 0.165*[#  4]+0.165*[#  3]+0.165*[#  6]+0.127*[#  1]+0.098*[#  5]+
          +0.098*[#  2]+
    |psi|^2 = 0.818
     e =  14.6094699750 eV
     psi = 0.204*[#  5]+0.204*[#  2]+0.197*[#  4]+0.197*[#  3]+0.197*[#  6]+
    |psi|^2 = 0.999
     e =  15.8808489154 eV
     psi = 0.242*[#  1]+0.089*[#  2]+0.089*[#  5]+0.084*[#  4]+0.084*[#  3]+
          +0.084*[#  6]+
    |psi|^2 = 0.673
     e =  22.4066127649 eV
     psi = 0.386*[#  1]+0.033*[#  4]+0.033*[#  3]+0.033*[#  6]+
    |psi|^2 = 0.487
     e =  36.6989448883 eV
     psi = 0.002*[#  1]+
    |psi|^2 = 0.003

 k =   0.4166666667 -0.2500000000  0.4166666667
     e =   9.7927555891 eV
     psi = 0.511*[#  1]+0.159*[#  4]+0.159*[#  3]+0.159*[#  6]+0.004*[#  2]+
          +0.004*[#  5]+
    |psi|^2 = 0.996
     e =  12.7094985846 eV
     psi = 0.228*[#  4]+0.228*[#  3]+0.228*[#  6]+0.134*[#  2]+0.134*[#  5]+
          +0.043*[#  1]+
    |psi|^2 = 0.994
     e =  12.7446017422 eV
     psi = 0.243*[#  1]+0.170*[#  5]+0.170*[#  2]+0.125*[#  4]+0.125*[#  3]+
          +0.125*[#  6]+
    |psi|^2 = 0.960
     e =  12.8959724961 eV
     psi = 0.274*[#  2]+0.274*[#  5]+0.150*[#  4]+0.150*[#  3]+0.150*[#  6]+
    |psi|^2 = 1.000
     e =  14.2802745281 eV
     psi = 0.226*[#  5]+0.226*[#  2]+0.183*[#  4]+0.183*[#  3]+0.183*[#  6]+
    |psi|^2 = 0.999
     e =  15.0459211242 eV
     psi = 0.192*[#  2]+0.192*[#  5]+0.158*[#  1]+0.146*[#  4]+0.146*[#  3]+
          +0.146*[#  6]+
    |psi|^2 = 0.980
     e =  25.4664587143 eV
     psi = 0.036*[#  1]+0.008*[#  4]+0.008*[#  3]+0.008*[#  6]+
    |psi|^2 = 0.060
     e =  36.5872557031 eV
     psi = 
    |psi|^2 = 0.001

 k =   0.3333333333 -0.1666666667  0.3333333333
     e =   8.7616947210 eV
     psi = 0.863*[#  1]+0.042*[#  4]+0.042*[#  3]+0.042*[#  6]+0.004*[#  2]+
          +0.004*[#  5]+
    |psi|^2 = 0.998
     e =  12.2308108997 eV
     psi = 0.303*[#  4]+0.303*[#  3]+0.303*[#  6]+0.080*[#  1]+0.002*[#  5]+
          +0.002*[#  2]+
    |psi|^2 = 0.993
     e =  12.8745484509 eV
     psi = 0.206*[#  2]+0.206*[#  5]+0.193*[#  4]+0.193*[#  3]+0.193*[#  6]+
          +0.008*[#  1]+
    |psi|^2 = 0.999
     e =  13.0198159130 eV
     psi = 0.207*[#  4]+0.207*[#  3]+0.207*[#  6]+0.190*[#  2]+0.190*[#  5]+
    |psi|^2 = 1.000
     e =  13.9083568970 eV
     psi = 0.310*[#  5]+0.310*[#  2]+0.127*[#  4]+0.127*[#  3]+0.127*[#  6]+
    |psi|^2 = 0.999
     e =  14.5272382987 eV
     psi = 0.288*[#  5]+0.288*[#  2]+0.126*[#  4]+0.126*[#  3]+0.126*[#  6]+
          +0.044*[#  1]+
    |psi|^2 = 0.998
     e =  29.4010406624 eV
     psi = 0.002*[#  1]+0.002*[#  4]+0.002*[#  3]+0.002*[#  6]+
    |psi|^2 = 0.008
     e =  36.8644669328 eV
     psi = 
    |psi|^2 = 0.001

 k =   0.2500000000 -0.0833333333  0.2500000000
     e =   7.4835873627 eV
     psi = 0.975*[#  1]+0.007*[#  4]+0.007*[#  3]+0.007*[#  6]+0.001*[#  2]+
          +0.001*[#  5]+
    |psi|^2 = 0.999
     e =  12.2750881071 eV
     psi = 0.330*[#  4]+0.330*[#  3]+0.330*[#  6]+0.008*[#  1]+
    |psi|^2 = 0.998
     e =  12.9468799442 eV
     psi = 0.267*[#  4]+0.267*[#  3]+0.267*[#  6]+0.096*[#  2]+0.096*[#  5]+
          +0.006*[#  1]+
    |psi|^2 = 1.000
     e =  13.0162880428 eV
     psi = 0.310*[#  4]+0.310*[#  3]+0.310*[#  6]+0.035*[#  2]+0.035*[#  5]+
    |psi|^2 = 1.000
     e =  13.7304318107 eV
     psi = 0.465*[#  2]+0.465*[#  5]+0.023*[#  4]+0.023*[#  3]+0.023*[#  6]+
    |psi|^2 = 1.000
     e =  14.1862011532 eV
     psi = 0.402*[#  5]+0.402*[#  2]+0.062*[#  4]+0.062*[#  3]+0.062*[#  6]+
          +0.010*[#  1]+
    |psi|^2 = 0.999
     e =  33.7617778621 eV
     psi = 
    |psi|^2 = 0.002
     e =  37.5038053747 eV
     psi = 
    |psi|^2 = 0.000

 k =   0.1666666667  0.0000000000  0.1666666667
     e =   6.5076468179 eV
     psi = 0.996*[#  1]+
    |psi|^2 = 0.999
     e =  12.4705017849 eV
     psi = 0.333*[#  4]+0.333*[#  3]+0.333*[#  6]+
    |psi|^2 = 0.999
     e =  12.8501349092 eV
     psi = 0.333*[#  4]+0.333*[#  3]+0.333*[#  6]+
    |psi|^2 = 1.000
     e =  12.8672913010 eV
     psi = 0.320*[#  4]+0.320*[#  3]+0.320*[#  6]+0.019*[#  2]+0.019*[#  5]+
          +0.002*[#  1]+
    |psi|^2 = 1.000
     e =  13.8221969444 eV
     psi = 0.500*[#  2]+0.500*[#  5]+
    |psi|^2 = 1.000
     e =  14.0311977803 eV
     psi = 0.481*[#  5]+0.481*[#  2]+0.012*[#  4]+0.012*[#  3]+0.012*[#  6]+
          +0.001*[#  1]+
    |psi|^2 = 0.999
     e =  37.7039958890 eV
     psi = 
    |psi|^2 = 0.001
     e =  39.0398511826 eV
     psi = 
    |psi|^2 = 0.000

 k =   0.0000000000  0.3333333333  0.0000000000
     e =   7.2302789145 eV
     psi = 0.984*[#  1]+0.007*[#  2]+0.007*[#  5]+
    |psi|^2 = 0.999
     e =  12.1511903391 eV
     psi = 0.333*[#  4]+0.333*[#  3]+0.333*[#  6]+
    |psi|^2 = 0.999
     e =  13.1305347916 eV
     psi = 0.333*[#  4]+0.333*[#  3]+0.333*[#  6]+
    |psi|^2 = 1.000
     e =  13.1305348191 eV
     psi = 0.333*[#  4]+0.333*[#  3]+0.333*[#  6]+
    |psi|^2 = 1.000
     e =  13.5220513713 eV
     psi = 0.493*[#  2]+0.493*[#  5]+0.014*[#  1]+
    |psi|^2 = 1.000
     e =  14.1806325205 eV
     psi = 0.500*[#  2]+0.500*[#  5]+
    |psi|^2 = 0.999
     e =  38.2950362536 eV
     psi = 
    |psi|^2 = 0.001
     e =  38.7732271816 eV
     psi = 
    |psi|^2 = 0.000

 k =  -0.0833333333  0.4166666667 -0.0833333333
     e =   8.1432953507 eV
     psi = 0.943*[#  1]+0.022*[#  2]+0.022*[#  5]+0.004*[#  4]+0.004*[#  3]+
          +0.004*[#  6]+
    |psi|^2 = 0.998
     e =  11.9223075315 eV
     psi = 0.332*[#  4]+0.332*[#  3]+0.332*[#  6]+0.001*[#  1]+
    |psi|^2 = 0.998
     e =  13.0971474346 eV
     psi = 0.248*[#  2]+0.248*[#  5]+0.166*[#  4]+0.166*[#  3]+0.166*[#  6]+
          +0.007*[#  1]+
    |psi|^2 = 1.000
     e =  13.3129914174 eV
     psi = 0.307*[#  4]+0.307*[#  3]+0.307*[#  6]+0.039*[#  2]+0.039*[#  5]+
    |psi|^2 = 1.000
     e =  13.6810782731 eV
     psi = 0.229*[#  5]+0.229*[#  2]+0.165*[#  4]+0.165*[#  3]+0.165*[#  6]+
          +0.046*[#  1]+
    |psi|^2 = 0.999
     e =  14.3008289129 eV
     psi = 0.460*[#  2]+0.460*[#  5]+0.026*[#  4]+0.026*[#  3]+0.026*[#  6]+
    |psi|^2 = 0.999
     e =  34.2735951140 eV
     psi = 
    |psi|^2 = 0.001
     e =  37.4012623183 eV
     psi = 
    |psi|^2 = 0.000

 k =  -0.1666666667  0.5000000000 -0.1666666667
     e =   9.3155385298 eV
     psi = 0.796*[#  1]+0.053*[#  5]+0.053*[#  2]+0.032*[#  4]+0.032*[#  3]+
          +0.032*[#  6]+
    |psi|^2 = 0.997
     e =  11.8011303790 eV
     psi = 0.314*[#  4]+0.314*[#  3]+0.314*[#  6]+0.027*[#  1]+0.014*[#  2]+
          +0.014*[#  5]+
    |psi|^2 = 0.995
     e =  12.8050166849 eV
     psi = 0.285*[#  2]+0.285*[#  5]+0.137*[#  4]+0.137*[#  3]+0.137*[#  6]+
          +0.019*[#  1]+
    |psi|^2 = 0.999
     e =  13.3439414096 eV
     psi = 0.233*[#  4]+0.233*[#  3]+0.233*[#  6]+0.150*[#  2]+0.150*[#  5]+
    |psi|^2 = 1.000
     e =  14.3777778697 eV
     psi = 0.182*[#  4]+0.182*[#  3]+0.182*[#  6]+0.152*[#  1]+0.149*[#  5]+
          +0.149*[#  2]+
    |psi|^2 = 0.995
     e =  14.5200334423 eV
     psi = 0.349*[#  2]+0.349*[#  5]+0.100*[#  4]+0.100*[#  3]+0.100*[#  6]+
    |psi|^2 = 0.999
     e =  29.9051367753 eV
     psi = 0.002*[#  1]+0.001*[#  4]+0.001*[#  3]+0.001*[#  6]+
    |psi|^2 = 0.007
     e =  36.5926013996 eV
     psi = 
    |psi|^2 = 0.000

 k =  -0.2500000000  0.5833333333 -0.2500000000
     e =  10.2449627721 eV
     psi = 0.439*[#  1]+0.143*[#  4]+0.143*[#  3]+0.143*[#  6]+0.063*[#  5]+
          +0.063*[#  2]+
    |psi|^2 = 0.994
     e =  11.9808405783 eV
     psi = 0.184*[#  4]+0.184*[#  3]+0.184*[#  6]+0.169*[#  2]+0.169*[#  5]+
          +0.090*[#  1]+
    |psi|^2 = 0.979
     e =  12.6088337548 eV
     psi = 0.202*[#  4]+0.202*[#  3]+0.202*[#  6]+0.167*[#  2]+0.167*[#  5]+
          +0.056*[#  1]+
    |psi|^2 = 0.997
     e =  13.2544786839 eV
     psi = 0.240*[#  2]+0.240*[#  5]+0.173*[#  4]+0.173*[#  3]+0.173*[#  6]+
    |psi|^2 = 1.000
     e =  14.7329715729 eV
     psi = 0.259*[#  5]+0.259*[#  2]+0.160*[#  4]+0.160*[#  3]+0.160*[#  6]+
    |psi|^2 = 0.999
     e =  15.5274938043 eV
     psi = 0.363*[#  1]+0.132*[#  4]+0.132*[#  3]+0.132*[#  6]+0.099*[#  5]+
          +0.099*[#  2]+
    |psi|^2 = 0.956
     e =  25.9266330671 eV
     psi = 0.038*[#  1]+0.006*[#  4]+0.006*[#  3]+0.006*[#  6]+
    |psi|^2 = 0.057
     e =  35.4483197897 eV
     psi = 0.002*[#  1]+
    |psi|^2 = 0.003

 k =   0.6666666667 -0.3333333333  0.6666666667
     e =  10.5750922683 eV
     psi = 0.260*[#  4]+0.260*[#  3]+0.260*[#  6]+0.175*[#  1]+0.021*[#  5]+
          +0.021*[#  2]+
    |psi|^2 = 0.996
     e =  12.1599487756 eV
     psi = 0.431*[#  5]+0.431*[#  2]+0.032*[#  4]+0.032*[#  3]+0.032*[#  6]+
          +0.009*[#  1]+
    |psi|^2 = 0.968
     e =  12.8093045210 eV
     psi = 0.291*[#  4]+0.291*[#  3]+0.291*[#  6]+0.065*[#  1]+0.002*[#  5]+
          +0.002*[#  2]+
    |psi|^2 = 0.942
     e =  13.1517361736 eV
     psi = 0.293*[#  2]+0.293*[#  5]+0.138*[#  4]+0.138*[#  3]+0.138*[#  6]+
    |psi|^2 = 1.000
     e =  14.7808080180 eV
     psi = 0.207*[#  5]+0.207*[#  2]+0.195*[#  4]+0.195*[#  3]+0.195*[#  6]+
    |psi|^2 = 0.999
     e =  17.1646438235 eV
     psi = 0.320*[#  1]+0.055*[#  4]+0.055*[#  3]+0.055*[#  6]+0.046*[#  5]+
          +0.046*[#  2]+
    |psi|^2 = 0.579
     e =  22.6981845299 eV
     psi = 0.388*[#  1]+0.027*[#  4]+0.027*[#  3]+0.027*[#  6]+
    |psi|^2 = 0.468
     e =  34.0424124269 eV
     psi = 0.012*[#  1]+
    |psi|^2 = 0.013

 k =   0.5833333333 -0.2500000000  0.5833333333
     e =  10.6343317517 eV
     psi = 0.283*[#  4]+0.283*[#  3]+0.283*[#  6]+0.148*[#  1]+
    |psi|^2 = 0.996
     e =  12.2216850280 eV
     psi = 0.421*[#  2]+0.421*[#  5]+0.044*[#  4]+0.044*[#  3]+0.044*[#  6]+
          +0.004*[#  1]+
    |psi|^2 = 0.978
     e =  12.9188528189 eV
     psi = 0.268*[#  4]+0.268*[#  3]+0.268*[#  6]+0.044*[#  5]+0.044*[#  2]+
          +0.010*[#  1]+
    |psi|^2 = 0.902
     e =  13.1052218844 eV
     psi = 0.322*[#  2]+0.322*[#  5]+0.119*[#  4]+0.119*[#  3]+0.119*[#  6]+
    |psi|^2 = 1.000
     e =  14.5999953594 eV
     psi = 0.214*[#  4]+0.214*[#  3]+0.214*[#  6]+0.178*[#  5]+0.178*[#  2]+
    |psi|^2 = 0.999
     e =  17.7087730791 eV
     psi = 0.147*[#  1]+0.034*[#  5]+0.034*[#  2]+0.032*[#  4]+0.032*[#  3]+
          +0.032*[#  6]+
    |psi|^2 = 0.312
     e =  22.0220783693 eV
     psi = 0.634*[#  1]+0.039*[#  4]+0.039*[#  3]+0.039*[#  6]+
    |psi|^2 = 0.751
     e =  33.0196091987 eV
     psi = 0.021*[#  1]+
    |psi|^2 = 0.022

 k =   0.5000000000 -0.1666666667  0.5000000000
     e =  10.4896274353 eV
     psi = 0.338*[#  1]+0.212*[#  4]+0.212*[#  3]+0.212*[#  6]+0.010*[#  2]+
          +0.010*[#  5]+
    |psi|^2 = 0.993
     e =  12.3945519757 eV
     psi = 0.386*[#  5]+0.386*[#  2]+0.062*[#  4]+0.062*[#  3]+0.062*[#  6]+
          +0.028*[#  1]+
    |psi|^2 = 0.987
     e =  12.4814325615 eV
     psi = 0.278*[#  4]+0.278*[#  3]+0.278*[#  6]+0.111*[#  1]+0.011*[#  5]+
          +0.011*[#  2]+
    |psi|^2 = 0.966
     e =  13.1459483035 eV
     psi = 0.334*[#  2]+0.334*[#  5]+0.111*[#  4]+0.111*[#  3]+0.111*[#  6]+
    |psi|^2 = 1.000
     e =  14.2314468275 eV
     psi = 0.222*[#  4]+0.222*[#  3]+0.222*[#  6]+0.166*[#  5]+0.166*[#  2]+
    |psi|^2 = 0.999
     e =  16.3514844827 eV
     psi = 0.414*[#  1]+0.104*[#  4]+0.104*[#  3]+0.104*[#  6]+0.093*[#  2]+
          +0.093*[#  5]+
    |psi|^2 = 0.911
     e =  24.7824837156 eV
     psi = 0.085*[#  1]+0.010*[#  4]+0.010*[#  3]+0.010*[#  6]+
    |psi|^2 = 0.115
     e =  32.4936844246 eV
     psi = 0.010*[#  1]+
    |psi|^2 = 0.012

 k =   0.4166666667 -0.0833333333  0.4166666667
     e =   9.7553968739 eV
     psi = 0.734*[#  1]+0.076*[#  4]+0.076*[#  3]+0.076*[#  6]+0.017*[#  2]+
          +0.017*[#  5]+
    |psi|^2 = 0.995
     e =  12.0412383085 eV
     psi = 0.314*[#  4]+0.314*[#  3]+0.314*[#  6]+0.040*[#  1]+0.005*[#  5]+
          +0.005*[#  2]+
    |psi|^2 = 0.993
     e =  12.6478323192 eV
     psi = 0.293*[#  2]+0.293*[#  5]+0.132*[#  4]+0.132*[#  3]+0.132*[#  6]+
          +0.015*[#  1]+
    |psi|^2 = 0.997
     e =  13.2700925543 eV
     psi = 0.306*[#  2]+0.306*[#  5]+0.130*[#  4]+0.130*[#  3]+0.130*[#  6]+
    |psi|^2 = 1.000
     e =  13.7836759521 eV
     psi = 0.204*[#  4]+0.204*[#  3]+0.204*[#  6]+0.194*[#  5]+0.194*[#  2]+
    |psi|^2 = 1.000
     e =  15.3106978993 eV
     psi = 0.196*[#  1]+0.185*[#  2]+0.185*[#  5]+0.141*[#  4]+0.141*[#  3]+
          +0.141*[#  6]+
    |psi|^2 = 0.991
     e =  28.5708099673 eV
     psi = 0.006*[#  1]+0.002*[#  4]+0.002*[#  3]+0.002*[#  6]+
    |psi|^2 = 0.014
     e =  32.4911838314 eV
     psi = 0.003*[#  1]+
    |psi|^2 = 0.005

 k =   0.3333333333  0.0000000000  0.3333333333
     e =   8.5396162886 eV
     psi = 0.924*[#  1]+0.020*[#  4]+0.020*[#  3]+0.020*[#  6]+0.007*[#  2]+
          +0.007*[#  5]+
    |psi|^2 = 0.998
     e =  12.0720057768 eV
     psi = 0.332*[#  4]+0.332*[#  3]+0.332*[#  6]+
    |psi|^2 = 0.997
     e =  12.8704336997 eV
     psi = 0.205*[#  5]+0.205*[#  2]+0.192*[#  4]+0.192*[#  3]+0.192*[#  6]+
          +0.013*[#  1]+
    |psi|^2 = 0.999
     e =  13.2917009510 eV
     psi = 0.333*[#  4]+0.333*[#  3]+0.333*[#  6]+
    |psi|^2 = 1.000
     e =  13.5346624894 eV
     psi = 0.500*[#  2]+0.500*[#  5]+
    |psi|^2 = 1.000
     e =  14.6308965840 eV
     psi = 0.287*[#  5]+0.287*[#  2]+0.121*[#  4]+0.121*[#  3]+0.121*[#  6]+
          +0.060*[#  1]+
    |psi|^2 = 0.998
     e =  32.5239585499 eV
     psi = 
    |psi|^2 = 0.003
     e =  33.2897656134 eV
     psi = 
    |psi|^2 = 0.002

 k =   0.0000000000  0.5000000000  0.0000000000
     e =   8.7855889607 eV
     psi = 0.865*[#  1]+0.066*[#  5]+0.066*[#  2]+
    |psi|^2 = 0.997
     e =  11.6432824857 eV
     psi = 0.333*[#  4]+0.333*[#  3]+0.333*[#  6]+
    |psi|^2 = 0.998
     e =  13.3074669780 eV
     psi = 0.433*[#  2]+0.433*[#  5]+0.131*[#  1]+
    |psi|^2 = 0.998
     e =  13.6369282793 eV
     psi = 0.333*[#  4]+0.333*[#  3]+0.333*[#  6]+
    |psi|^2 = 0.999
     e =  13.6369283151 eV
     psi = 0.333*[#  4]+0.333*[#  3]+0.333*[#  6]+
    |psi|^2 = 0.999
     e =  14.3803709931 eV
     psi = 0.499*[#  2]+0.499*[#  5]+
    |psi|^2 = 0.999
     e =  35.6926996566 eV
     psi = 
    |psi|^2 = 0.000
     e =  35.6926998773 eV
     psi = 
    |psi|^2 = 0.000

 k =  -0.0833333333  0.5833333333 -0.0833333333
     e =   9.6383713035 eV
     psi = 0.673*[#  1]+0.152*[#  2]+0.152*[#  5]+0.006*[#  4]+0.006*[#  3]+
          +0.006*[#  6]+
    |psi|^2 = 0.996
     e =  11.4315469400 eV
     psi = 0.331*[#  4]+0.331*[#  3]+0.331*[#  6]+0.002*[#  2]+0.002*[#  5]+
          +0.001*[#  1]+
    |psi|^2 = 0.997
     e =  13.1394475933 eV
     psi = 0.249*[#  2]+0.249*[#  5]+0.149*[#  1]+0.117*[#  4]+0.117*[#  3]+
          +0.117*[#  6]+
    |psi|^2 = 0.997
     e =  13.8065390041 eV
     psi = 0.275*[#  4]+0.275*[#  3]+0.275*[#  6]+0.087*[#  2]+0.087*[#  5]+
    |psi|^2 = 0.999
     e =  14.3517109275 eV
     psi = 0.211*[#  4]+0.211*[#  3]+0.211*[#  6]+0.170*[#  1]+0.096*[#  5]+
          +0.096*[#  2]+
    |psi|^2 = 0.995
     e =  14.5504628759 eV
     psi = 0.413*[#  5]+0.413*[#  2]+0.058*[#  4]+0.058*[#  3]+0.058*[#  6]+
    |psi|^2 = 0.999
     e =  32.0296356485 eV
     psi = 
    |psi|^2 = 0.003
     e =  34.5166905466 eV
     psi = 
    |psi|^2 = 0.002

 k =  -0.1666666667  0.6666666667 -0.1666666667
     e =  10.3993065786 eV
     psi = 0.373*[#  1]+0.240*[#  5]+0.240*[#  2]+0.047*[#  4]+0.047*[#  3]+
          +0.047*[#  6]+
    |psi|^2 = 0.993
     e =  11.3850887356 eV
     psi = 0.295*[#  4]+0.295*[#  3]+0.295*[#  6]+0.048*[#  2]+0.048*[#  5]+
          +0.013*[#  1]+
    |psi|^2 = 0.993
     e =  12.9024798557 eV
     psi = 0.198*[#  4]+0.198*[#  3]+0.198*[#  6]+0.138*[#  1]+0.132*[#  2]+
          +0.132*[#  5]+
    |psi|^2 = 0.995
     e =  13.7689243608 eV
     psi = 0.219*[#  2]+0.219*[#  5]+0.187*[#  4]+0.187*[#  3]+0.187*[#  6]+
    |psi|^2 = 0.999
     e =  14.7611688450 eV
     psi = 0.280*[#  2]+0.280*[#  5]+0.146*[#  4]+0.146*[#  3]+0.146*[#  6]+
    |psi|^2 = 0.999
     e =  15.7497878902 eV
     psi = 0.437*[#  1]+0.124*[#  4]+0.124*[#  3]+0.124*[#  6]+0.078*[#  5]+
          +0.078*[#  2]+
    |psi|^2 = 0.967
     e =  27.9962915737 eV
     psi = 0.016*[#  1]+0.002*[#  4]+0.002*[#  3]+0.002*[#  6]+
    |psi|^2 = 0.023
     e =  32.4872132114 eV
     psi = 0.008*[#  1]+0.002*[#  5]+0.002*[#  2]+
    |psi|^2 = 0.012

 k =   0.7500000000 -0.2500000000  0.7500000000
     e =  10.8314630105 eV
     psi = 0.172*[#  5]+0.172*[#  2]+0.171*[#  4]+0.171*[#  3]+0.171*[#  6]+
          +0.138*[#  1]+
    |psi|^2 = 0.993
     e =  11.5333593284 eV
     psi = 0.255*[#  2]+0.255*[#  5]+0.152*[#  4]+0.152*[#  3]+0.152*[#  6]+
          +0.011*[#  1]+
    |psi|^2 = 0.977
     e =  12.7447111348 eV
     psi = 0.276*[#  4]+0.276*[#  3]+0.276*[#  6]+0.088*[#  1]+0.034*[#  2]+
          +0.034*[#  5]+
    |psi|^2 = 0.984
     e =  13.6597262035 eV
     psi = 0.302*[#  2]+0.302*[#  5]+0.132*[#  4]+0.132*[#  3]+0.132*[#  6]+
    |psi|^2 = 0.999
     e =  14.8092970842 eV
     psi = 0.201*[#  4]+0.201*[#  3]+0.201*[#  6]+0.198*[#  5]+0.198*[#  2]+
    |psi|^2 = 0.998
     e =  17.7935411877 eV
     psi = 0.503*[#  1]+0.057*[#  4]+0.057*[#  3]+0.057*[#  6]+0.037*[#  5]+
          +0.037*[#  2]+
    |psi|^2 = 0.748
     e =  24.3638743297 eV
     psi = 0.181*[#  1]+0.010*[#  4]+0.010*[#  3]+0.010*[#  6]+
    |psi|^2 = 0.210
     e =  30.7824359867 eV
     psi = 0.043*[#  1]+0.002*[#  5]+0.002*[#  2]+
    |psi|^2 = 0.049

 k =   0.6666666667 -0.1666666667  0.6666666667
     e =  11.0672730109 eV
     psi = 0.278*[#  4]+0.278*[#  3]+0.278*[#  6]+0.081*[#  1]+0.041*[#  5]+
          +0.041*[#  2]+
    |psi|^2 = 0.996
     e =  11.7070404039 eV
     psi = 0.443*[#  2]+0.443*[#  5]+0.026*[#  4]+0.026*[#  3]+0.026*[#  6]+
          +0.002*[#  1]+
    |psi|^2 = 0.967
     e =  12.6116565685 eV
     psi = 0.319*[#  4]+0.319*[#  3]+0.319*[#  6]+0.008*[#  1]+
    |psi|^2 = 0.965
     e =  13.5630580679 eV
     psi = 0.362*[#  2]+0.362*[#  5]+0.092*[#  4]+0.092*[#  3]+0.092*[#  6]+
    |psi|^2 = 0.999
     e =  14.6222456983 eV
     psi = 0.241*[#  4]+0.241*[#  3]+0.241*[#  6]+0.138*[#  5]+0.138*[#  2]+
    |psi|^2 = 0.999
     e =  19.6755171944 eV
     psi = 0.014*[#  5]+0.014*[#  2]+0.011*[#  4]+0.011*[#  3]+0.011*[#  6]+
          +0.003*[#  1]+
    |psi|^2 = 0.063
     e =  22.0600600072 eV
     psi = 0.757*[#  1]+0.031*[#  4]+0.031*[#  3]+0.031*[#  6]+
    |psi|^2 = 0.851
     e =  29.5130479124 eV
     psi = 0.100*[#  1]+0.002*[#  2]+0.002*[#  5]+
    |psi|^2 = 0.106

 k =   0.5833333333 -0.0833333333  0.5833333333
     e =  11.1587712155 eV
     psi = 0.268*[#  4]+0.268*[#  3]+0.268*[#  6]+0.179*[#  1]+0.003*[#  2]+
          +0.003*[#  5]+
    |psi|^2 = 0.989
     e =  11.9413494072 eV
     psi = 0.462*[#  5]+0.462*[#  2]+0.017*[#  1]+0.013*[#  4]+0.013*[#  3]+
          +0.013*[#  6]+
    |psi|^2 = 0.981
     e =  12.2840130922 eV
     psi = 0.319*[#  4]+0.319*[#  3]+0.319*[#  6]+0.014*[#  1]+0.003*[#  5]+
          +0.003*[#  2]+
    |psi|^2 = 0.978
     e =  13.5150569812 eV
     psi = 0.426*[#  2]+0.426*[#  5]+0.049*[#  4]+0.049*[#  3]+0.049*[#  6]+
    |psi|^2 = 1.000
     e =  14.2569832826 eV
     psi = 0.284*[#  4]+0.284*[#  3]+0.284*[#  6]+0.074*[#  5]+0.074*[#  2]+
    |psi|^2 = 0.999
     e =  18.1435214077 eV
     psi = 0.556*[#  1]+0.055*[#  4]+0.055*[#  3]+0.055*[#  6]+0.031*[#  5]+
          +0.031*[#  2]+
    |psi|^2 = 0.782
     e =  24.3620433501 eV
     psi = 0.123*[#  1]+0.009*[#  4]+0.009*[#  3]+0.009*[#  6]+
    |psi|^2 = 0.150
     e =  28.7830145201 eV
     psi = 0.082*[#  1]+0.002*[#  4]+0.002*[#  3]+0.002*[#  6]+
    |psi|^2 = 0.089

 k =   0.5000000000  0.0000000000  0.5000000000
     e =  10.7579011529 eV
     psi = 0.491*[#  1]+0.145*[#  4]+0.145*[#  3]+0.145*[#  6]+0.030*[#  5]+
          +0.030*[#  2]+
    |psi|^2 = 0.987
     e =  11.9680630320 eV
     psi = 0.331*[#  4]+0.331*[#  3]+0.331*[#  6]+
    |psi|^2 = 0.992
     e =  12.2939834631 eV
     psi = 0.375*[#  5]+0.375*[#  2]+0.075*[#  4]+0.075*[#  3]+0.075*[#  6]+
          +0.017*[#  1]+
    |psi|^2 = 0.993
     e =  13.4870677603 eV
     psi = 0.500*[#  2]+0.500*[#  5]+
    |psi|^2 = 1.000
     e =  13.8706111810 eV
     psi = 0.333*[#  4]+0.333*[#  3]+0.333*[#  6]+
    |psi|^2 = 0.999
     e =  16.4668990060 eV
     psi = 0.440*[#  1]+0.111*[#  4]+0.111*[#  3]+0.111*[#  6]+0.094*[#  2]+
          +0.094*[#  5]+
    |psi|^2 = 0.960
     e =  27.5861986000 eV
     psi = 0.003*[#  4]+0.003*[#  3]+0.003*[#  6]+
    |psi|^2 = 0.008
     e =  29.0255637517 eV
     psi = 0.040*[#  1]+0.002*[#  4]+0.002*[#  3]+0.002*[#  6]+
    |psi|^2 = 0.047

 k =   0.0000000000  0.6666666667  0.0000000000
     e =   9.9752290266 eV
     psi = 0.434*[#  1]+0.281*[#  2]+0.281*[#  5]+
    |psi|^2 = 0.996
     e =  11.1575554260 eV
     psi = 0.332*[#  4]+0.332*[#  3]+0.332*[#  6]+
    |psi|^2 = 0.997
     e =  14.0779250587 eV
     psi = 0.549*[#  1]+0.217*[#  5]+0.217*[#  2]+
    |psi|^2 = 0.982
     e =  14.2229454191 eV
     psi = 0.333*[#  4]+0.333*[#  3]+0.333*[#  6]+
    |psi|^2 = 0.999
     e =  14.2229454362 eV
     psi = 0.333*[#  4]+0.333*[#  3]+0.333*[#  6]+
    |psi|^2 = 0.999
     e =  14.5835477855 eV
     psi = 0.499*[#  2]+0.499*[#  5]+
    |psi|^2 = 0.999
     e =  31.8921731857 eV
     psi = 0.004*[#  1]+0.002*[#  2]+0.002*[#  5]+
    |psi|^2 = 0.009
     e =  33.1776086577 eV
     psi = 
    |psi|^2 = 0.000

 k =  -0.0833333333  0.7500000000 -0.0833333333
     e =  10.2845838790 eV
     psi = 0.380*[#  5]+0.380*[#  2]+0.226*[#  1]+0.003*[#  4]+0.003*[#  3]+
          +0.003*[#  6]+
    |psi|^2 = 0.995
     e =  11.0216008581 eV
     psi = 0.330*[#  4]+0.330*[#  3]+0.330*[#  6]+0.002*[#  2]+0.002*[#  5]+
    |psi|^2 = 0.996
     e =  13.8707647561 eV
     psi = 0.244*[#  4]+0.244*[#  3]+0.244*[#  6]+0.167*[#  1]+0.044*[#  2]+
          +0.044*[#  5]+
    |psi|^2 = 0.986
     e =  14.3109950301 eV
     psi = 0.207*[#  4]+0.207*[#  3]+0.207*[#  6]+0.189*[#  2]+0.189*[#  5]+
    |psi|^2 = 0.999
     e =  14.7626772174 eV
     psi = 0.311*[#  2]+0.311*[#  5]+0.126*[#  4]+0.126*[#  3]+0.126*[#  6]+
    |psi|^2 = 0.999
     e =  15.7953169043 eV
     psi = 0.546*[#  1]+0.087*[#  4]+0.087*[#  3]+0.087*[#  6]+0.069*[#  5]+
          +0.069*[#  2]+
    |psi|^2 = 0.946
     e =  29.6132873187 eV
     psi = 0.015*[#  1]+0.004*[#  5]+0.004*[#  2]+
    |psi|^2 = 0.023
     e =  30.4522001581 eV
     psi = 0.020*[#  1]+
    |psi|^2 = 0.024

 k =   0.8333333333 -0.1666666667  0.8333333333
     e =  10.5945935814 eV
     psi = 0.407*[#  2]+0.407*[#  5]+0.097*[#  1]+0.027*[#  4]+0.027*[#  3]+
          +0.027*[#  6]+
    |psi|^2 = 0.993
     e =  11.0692779923 eV
     psi = 0.305*[#  4]+0.305*[#  3]+0.305*[#  6]+0.038*[#  2]+0.038*[#  5]+
    |psi|^2 = 0.992
     e =  13.4769721493 eV
     psi = 0.287*[#  4]+0.287*[#  3]+0.287*[#  6]+0.084*[#  1]+0.016*[#  2]+
          +0.016*[#  5]+
    |psi|^2 = 0.976
     e =  14.2159732032 eV
     psi = 0.326*[#  2]+0.326*[#  5]+0.116*[#  4]+0.116*[#  3]+0.116*[#  6]+
    |psi|^2 = 0.999
     e =  14.8403784954 eV
     psi = 0.217*[#  4]+0.217*[#  3]+0.217*[#  6]+0.173*[#  5]+0.173*[#  2]+
    |psi|^2 = 0.998
     e =  18.0240372356 eV
     psi = 0.547*[#  1]+0.044*[#  4]+0.044*[#  3]+0.044*[#  6]+0.030*[#  5]+
          +0.030*[#  2]+
    |psi|^2 = 0.739
     e =  26.6248306366 eV
     psi = 0.038*[#  1]+0.002*[#  4]+0.002*[#  3]+0.002*[#  6]+
    |psi|^2 = 0.046
     e =  28.0535299083 eV
     psi = 0.178*[#  1]+0.008*[#  2]+0.008*[#  5]+
    |psi|^2 = 0.196

 k =   0.7500000000 -0.0833333333  0.7500000000
     e =  10.9333458787 eV
     psi = 0.330*[#  5]+0.330*[#  2]+0.099*[#  4]+0.099*[#  3]+0.099*[#  6]+
          +0.038*[#  1]+
    |psi|^2 = 0.994
     e =  11.2700061164 eV
     psi = 0.226*[#  4]+0.226*[#  3]+0.226*[#  6]+0.151*[#  5]+0.151*[#  2]+
          +0.001*[#  1]+
    |psi|^2 = 0.981
     e =  13.0084115333 eV
     psi = 0.317*[#  4]+0.317*[#  3]+0.317*[#  6]+0.015*[#  1]+0.002*[#  2]+
          +0.002*[#  5]+
    |psi|^2 = 0.970
     e =  14.0725844543 eV
     psi = 0.430*[#  2]+0.430*[#  5]+0.046*[#  4]+0.046*[#  3]+0.046*[#  6]+
    |psi|^2 = 0.999
     e =  14.6815387447 eV
     psi = 0.287*[#  4]+0.287*[#  3]+0.287*[#  6]+0.070*[#  5]+0.070*[#  2]+
    |psi|^2 = 0.999
     e =  20.6343186767 eV
     psi = 0.143*[#  1]+0.015*[#  4]+0.015*[#  3]+0.015*[#  6]+0.007*[#  5]+
          +0.007*[#  2]+
    |psi|^2 = 0.201
     e =  23.3633639297 eV
     psi = 0.311*[#  1]+0.009*[#  4]+0.009*[#  3]+0.009*[#  6]+
    |psi|^2 = 0.337
     e =  26.7972992620 eV
     psi = 0.416*[#  1]+0.009*[#  5]+0.009*[#  2]+0.002*[#  4]+0.002*[#  3]+
          +0.002*[#  6]+
    |psi|^2 = 0.439

 k =   0.6666666667  0.0000000000  0.6666666667
     e =  11.2756580074 eV
     psi = 0.252*[#  4]+0.252*[#  3]+0.252*[#  6]+0.097*[#  2]+0.097*[#  5]+
          +0.049*[#  1]+
    |psi|^2 = 0.997
     e =  11.5388536409 eV
     psi = 0.393*[#  5]+0.393*[#  2]+0.056*[#  4]+0.056*[#  3]+0.056*[#  6]+
          +0.017*[#  1]+
    |psi|^2 = 0.971
     e =  12.5063805834 eV
     psi = 0.326*[#  4]+0.326*[#  3]+0.326*[#  6]+
    |psi|^2 = 0.979
     e =  13.8596201578 eV
     psi = 0.500*[#  5]+0.500*[#  2]+
    |psi|^2 = 0.999
     e =  14.4155254034 eV
     psi = 0.333*[#  4]+0.333*[#  3]+0.333*[#  6]+
    |psi|^2 = 0.999
     e =  20.4239069568 eV
     psi = 0.490*[#  1]+0.022*[#  4]+0.022*[#  3]+0.022*[#  6]+0.006*[#  2]+
          +0.006*[#  5]+
    |psi|^2 = 0.566
     e =  23.3050606230 eV
     psi = 0.007*[#  4]+0.007*[#  3]+0.007*[#  6]+
    |psi|^2 = 0.020
     e =  26.5826401306 eV
     psi = 0.390*[#  1]+0.005*[#  5]+0.005*[#  2]+0.004*[#  4]+0.004*[#  3]+
          +0.004*[#  6]+
    |psi|^2 = 0.410

 k =   0.0000000000  0.8333333333  0.0000000000
     e =  10.2010082363 eV
     psi = 0.433*[#  2]+0.433*[#  5]+0.130*[#  1]+
    |psi|^2 = 0.996
     e =  10.8153567454 eV
     psi = 0.332*[#  4]+0.332*[#  3]+0.332*[#  6]+
    |psi|^2 = 0.996
     e =  14.7197396656 eV
     psi = 0.333*[#  4]+0.333*[#  3]+0.333*[#  6]+
    |psi|^2 = 0.999
     e =  14.7197396973 eV
     psi = 0.333*[#  4]+0.333*[#  3]+0.333*[#  6]+
    |psi|^2 = 0.999
     e =  14.7345450261 eV
     psi = 0.499*[#  2]+0.499*[#  5]+
    |psi|^2 = 0.999
     e =  16.2770760686 eV
     psi = 0.690*[#  1]+0.055*[#  5]+0.055*[#  2]+
    |psi|^2 = 0.801
     e =  27.5187187409 eV
     psi = 0.121*[#  1]+0.011*[#  5]+0.011*[#  2]+
    |psi|^2 = 0.143
     e =  31.4942690426 eV
     psi = 
    |psi|^2 = 0.000

 k =   0.9166666667 -0.0833333333  0.9166666667
     e =  10.2878808672 eV
     psi = 0.459*[#  2]+0.459*[#  5]+0.074*[#  1]+0.001*[#  4]+0.001*[#  3]+
          +0.001*[#  6]+
    |psi|^2 = 0.995
     e =  10.7916337553 eV
     psi = 0.331*[#  4]+0.331*[#  3]+0.331*[#  6]+0.001*[#  2]+0.001*[#  5]+
    |psi|^2 = 0.995
     e =  14.4375138595 eV
     psi = 0.314*[#  4]+0.314*[#  3]+0.314*[#  6]+0.022*[#  1]+0.002*[#  2]+
          +0.002*[#  5]+
    |psi|^2 = 0.968
     e =  14.6522835171 eV
     psi = 0.415*[#  2]+0.415*[#  5]+0.056*[#  4]+0.056*[#  3]+0.056*[#  6]+
    |psi|^2 = 0.999
     e =  14.8750332292 eV
     psi = 0.277*[#  4]+0.277*[#  3]+0.277*[#  6]+0.084*[#  5]+0.084*[#  2]+
    |psi|^2 = 0.998
     e =  17.9748099301 eV
     psi = 0.331*[#  1]+0.019*[#  4]+0.019*[#  3]+0.019*[#  6]+0.015*[#  5]+
          +0.015*[#  2]+
    |psi|^2 = 0.417
     e =  25.9766661082 eV
     psi = 0.413*[#  1]+0.022*[#  5]+0.022*[#  2]+
    |psi|^2 = 0.456
     e =  29.3479257961 eV
     psi = 0.054*[#  1]+
    |psi|^2 = 0.057

 k =   0.8333333333  0.0000000000  0.8333333333
     e =  10.5528378619 eV
     psi = 0.453*[#  5]+0.453*[#  2]+0.044*[#  1]+0.014*[#  4]+0.014*[#  3]+
          +0.014*[#  6]+
    |psi|^2 = 0.993
     e =  10.9587649379 eV
     psi = 0.316*[#  4]+0.316*[#  3]+0.316*[#  6]+0.022*[#  5]+0.022*[#  2]+
    |psi|^2 = 0.992
     e =  13.7558845394 eV
     psi = 0.318*[#  4]+0.318*[#  3]+0.318*[#  6]+
    |psi|^2 = 0.954
     e =  14.4694614478 eV
     psi = 0.499*[#  2]+0.499*[#  5]+
    |psi|^2 = 0.999
     e =  14.7891185748 eV
     psi = 0.333*[#  4]+0.333*[#  3]+0.333*[#  6]+
    |psi|^2 = 0.998
     e =  19.7903217290 eV
     psi = 0.015*[#  4]+0.015*[#  3]+0.015*[#  6]+
    |psi|^2 = 0.045
     e =  25.2802556526 eV
     psi = 0.322*[#  1]+0.018*[#  2]+0.018*[#  5]+
    |psi|^2 = 0.358
     e =  26.4296881288 eV
     psi = 0.520*[#  1]+0.006*[#  5]+0.006*[#  2]+0.002*[#  4]+0.002*[#  3]+
          +0.002*[#  6]+
    |psi|^2 = 0.539

 k =   0.0000000000 -1.0000000000  0.0000000000
     e =  10.1728349343 eV
     psi = 0.464*[#  5]+0.464*[#  2]+0.067*[#  1]+
    |psi|^2 = 0.996
     e =  10.6929832755 eV
     psi = 0.332*[#  4]+0.332*[#  3]+0.332*[#  6]+
    |psi|^2 = 0.996
     e =  14.7903026759 eV
     psi = 0.499*[#  2]+0.499*[#  5]+
    |psi|^2 = 0.999
     e =  14.9199745134 eV
     psi = 0.333*[#  4]+0.333*[#  3]+0.333*[#  6]+
    |psi|^2 = 0.998
     e =  14.9199745808 eV
     psi = 0.333*[#  4]+0.333*[#  3]+0.333*[#  6]+
    |psi|^2 = 0.998
     e =  17.8716561964 eV
     psi = 
    |psi|^2 = 0.000
     e =  25.2665408951 eV
     psi = 0.769*[#  1]+0.034*[#  2]+0.034*[#  5]+
    |psi|^2 = 0.837
     e =  30.8934280863 eV
     psi = 
    |psi|^2 = 0.000

 k =  -0.1666666667  0.3333333333  0.0000000000
     e =   7.5744989849 eV
     psi = 0.974*[#  1]+0.006*[#  5]+0.006*[#  2]+0.004*[#  4]+0.004*[#  3]+
          +0.004*[#  6]+
    |psi|^2 = 0.998
     e =  12.1534519630 eV
     psi = 0.333*[#  4]+0.333*[#  3]+0.333*[#  6]+
    |psi|^2 = 0.999
     e =  13.0046074143 eV
     psi = 0.252*[#  4]+0.252*[#  3]+0.252*[#  6]+0.121*[#  2]+0.121*[#  5]+
          +0.002*[#  1]+
    |psi|^2 = 1.000
     e =  13.1442536361 eV
     psi = 0.333*[#  4]+0.333*[#  3]+0.333*[#  6]+
    |psi|^2 = 1.000
     e =  13.6329877822 eV
     psi = 0.443*[#  5]+0.443*[#  2]+0.033*[#  4]+0.033*[#  3]+0.033*[#  6]+
          +0.015*[#  1]+
    |psi|^2 = 1.000
     e =  14.2337283978 eV
     psi = 0.429*[#  2]+0.429*[#  5]+0.045*[#  4]+0.045*[#  3]+0.045*[#  6]+
          +0.007*[#  1]+
    |psi|^2 = 0.999
     e =  35.3267026497 eV
     psi = 
    |psi|^2 = 0.001
     e =  36.0939308997 eV
     psi = 
    |psi|^2 = 0.000

 k =  -0.2500000000  0.4166666667 -0.0833333333
     e =   8.7445707819 eV
     psi = 0.895*[#  1]+0.023*[#  4]+0.023*[#  3]+0.023*[#  6]+0.017*[#  5]+
          +0.017*[#  2]+
    |psi|^2 = 0.998
     e =  11.9911724449 eV
     psi = 0.326*[#  4]+0.326*[#  3]+0.326*[#  6]+0.015*[#  1]+0.002*[#  2]+
          +0.002*[#  5]+
    |psi|^2 = 0.997
     e =  12.8494986212 eV
     psi = 0.252*[#  2]+0.252*[#  5]+0.165*[#  4]+0.165*[#  3]+0.165*[#  6]+
    |psi|^2 = 0.999
     e =  13.2686397126 eV
     psi = 0.252*[#  4]+0.252*[#  3]+0.252*[#  6]+0.121*[#  5]+0.121*[#  2]+
          +0.003*[#  1]+
    |psi|^2 = 1.000
     e =  13.7998091365 eV
     psi = 0.313*[#  5]+0.313*[#  2]+0.114*[#  4]+0.114*[#  3]+0.114*[#  6]+
          +0.030*[#  1]+
    |psi|^2 = 0.999
     e =  14.5925374075 eV
     psi = 0.295*[#  5]+0.295*[#  2]+0.119*[#  4]+0.119*[#  3]+0.119*[#  6]+
          +0.053*[#  1]+
    |psi|^2 = 0.998
     e =  31.1784965334 eV
     psi = 0.001*[#  4]+0.001*[#  3]+0.001*[#  6]+
    |psi|^2 = 0.004
     e =  34.9726047123 eV
     psi = 
    |psi|^2 = 0.001

 k =  -0.3333333333  0.5000000000 -0.1666666667
     e =   9.8875319959 eV
     psi = 0.616*[#  1]+0.107*[#  4]+0.107*[#  3]+0.107*[#  6]+0.028*[#  5]+
          +0.028*[#  2]+
    |psi|^2 = 0.995
     e =  12.1249792470 eV
     psi = 0.256*[#  4]+0.256*[#  3]+0.256*[#  6]+0.115*[#  1]+0.050*[#  2]+
          +0.050*[#  5]+
    |psi|^2 = 0.984
     e =  12.6116362672 eV
     psi = 0.275*[#  2]+0.275*[#  5]+0.149*[#  4]+0.149*[#  3]+0.149*[#  6]+
    |psi|^2 = 0.999
     e =  13.1820981278 eV
     psi = 0.245*[#  5]+0.245*[#  2]+0.168*[#  4]+0.168*[#  3]+0.168*[#  6]+
          +0.007*[#  1]+
    |psi|^2 = 0.999
     e =  14.2410835714 eV
     psi = 0.229*[#  5]+0.229*[#  2]+0.171*[#  4]+0.171*[#  3]+0.171*[#  6]+
          +0.026*[#  1]+
    |psi|^2 = 0.997
     e =  15.2350440359 eV
     psi = 0.211*[#  1]+0.172*[#  5]+0.172*[#  2]+0.144*[#  4]+0.144*[#  3]+
          +0.144*[#  6]+
    |psi|^2 = 0.985
     e =  27.0519869289 eV
     psi = 0.016*[#  1]+0.004*[#  4]+0.004*[#  3]+0.004*[#  6]+
    |psi|^2 = 0.028
     e =  34.6080989337 eV
     psi = 0.001*[#  1]+
    |psi|^2 = 0.002

 k =   0.5833333333 -0.4166666667  0.7500000000
     e =  10.4100844651 eV
     psi = 0.253*[#  1]+0.239*[#  4]+0.239*[#  3]+0.239*[#  6]+0.012*[#  5]+
          +0.012*[#  2]+
    |psi|^2 = 0.995
     e =  12.3642010171 eV
     psi = 0.403*[#  2]+0.403*[#  5]+0.052*[#  4]+0.052*[#  3]+0.052*[#  6]+
          +0.018*[#  1]+
    |psi|^2 = 0.981
     e =  12.7680435202 eV
     psi = 0.264*[#  4]+0.264*[#  3]+0.264*[#  6]+0.105*[#  1]+0.025*[#  5]+
          +0.025*[#  2]+
    |psi|^2 = 0.946
     e =  13.0786444742 eV
     psi = 0.279*[#  2]+0.279*[#  5]+0.142*[#  4]+0.142*[#  3]+0.142*[#  6]+
          +0.012*[#  1]+
    |psi|^2 = 0.995
     e =  14.5891461894 eV
     psi = 0.203*[#  5]+0.203*[#  2]+0.196*[#  4]+0.196*[#  3]+0.196*[#  6]+
          +0.003*[#  1]+
    |psi|^2 = 0.996
     e =  16.3823564117 eV
     psi = 0.390*[#  1]+0.089*[#  4]+0.089*[#  3]+0.089*[#  6]+0.077*[#  5]+
          +0.077*[#  2]+
    |psi|^2 = 0.810
     e =  23.5275204939 eV
     psi = 0.191*[#  1]+0.018*[#  4]+0.018*[#  3]+0.018*[#  6]+
    |psi|^2 = 0.245
     e =  34.6894638367 eV
     psi = 0.003*[#  1]+
    |psi|^2 = 0.004

 k =   0.5000000000 -0.3333333333  0.6666666667
     e =  10.5013176932 eV
     psi = 0.283*[#  4]+0.283*[#  3]+0.283*[#  6]+0.146*[#  1]+
    |psi|^2 = 0.997
     e =  12.3040375580 eV
     psi = 0.401*[#  2]+0.401*[#  5]+0.059*[#  4]+0.059*[#  3]+0.059*[#  6]+
    |psi|^2 = 0.980
     e =  13.0161258466 eV
     psi = 0.308*[#  5]+0.308*[#  2]+0.128*[#  4]+0.128*[#  3]+0.128*[#  6]+
    |psi|^2 = 1.000
     e =  13.1046039437 eV
     psi = 0.249*[#  4]+0.249*[#  3]+0.249*[#  6]+0.061*[#  5]+0.061*[#  2]+
    |psi|^2 = 0.867
     e =  14.7005054137 eV
     psi = 0.206*[#  4]+0.206*[#  3]+0.206*[#  6]+0.191*[#  5]+0.191*[#  2]+
    |psi|^2 = 0.999
     e =  17.4174335388 eV
     psi = 0.037*[#  2]+0.037*[#  5]+0.026*[#  4]+0.026*[#  3]+0.026*[#  6]+
    |psi|^2 = 0.151
     e =  21.6831447370 eV
     psi = 0.801*[#  1]+0.049*[#  4]+0.049*[#  3]+0.049*[#  6]+
    |psi|^2 = 0.950
     e =  34.9335503443 eV
     psi = 
    |psi|^2 = 0.001

 k =  -0.1666666667  0.5000000000  0.0000000000
     e =   9.0800506609 eV
     psi = 0.844*[#  1]+0.061*[#  2]+0.061*[#  5]+0.010*[#  4]+0.010*[#  3]+
          +0.010*[#  6]+
    |psi|^2 = 0.997
     e =  11.6996929509 eV
     psi = 0.333*[#  4]+0.333*[#  3]+0.333*[#  6]+
    |psi|^2 = 0.998
     e =  12.9104942317 eV
     psi = 0.291*[#  2]+0.291*[#  5]+0.130*[#  4]+0.130*[#  3]+0.130*[#  6]+
          +0.028*[#  1]+
    |psi|^2 = 0.999
     e =  13.6382602691 eV
     psi = 0.333*[#  4]+0.333*[#  3]+0.333*[#  6]+
    |psi|^2 = 0.999
     e =  13.8657704164 eV
     psi = 0.325*[#  5]+0.325*[#  2]+0.090*[#  4]+0.090*[#  3]+0.090*[#  6]+
          +0.078*[#  1]+
    |psi|^2 = 0.998
     e =  14.5867507579 eV
     psi = 0.322*[#  2]+0.322*[#  5]+0.103*[#  4]+0.103*[#  3]+0.103*[#  6]+
          +0.046*[#  1]+
    |psi|^2 = 0.998
     e =  33.0426900826 eV
     psi = 
    |psi|^2 = 0.002
     e =  33.5568161561 eV
     psi = 
    |psi|^2 = 0.002

 k =  -0.2500000000  0.5833333333 -0.0833333333
     e =  10.1086685240 eV
     psi = 0.605*[#  1]+0.128*[#  5]+0.128*[#  2]+0.045*[#  4]+0.045*[#  3]+
          +0.045*[#  6]+
    |psi|^2 = 0.994
     e =  11.6114916974 eV
     psi = 0.314*[#  4]+0.314*[#  3]+0.314*[#  6]+0.019*[#  2]+0.019*[#  5]+
          +0.015*[#  1]+
    |psi|^2 = 0.995
     e =  12.6262172309 eV
     psi = 0.246*[#  2]+0.246*[#  5]+0.154*[#  4]+0.154*[#  3]+0.154*[#  6]+
          +0.044*[#  1]+
    |psi|^2 = 0.999
     e =  13.6730516292 eV
     psi = 0.197*[#  4]+0.197*[#  3]+0.197*[#  6]+0.197*[#  5]+0.197*[#  2]+
          +0.014*[#  1]+
    |psi|^2 = 0.999
     e =  14.3021047418 eV
     psi = 0.264*[#  2]+0.264*[#  5]+0.143*[#  4]+0.143*[#  3]+0.143*[#  6]+
          +0.041*[#  1]+
    |psi|^2 = 0.997
     e =  15.3468925832 eV
     psi = 0.263*[#  1]+0.145*[#  5]+0.145*[#  2]+0.145*[#  4]+0.145*[#  3]+
          +0.145*[#  6]+
    |psi|^2 = 0.988
     e =  29.0397794174 eV
     psi = 0.006*[#  1]+0.002*[#  4]+0.002*[#  3]+0.002*[#  6]+
    |psi|^2 = 0.012
     e =  32.7920594525 eV
     psi = 0.002*[#  1]+
    |psi|^2 = 0.003

 k =   0.6666666667 -0.3333333333  0.8333333333
     e =  10.7491022991 eV
     psi = 0.257*[#  1]+0.169*[#  4]+0.169*[#  3]+0.169*[#  6]+0.114*[#  5]+
          +0.114*[#  2]+
    |psi|^2 = 0.992
     e =  11.7685509619 eV
     psi = 0.234*[#  2]+0.234*[#  5]+0.158*[#  4]+0.158*[#  3]+0.158*[#  6]+
          +0.035*[#  1]+
    |psi|^2 = 0.978
     e =  12.4672453651 eV
     psi = 0.242*[#  4]+0.242*[#  3]+0.242*[#  6]+0.098*[#  2]+0.098*[#  5]+
          +0.070*[#  1]+
    |psi|^2 = 0.994
     e =  13.5469068568 eV
     psi = 0.288*[#  5]+0.288*[#  2]+0.138*[#  4]+0.138*[#  3]+0.138*[#  6]+
          +0.008*[#  1]+
    |psi|^2 = 0.998
     e =  14.6331918455 eV
     psi = 0.202*[#  2]+0.202*[#  5]+0.196*[#  4]+0.196*[#  3]+0.196*[#  6]+
          +0.003*[#  1]+
    |psi|^2 = 0.997
     e =  16.8198856125 eV
     psi = 0.503*[#  1]+0.087*[#  4]+0.087*[#  3]+0.087*[#  6]+0.062*[#  5]+
          +0.062*[#  2]+
    |psi|^2 = 0.888
     e =  25.2209211853 eV
     psi = 0.086*[#  1]+0.007*[#  4]+0.007*[#  3]+0.007*[#  6]+
    |psi|^2 = 0.109
     e =  32.6239799321 eV
     psi = 
    |psi|^2 = 0.002

 k =   0.5833333333 -0.2500000000  0.7500000000
     e =  10.9579450122 eV
     psi = 0.278*[#  4]+0.278*[#  3]+0.278*[#  6]+0.112*[#  1]+0.024*[#  5]+
          +0.024*[#  2]+
    |psi|^2 = 0.995
     e =  11.8551989115 eV
     psi = 0.453*[#  2]+0.453*[#  5]+0.020*[#  4]+0.020*[#  3]+0.020*[#  6]+
    |psi|^2 = 0.968
     e =  12.5858621059 eV
     psi = 0.311*[#  4]+0.311*[#  3]+0.311*[#  6]+0.018*[#  1]+0.003*[#  5]+
          +0.003*[#  2]+
    |psi|^2 = 0.957
     e =  13.4264864156 eV
     psi = 0.337*[#  2]+0.337*[#  5]+0.108*[#  4]+0.108*[#  3]+0.108*[#  6]+
    |psi|^2 = 0.999
     e =  14.6871673613 eV
     psi = 0.227*[#  4]+0.227*[#  3]+0.227*[#  6]+0.158*[#  5]+0.158*[#  2]+
    |psi|^2 = 0.998
     e =  18.7356517800 eV
     psi = 0.152*[#  1]+0.024*[#  4]+0.024*[#  3]+0.024*[#  6]+0.023*[#  5]+
          +0.023*[#  2]+
    |psi|^2 = 0.269
     e =  22.2796976214 eV
     psi = 0.626*[#  1]+0.030*[#  4]+0.030*[#  3]+0.030*[#  6]+
    |psi|^2 = 0.718
     e =  31.8021182187 eV
     psi = 0.026*[#  1]+
    |psi|^2 = 0.028

 k =   0.5000000000 -0.1666666667  0.6666666667
     e =  10.9968741003 eV
     psi = 0.276*[#  4]+0.276*[#  3]+0.276*[#  6]+0.148*[#  1]+0.009*[#  2]+
          +0.009*[#  5]+
    |psi|^2 = 0.993
     e =  11.9470719252 eV
     psi = 0.459*[#  2]+0.459*[#  5]+0.017*[#  4]+0.017*[#  3]+0.017*[#  6]+
          +0.008*[#  1]+
    |psi|^2 = 0.977
     e =  12.4674523821 eV
     psi = 0.308*[#  4]+0.308*[#  3]+0.308*[#  6]+0.023*[#  1]+0.006*[#  5]+
          +0.006*[#  2]+
    |psi|^2 = 0.961
     e =  13.4111055486 eV
     psi = 0.358*[#  5]+0.358*[#  2]+0.094*[#  4]+0.094*[#  3]+0.094*[#  6]+
          +0.001*[#  1]+
    |psi|^2 = 0.999
     e =  14.5091255098 eV
     psi = 0.241*[#  4]+0.241*[#  3]+0.241*[#  6]+0.137*[#  5]+0.137*[#  2]+
    |psi|^2 = 0.998
     e =  18.2314556642 eV
     psi = 0.408*[#  1]+0.043*[#  4]+0.043*[#  3]+0.043*[#  6]+0.029*[#  5]+
          +0.029*[#  2]+
    |psi|^2 = 0.595
     e =  23.0962342319 eV
     psi = 0.334*[#  1]+0.019*[#  4]+0.019*[#  3]+0.019*[#  6]+
    |psi|^2 = 0.392
     e =  30.9149780821 eV
     psi = 0.036*[#  1]+
    |psi|^2 = 0.039

 k =   0.4166666667 -0.0833333333  0.5833333333
     e =  10.7496704611 eV
     psi = 0.411*[#  1]+0.154*[#  4]+0.154*[#  3]+0.154*[#  6]+0.058*[#  2]+
          +0.058*[#  5]+
    |psi|^2 = 0.989
     e =  11.9606828100 eV
     psi = 0.261*[#  4]+0.261*[#  3]+0.261*[#  6]+0.076*[#  5]+0.076*[#  2]+
          +0.049*[#  1]+
    |psi|^2 = 0.984
     e =  12.2573665855 eV
     psi = 0.288*[#  2]+0.288*[#  5]+0.140*[#  4]+0.140*[#  3]+0.140*[#  6]+
          +0.001*[#  1]+
    |psi|^2 = 0.998
     e =  13.5113273452 eV
     psi = 0.362*[#  5]+0.362*[#  2]+0.087*[#  4]+0.087*[#  3]+0.087*[#  6]+
          +0.011*[#  1]+
    |psi|^2 = 0.998
     e =  14.1410053578 eV
     psi = 0.246*[#  4]+0.246*[#  3]+0.246*[#  6]+0.128*[#  5]+0.128*[#  2]+
          +0.004*[#  1]+
    |psi|^2 = 0.998
     e =  16.5122567030 eV
     psi = 0.457*[#  1]+0.106*[#  4]+0.106*[#  3]+0.106*[#  6]+0.086*[#  2]+
          +0.086*[#  5]+
    |psi|^2 = 0.946
     e =  26.4646263771 eV
     psi = 0.034*[#  1]+0.005*[#  4]+0.005*[#  3]+0.005*[#  6]+
    |psi|^2 = 0.047
     e =  30.5331953361 eV
     psi = 0.017*[#  1]+0.001*[#  4]+0.001*[#  3]+0.001*[#  6]+
    |psi|^2 = 0.020

 k =   0.3333333333  0.0000000000  0.5000000000
     e =   9.8575899783 eV
     psi = 0.746*[#  1]+0.053*[#  4]+0.053*[#  3]+0.053*[#  6]+0.045*[#  2]+
          +0.045*[#  5]+
    |psi|^2 = 0.994
     e =  11.8385692870 eV
     psi = 0.332*[#  4]+0.332*[#  3]+0.332*[#  6]+
    |psi|^2 = 0.996
     e =  12.5678515413 eV
     psi = 0.305*[#  2]+0.305*[#  5]+0.129*[#  4]+0.129*[#  3]+0.129*[#  6]+
    |psi|^2 = 0.998
     e =  13.6481705680 eV
     psi = 0.472*[#  5]+0.472*[#  2]+0.031*[#  1]+0.008*[#  4]+0.008*[#  3]+
          +0.008*[#  6]+
    |psi|^2 = 0.998
     e =  13.6816139442 eV
     psi = 0.333*[#  4]+0.333*[#  3]+0.333*[#  6]+
    |psi|^2 = 0.999
     e =  15.3450305518 eV
     psi = 0.211*[#  1]+0.177*[#  5]+0.177*[#  2]+0.142*[#  4]+0.142*[#  3]+
          +0.142*[#  6]+
    |psi|^2 = 0.992
     e =  30.1162392461 eV
     psi = 0.001*[#  4]+0.001*[#  3]+0.001*[#  6]+
    |psi|^2 = 0.004
     e =  31.0247851802 eV
     psi = 0.007*[#  1]+
    |psi|^2 = 0.010

 k =  -0.1666666667  0.6666666667  0.0000000000
     e =  10.2277971911 eV
     psi = 0.413*[#  1]+0.279*[#  2]+0.279*[#  5]+0.008*[#  4]+0.008*[#  3]+
          +0.008*[#  6]+
    |psi|^2 = 0.995
     e =  11.2586814331 eV
     psi = 0.332*[#  4]+0.332*[#  3]+0.332*[#  6]+
    |psi|^2 = 0.996
     e =  13.1352678413 eV
     psi = 0.184*[#  4]+0.184*[#  3]+0.184*[#  6]+0.161*[#  1]+0.141*[#  2]+
          +0.141*[#  5]+
    |psi|^2 = 0.994
     e =  14.2202589997 eV
     psi = 0.333*[#  4]+0.333*[#  3]+0.333*[#  6]+
    |psi|^2 = 0.999
     e =  14.3876466297 eV
     psi = 0.464*[#  2]+0.464*[#  5]+0.063*[#  1]+0.002*[#  4]+0.002*[#  3]+
          +0.002*[#  6]+
    |psi|^2 = 0.996
     e =  15.3817107417 eV
     psi = 0.339*[#  1]+0.139*[#  4]+0.139*[#  3]+0.139*[#  6]+0.114*[#  5]+
          +0.114*[#  2]+
    |psi|^2 = 0.983
     e =  31.0635095355 eV
     psi = 
    |psi|^2 = 0.003
     e =  31.3436715627 eV
     psi = 
    |psi|^2 = 0.003

 k =   0.7500000000 -0.2500000000  0.9166666667
     e =  10.6920685199 eV
     psi = 0.358*[#  2]+0.358*[#  5]+0.183*[#  1]+0.031*[#  4]+0.031*[#  3]+
          +0.031*[#  6]+
    |psi|^2 = 0.991
     e =  11.2604462303 eV
     psi = 0.308*[#  4]+0.308*[#  3]+0.308*[#  6]+0.033*[#  2]+0.033*[#  5]+
          +0.003*[#  1]+
    |psi|^2 = 0.993
     e =  12.9273679560 eV
     psi = 0.245*[#  4]+0.245*[#  3]+0.245*[#  6]+0.116*[#  1]+0.069*[#  2]+
          +0.069*[#  5]+
    |psi|^2 = 0.990
     e =  14.1320575001 eV
     psi = 0.302*[#  2]+0.302*[#  5]+0.128*[#  4]+0.128*[#  3]+0.128*[#  6]+
          +0.010*[#  1]+
    |psi|^2 = 0.997
     e =  14.6671933881 eV
     psi = 0.210*[#  4]+0.210*[#  3]+0.210*[#  6]+0.183*[#  2]+0.183*[#  5]+
          +0.003*[#  1]+
    |psi|^2 = 0.998
     e =  17.0863724150 eV
     psi = 0.576*[#  1]+0.074*[#  4]+0.074*[#  3]+0.074*[#  6]+0.050*[#  5]+
          +0.050*[#  2]+
    |psi|^2 = 0.900
     e =  27.4120492916 eV
     psi = 0.031*[#  1]+0.002*[#  4]+0.002*[#  3]+0.002*[#  6]+
    |psi|^2 = 0.038
     e =  30.1813783860 eV
     psi = 0.025*[#  1]+0.003*[#  2]+0.003*[#  5]+
    |psi|^2 = 0.032

 k =   0.6666666667 -0.1666666667  0.8333333333
     e =  11.0223999765 eV
     psi = 0.293*[#  5]+0.293*[#  2]+0.114*[#  4]+0.114*[#  3]+0.114*[#  6]+
          +0.063*[#  1]+
    |psi|^2 = 0.992
     e =  11.4059151987 eV
     psi = 0.211*[#  4]+0.211*[#  3]+0.211*[#  6]+0.174*[#  2]+0.174*[#  5]+
    |psi|^2 = 0.981
     e =  12.6897958265 eV
     psi = 0.299*[#  4]+0.299*[#  3]+0.299*[#  6]+0.047*[#  1]+0.017*[#  2]+
          +0.017*[#  5]+
    |psi|^2 = 0.979
     e =  13.9329571591 eV
     psi = 0.390*[#  2]+0.390*[#  5]+0.072*[#  4]+0.072*[#  3]+0.072*[#  6]+
    |psi|^2 = 0.998
     e =  14.7339220833 eV
     psi = 0.265*[#  4]+0.265*[#  3]+0.265*[#  6]+0.102*[#  5]+0.102*[#  2]+
    |psi|^2 = 0.998
     e =  19.4448540360 eV
     psi = 0.396*[#  1]+0.028*[#  4]+0.028*[#  3]+0.028*[#  6]+0.018*[#  5]+
          +0.018*[#  2]+
    |psi|^2 = 0.515
     e =  23.9569367159 eV
     psi = 0.277*[#  1]+0.009*[#  4]+0.009*[#  3]+0.009*[#  6]+
    |psi|^2 = 0.306
     e =  28.6935275058 eV
     psi = 0.132*[#  1]+0.004*[#  2]+0.004*[#  5]+
    |psi|^2 = 0.142

 k =   0.5833333333 -0.0833333333  0.7500000000
     e =  11.3487022141 eV
     psi = 0.244*[#  4]+0.244*[#  3]+0.244*[#  6]+0.107*[#  5]+0.107*[#  2]+
          +0.048*[#  1]+
    |psi|^2 = 0.996
     e =  11.5335504867 eV
     psi = 0.384*[#  5]+0.384*[#  2]+0.063*[#  4]+0.063*[#  3]+0.063*[#  6]+
          +0.017*[#  1]+
    |psi|^2 = 0.972
     e =  12.3871541986 eV
     psi = 0.325*[#  4]+0.325*[#  3]+0.325*[#  6]+
    |psi|^2 = 0.977
     e =  13.7881035335 eV
     psi = 0.451*[#  2]+0.451*[#  5]+0.032*[#  4]+0.032*[#  3]+0.032*[#  6]+
    |psi|^2 = 0.999
     e =  14.5577633483 eV
     psi = 0.303*[#  4]+0.303*[#  3]+0.303*[#  6]+0.045*[#  5]+0.045*[#  2]+
    |psi|^2 = 0.999
     e =  20.5074564807 eV
     psi = 0.296*[#  1]+0.016*[#  4]+0.016*[#  3]+0.016*[#  6]+0.008*[#  5]+
          +0.008*[#  2]+
    |psi|^2 = 0.360
     e =  22.8066692215 eV
     psi = 0.345*[#  1]+0.014*[#  4]+0.014*[#  3]+0.014*[#  6]+0.001*[#  5]+
          +0.001*[#  2]+
    |psi|^2 = 0.389
     e =  27.6656879707 eV
     psi = 0.218*[#  1]+0.003*[#  5]+0.003*[#  2]+0.002*[#  4]+0.002*[#  3]+
          +0.002*[#  6]+
    |psi|^2 = 0.229

 k =   0.5000000000  0.0000000000  0.6666666667
     e =  11.3824942402 eV
     psi = 0.208*[#  4]+0.208*[#  3]+0.208*[#  6]+0.204*[#  1]+0.075*[#  2]+
          +0.075*[#  5]+
    |psi|^2 = 0.980
     e =  11.8235154897 eV
     psi = 0.399*[#  2]+0.399*[#  5]+0.065*[#  4]+0.065*[#  3]+0.065*[#  6]+
    |psi|^2 = 0.992
     e =  12.0086432700 eV
     psi = 0.329*[#  4]+0.329*[#  3]+0.329*[#  6]+
    |psi|^2 = 0.988
     e =  13.7241591124 eV
     psi = 0.494*[#  2]+0.494*[#  5]+0.003*[#  4]+0.003*[#  3]+0.003*[#  6]+
          +0.001*[#  1]+
    |psi|^2 = 0.998
     e =  14.2623202987 eV
     psi = 0.333*[#  4]+0.333*[#  3]+0.333*[#  6]+
    |psi|^2 = 0.999
     e =  18.2884434962 eV
     psi = 0.605*[#  1]+0.055*[#  4]+0.055*[#  3]+0.055*[#  6]+0.029*[#  2]+
          +0.029*[#  5]+
    |psi|^2 = 0.827
     e =  25.5258315915 eV
     psi = 0.004*[#  4]+0.004*[#  3]+0.004*[#  6]+
    |psi|^2 = 0.012
     e =  27.6465509423 eV
     psi = 0.153*[#  1]+0.003*[#  4]+0.003*[#  3]+0.003*[#  6]+
    |psi|^2 = 0.164

 k =   0.8333333333 -0.1666666667  1.0000000000
     e =  10.4169939253 eV
     psi = 0.439*[#  5]+0.439*[#  2]+0.113*[#  1]+0.001*[#  4]+0.001*[#  3]+
          +0.001*[#  6]+
    |psi|^2 = 0.994
     e =  10.9453842304 eV
     psi = 0.332*[#  4]+0.332*[#  3]+0.332*[#  6]+
    |psi|^2 = 0.995
     e =  13.8207896708 eV
     psi = 0.273*[#  4]+0.273*[#  3]+0.273*[#  6]+0.081*[#  1]+0.040*[#  2]+
          +0.040*[#  5]+
    |psi|^2 = 0.979
     e =  14.6084242651 eV
     psi = 0.473*[#  5]+0.473*[#  2]+0.014*[#  4]+0.014*[#  3]+0.014*[#  6]+
          +0.007*[#  1]+
    |psi|^2 = 0.995
     e =  14.7183274609 eV
     psi = 0.333*[#  4]+0.333*[#  3]+0.333*[#  6]+
    |psi|^2 = 0.998
     e =  17.3435891187 eV
     psi = 0.586*[#  1]+0.045*[#  4]+0.045*[#  3]+0.045*[#  6]+0.037*[#  5]+
          +0.037*[#  2]+
    |psi|^2 = 0.794
     e =  27.6924963556 eV
     psi = 0.108*[#  1]+0.009*[#  5]+0.009*[#  2]+
    |psi|^2 = 0.127
     e =  29.6672798780 eV
     psi = 
    |psi|^2 = 0.003

 k =   0.7500000000 -0.0833333333  0.9166666667
     e =  10.6571005341 eV
     psi = 0.457*[#  5]+0.457*[#  2]+0.049*[#  1]+0.009*[#  4]+0.009*[#  3]+
          +0.009*[#  6]+
    |psi|^2 = 0.992
     e =  11.0598173550 eV
     psi = 0.322*[#  4]+0.322*[#  3]+0.322*[#  6]+0.014*[#  5]+0.014*[#  2]+
    |psi|^2 = 0.993
     e =  13.4145232194 eV
     psi = 0.308*[#  4]+0.308*[#  3]+0.308*[#  6]+0.024*[#  1]+0.010*[#  2]+
          +0.010*[#  5]+
    |psi|^2 = 0.966
     e =  14.3701111823 eV
     psi = 0.470*[#  5]+0.470*[#  2]+0.019*[#  4]+0.019*[#  3]+0.019*[#  6]+
    |psi|^2 = 0.997
     e =  14.8369251878 eV
     psi = 0.318*[#  4]+0.318*[#  3]+0.318*[#  6]+0.022*[#  5]+0.022*[#  2]+
    |psi|^2 = 0.998
     e =  19.5290924714 eV
     psi = 0.282*[#  1]+0.021*[#  4]+0.021*[#  3]+0.021*[#  6]+0.010*[#  5]+
          +0.010*[#  2]+
    |psi|^2 = 0.363
     e =  26.0430808681 eV
     psi = 0.083*[#  1]+0.009*[#  2]+0.009*[#  5]+
    |psi|^2 = 0.101
     e =  26.7919663615 eV
     psi = 0.419*[#  1]+0.007*[#  5]+0.007*[#  2]+0.002*[#  4]+0.002*[#  3]+
          +0.002*[#  6]+
    |psi|^2 = 0.439

 k =   0.6666666667  0.0000000000  0.8333333333
     e =  10.9996515386 eV
     psi = 0.422*[#  2]+0.422*[#  5]+0.042*[#  4]+0.042*[#  3]+0.042*[#  6]+
          +0.020*[#  1]+
    |psi|^2 = 0.992
     e =  11.3097956441 eV
     psi = 0.283*[#  4]+0.283*[#  3]+0.283*[#  6]+0.066*[#  5]+0.066*[#  2]+
          +0.005*[#  1]+
    |psi|^2 = 0.985
     e =  12.8558290050 eV
     psi = 0.324*[#  4]+0.324*[#  3]+0.324*[#  6]+
    |psi|^2 = 0.971
     e =  14.1025031947 eV
     psi = 0.498*[#  2]+0.498*[#  5]+0.003*[#  1]+
    |psi|^2 = 0.999
     e =  14.7222438226 eV
     psi = 0.333*[#  4]+0.333*[#  3]+0.333*[#  6]+
    |psi|^2 = 0.998
     e =  21.6897903988 eV
     psi = 0.010*[#  4]+0.010*[#  3]+0.010*[#  6]+
    |psi|^2 = 0.029
     e =  23.2791878807 eV
     psi = 0.179*[#  1]+0.006*[#  4]+0.006*[#  3]+0.006*[#  6]+0.002*[#  2]+
          +0.002*[#  5]+
    |psi|^2 = 0.199
     e =  26.0372063615 eV
     psi = 0.669*[#  1]+0.012*[#  2]+0.012*[#  5]+0.002*[#  4]+0.002*[#  3]+
          +0.002*[#  6]+
    |psi|^2 = 0.700

 k =  -0.1666666667 -1.0000000000  0.0000000000
     e =  10.3735030357 eV
     psi = 0.470*[#  5]+0.470*[#  2]+0.054*[#  1]+
    |psi|^2 = 0.994
     e =  10.8327731870 eV
     psi = 0.332*[#  4]+0.332*[#  3]+0.332*[#  6]+
    |psi|^2 = 0.995
     e =  14.1504082939 eV
     psi = 0.318*[#  4]+0.318*[#  3]+0.318*[#  6]+
    |psi|^2 = 0.954
     e =  14.6154784212 eV
     psi = 0.499*[#  2]+0.499*[#  5]+
    |psi|^2 = 0.999
     e =  14.9202838341 eV
     psi = 0.333*[#  4]+0.333*[#  3]+0.333*[#  6]+
    |psi|^2 = 0.998
     e =  18.9511219141 eV
     psi = 0.015*[#  4]+0.015*[#  3]+0.015*[#  6]+
    |psi|^2 = 0.045
     e =  25.3465763307 eV
     psi = 0.696*[#  1]+0.029*[#  5]+0.029*[#  2]+
    |psi|^2 = 0.753
     e =  29.1539902431 eV
     psi = 
    |psi|^2 = 0.003

 k =   0.6666666667 -0.3333333333  1.0000000000
     e =  10.8606707360 eV
     psi = 0.342*[#  1]+0.253*[#  5]+0.253*[#  2]+0.047*[#  4]+0.047*[#  3]+
          +0.047*[#  6]+
    |psi|^2 = 0.987
     e =  11.5549807464 eV
     psi = 0.331*[#  4]+0.331*[#  3]+0.331*[#  6]+
    |psi|^2 = 0.994
     e =  12.3336540719 eV
     psi = 0.192*[#  2]+0.192*[#  5]+0.186*[#  4]+0.186*[#  3]+0.186*[#  6]+
          +0.055*[#  1]+
    |psi|^2 = 0.997
     e =  14.0282092601 eV
     psi = 0.483*[#  5]+0.483*[#  2]+0.026*[#  1]+0.001*[#  3]+0.001*[#  4]+
          +0.001*[#  6]+
    |psi|^2 = 0.996
     e =  14.2217330425 eV
     psi = 0.333*[#  4]+0.333*[#  3]+0.333*[#  6]+
    |psi|^2 = 0.999
     e =  16.7027079610 eV
     psi = 0.513*[#  1]+0.097*[#  4]+0.097*[#  3]+0.097*[#  6]+0.071*[#  5]+
          +0.071*[#  2]+
    |psi|^2 = 0.947
     e =  28.1601764790 eV
     psi = 0.002*[#  4]+0.002*[#  3]+0.002*[#  6]+
    |psi|^2 = 0.006
     e =  29.3231665723 eV
     psi = 0.035*[#  1]+0.001*[#  4]+0.001*[#  3]+0.001*[#  6]+
    |psi|^2 = 0.039

 k =   0.5833333333 -0.2500000000  0.9166666667
     e =  11.2564700264 eV
     psi = 0.272*[#  2]+0.272*[#  5]+0.112*[#  1]+0.110*[#  4]+0.110*[#  3]+
          +0.110*[#  6]+
    |psi|^2 = 0.984
     e =  11.6536038947 eV
     psi = 0.218*[#  4]+0.218*[#  3]+0.218*[#  6]+0.166*[#  2]+0.166*[#  5]+
    |psi|^2 = 0.986
     e =  12.1644759694 eV
     psi = 0.281*[#  4]+0.281*[#  3]+0.281*[#  6]+0.054*[#  1]+0.046*[#  2]+
          +0.046*[#  5]+
    |psi|^2 = 0.990
     e =  13.8504327641 eV
     psi = 0.428*[#  2]+0.428*[#  5]+0.047*[#  4]+0.047*[#  3]+0.047*[#  6]+
          +0.002*[#  1]+
    |psi|^2 = 0.997
     e =  14.5492943561 eV
     psi = 0.293*[#  4]+0.293*[#  3]+0.293*[#  6]+0.060*[#  5]+0.060*[#  2]+
    |psi|^2 = 0.998
     e =  18.6709544584 eV
     psi = 0.564*[#  1]+0.043*[#  4]+0.043*[#  3]+0.043*[#  6]+0.026*[#  5]+
          +0.026*[#  2]+
    |psi|^2 = 0.745
     e =  24.8871780571 eV
     psi = 0.125*[#  1]+0.007*[#  4]+0.007*[#  3]+0.007*[#  6]+
    |psi|^2 = 0.145
     e =  29.1470078847 eV
     psi = 0.055*[#  1]+0.001*[#  4]+0.001*[#  3]+0.001*[#  6]+
    |psi|^2 = 0.059

 k =   0.5000000000 -0.1666666667  0.8333333333
     e =  11.4646798984 eV
     psi = 0.306*[#  4]+0.306*[#  3]+0.306*[#  6]+0.065*[#  1]+0.005*[#  2]+
          +0.005*[#  5]+
    |psi|^2 = 0.993
     e =  11.5002786353 eV
     psi = 0.488*[#  2]+0.488*[#  5]+
    |psi|^2 = 0.978
     e =  12.2551971371 eV
     psi = 0.324*[#  4]+0.324*[#  3]+0.324*[#  6]+
    |psi|^2 = 0.973
     e =  13.7419296566 eV
     psi = 0.431*[#  5]+0.431*[#  2]+0.045*[#  4]+0.045*[#  3]+0.045*[#  6]+
    |psi|^2 = 0.999
     e =  14.6726640385 eV
     psi = 0.292*[#  4]+0.292*[#  3]+0.292*[#  6]+0.061*[#  5]+0.061*[#  2]+
          +0.003*[#  1]+
    |psi|^2 = 0.999
     e =  20.6137761209 eV
     psi = 0.010*[#  5]+0.010*[#  2]+0.008*[#  4]+0.008*[#  3]+0.008*[#  6]+
    |psi|^2 = 0.044
     e =  22.3926592134 eV
     psi = 0.722*[#  1]+0.023*[#  4]+0.023*[#  3]+0.023*[#  6]+0.002*[#  5]+
          +0.002*[#  2]+
    |psi|^2 = 0.795
     e =  29.6312405963 eV
     psi = 0.002*[#  2]+0.002*[#  5]+
    |psi|^2 = 0.004

 k =   0.6666666667 -0.1666666667  1.0000000000
     e =  10.9428538910 eV
     psi = 0.455*[#  2]+0.455*[#  5]+0.064*[#  1]+0.005*[#  4]+0.005*[#  3]+
          +0.005*[#  6]+
    |psi|^2 = 0.988
     e =  11.3370175854 eV
     psi = 0.331*[#  4]+0.331*[#  3]+0.331*[#  6]+
    |psi|^2 = 0.992
     e =  12.6993101397 eV
     psi = 0.285*[#  4]+0.285*[#  3]+0.285*[#  6]+0.063*[#  1]+0.032*[#  2]+
          +0.032*[#  5]+
    |psi|^2 = 0.984
     e =  14.1970966145 eV
     psi = 0.484*[#  2]+0.484*[#  5]+0.009*[#  4]+0.009*[#  3]+0.009*[#  6]+
    |psi|^2 = 0.996
     e =  14.7147489644 eV
     psi = 0.333*[#  4]+0.333*[#  3]+0.333*[#  6]+
    |psi|^2 = 0.998
     e =  19.0758152767 eV
     psi = 0.549*[#  1]+0.033*[#  4]+0.033*[#  3]+0.033*[#  6]+0.021*[#  5]+
          +0.021*[#  2]+
    |psi|^2 = 0.690
     e =  26.8140762507 eV
     psi = 0.002*[#  4]+0.002*[#  3]+0.002*[#  6]+
    |psi|^2 = 0.007
     e =  27.9015386057 eV
     psi = 0.003*[#  1]+0.003*[#  2]+0.003*[#  5]+
    |psi|^2 = 0.010

 k =   0.5833333333 -0.0833333333  0.9166666667
     e =  11.1458630039 eV
     psi = 0.481*[#  2]+0.481*[#  5]+0.010*[#  1]+0.005*[#  4]+0.005*[#  3]+
          +0.005*[#  6]+
    |psi|^2 = 0.986
     e =  11.5688997912 eV
     psi = 0.322*[#  4]+0.322*[#  3]+0.322*[#  6]+0.008*[#  2]+0.008*[#  5]+
          +0.007*[#  1]+
    |psi|^2 = 0.988
     e =  12.3822315336 eV
     psi = 0.319*[#  4]+0.319*[#  3]+0.319*[#  6]+0.013*[#  1]+0.004*[#  2]+
          +0.004*[#  5]+
    |psi|^2 = 0.980
     e =  13.9706237570 eV
     psi = 0.486*[#  2]+0.486*[#  5]+0.007*[#  4]+0.007*[#  3]+0.007*[#  6]+
          +0.006*[#  1]+
    |psi|^2 = 0.998
     e =  14.8226880426 eV
     psi = 0.329*[#  4]+0.329*[#  3]+0.329*[#  6]+0.005*[#  5]+0.005*[#  2]+
    |psi|^2 = 0.998
     e =  21.5530732906 eV
     psi = 0.187*[#  1]+0.011*[#  4]+0.011*[#  3]+0.011*[#  6]+0.005*[#  5]+
          +0.005*[#  2]+
    |psi|^2 = 0.230
     e =  23.9445821637 eV
     psi = 0.208*[#  1]+0.006*[#  4]+0.006*[#  3]+0.006*[#  6]+0.001*[#  2]+
          +0.001*[#  5]+
    |psi|^2 = 0.229
     e =  27.0392730017 eV
     psi = 0.214*[#  1]+0.006*[#  2]+0.006*[#  5]+
    |psi|^2 = 0.228

 k =   0.5000000000  0.0000000000  0.8333333333
     e =  11.3230206623 eV
     psi = 0.488*[#  2]+0.488*[#  5]+0.005*[#  1]+
    |psi|^2 = 0.983
     e =  11.8238180080 eV
     psi = 0.310*[#  4]+0.310*[#  3]+0.310*[#  6]+0.042*[#  1]+0.008*[#  2]+
          +0.008*[#  5]+
    |psi|^2 = 0.988
     e =  11.9875221835 eV
     psi = 0.328*[#  4]+0.328*[#  3]+0.328*[#  6]+
    |psi|^2 = 0.985
     e =  13.8880579505 eV
     psi = 0.490*[#  5]+0.490*[#  2]+0.004*[#  4]+0.004*[#  3]+0.004*[#  6]+
          +0.004*[#  1]+
    |psi|^2 = 0.998
     e =  14.7122644506 eV
     psi = 0.333*[#  4]+0.333*[#  3]+0.333*[#  6]+
    |psi|^2 = 0.998
     e =  21.0259573115 eV
     psi = 0.426*[#  1]+0.016*[#  4]+0.016*[#  3]+0.016*[#  6]+0.008*[#  2]+
          +0.008*[#  5]+
    |psi|^2 = 0.489
     e =  24.0952476949 eV
     psi = 0.005*[#  4]+0.005*[#  3]+0.005*[#  6]+
    |psi|^2 = 0.015
     e =  26.8086365634 eV
     psi = 0.330*[#  1]+0.004*[#  5]+0.004*[#  2]+0.002*[#  4]+0.002*[#  3]+
          +0.002*[#  6]+
    |psi|^2 = 0.343

 k =  -0.3333333333 -1.0000000000  0.0000000000
     e =  10.8515833193 eV
     psi = 0.484*[#  5]+0.484*[#  2]+0.022*[#  1]+
    |psi|^2 = 0.990
     e =  11.2567670506 eV
     psi = 0.331*[#  4]+0.331*[#  3]+0.331*[#  6]+
    |psi|^2 = 0.992
     e =  12.9661831057 eV
     psi = 0.323*[#  4]+0.323*[#  3]+0.323*[#  6]+
    |psi|^2 = 0.968
     e =  14.1853892551 eV
     psi = 0.496*[#  5]+0.496*[#  2]+0.006*[#  1]+
    |psi|^2 = 0.999
     e =  14.9208952630 eV
     psi = 0.333*[#  4]+0.333*[#  3]+0.333*[#  6]+
    |psi|^2 = 0.998
     e =  21.0572492874 eV
     psi = 0.011*[#  4]+0.011*[#  3]+0.011*[#  6]+
    |psi|^2 = 0.032
     e =  25.6199007824 eV
     psi = 0.433*[#  1]+0.016*[#  2]+0.016*[#  5]+
    |psi|^2 = 0.464
     e =  26.3224629033 eV
     psi = 0.003*[#  4]+0.003*[#  3]+0.003*[#  6]+
    |psi|^2 = 0.008

 k =  -0.5000000000 -1.0000000000  0.0000000000
     e =  11.1545782543 eV
     psi = 0.494*[#  2]+0.494*[#  5]+
    |psi|^2 = 0.987
     e =  11.9708177543 eV
     psi = 0.328*[#  4]+0.328*[#  3]+0.328*[#  6]+
    |psi|^2 = 0.984
     e =  11.9708181188 eV
     psi = 0.328*[#  4]+0.328*[#  3]+0.328*[#  6]+
    |psi|^2 = 0.984
     e =  13.9041415937 eV
     psi = 0.492*[#  5]+0.492*[#  2]+0.015*[#  1]+
    |psi|^2 = 1.000
     e =  14.9211964060 eV
     psi = 0.333*[#  4]+0.333*[#  3]+0.333*[#  6]+
    |psi|^2 = 0.998
     e =  23.5613993097 eV
     psi = 0.005*[#  4]+0.005*[#  3]+0.005*[#  6]+
    |psi|^2 = 0.016
     e =  23.5614005897 eV
     psi = 0.005*[#  4]+0.005*[#  3]+0.005*[#  6]+
    |psi|^2 = 0.016
     e =  25.9312119531 eV
     psi = 0.006*[#  2]+0.006*[#  5]+
    |psi|^2 = 0.013

 k =   0.0000000000  0.0000000000  0.0000000000
     e =   5.7794837311 eV
     psi = 0.999*[#  1]+
    |psi|^2 = 0.999
     e =  13.3411538139 eV
     psi = 0.333*[#  4]+0.333*[#  3]+0.333*[#  6]+
    |psi|^2 = 1.000
     e =  13.3411538159 eV
     psi = 0.333*[#  4]+0.333*[#  3]+0.333*[#  6]+
    |psi|^2 = 1.000
     e =  13.3411538337 eV
     psi = 0.333*[#  4]+0.333*[#  3]+0.333*[#  6]+
    |psi|^2 = 1.000
     e =  14.5865817060 eV
     psi = 0.500*[#  2]+0.500*[#  5]+
    |psi|^2 = 1.000
     e =  14.5865817538 eV
     psi = 0.500*[#  2]+0.500*[#  5]+
    |psi|^2 = 1.000
     e =  39.8450284930 eV
     psi = 
    |psi|^2 = 0.000
     e =  44.2982366693 eV
     psi = 
    |psi|^2 = 0.000

 k =  -0.0833333333  0.0833333333 -0.0833333333
     e =   6.0679060736 eV
     psi = 0.999*[#  1]+
    |psi|^2 = 0.999
     e =  13.2551957399 eV
     psi = 0.333*[#  4]+0.333*[#  3]+0.333*[#  6]+
    |psi|^2 = 0.999
     e =  13.4095334145 eV
     psi = 0.332*[#  4]+0.332*[#  3]+0.332*[#  6]+0.002*[#  2]+0.002*[#  5]+
    |psi|^2 = 1.000
     e =  13.4095334293 eV
     psi = 0.332*[#  4]+0.332*[#  3]+0.332*[#  6]+0.002*[#  2]+0.002*[#  5]+
    |psi|^2 = 1.000
     e =  14.5575008944 eV
     psi = 0.498*[#  2]+0.498*[#  5]+0.001*[#  4]+0.001*[#  3]+0.001*[#  6]+
    |psi|^2 = 1.000
     e =  14.5575009118 eV
     psi = 0.498*[#  5]+0.498*[#  2]+0.001*[#  4]+0.001*[#  3]+0.001*[#  6]+
    |psi|^2 = 1.000
     e =  39.0172197274 eV
     psi = 
    |psi|^2 = 0.000
     e =  41.7691349657 eV
     psi = 
    |psi|^2 = 0.000

 k =  -0.1666666667  0.1666666667 -0.1666666667
     e =   6.9018668329 eV
     psi = 0.991*[#  1]+0.003*[#  4]+0.003*[#  3]+0.003*[#  6]+
    |psi|^2 = 0.999
     e =  13.0510457504 eV
     psi = 0.330*[#  4]+0.330*[#  3]+0.330*[#  6]+0.008*[#  1]+
    |psi|^2 = 0.998
     e =  13.5450054721 eV
     psi = 0.309*[#  4]+0.309*[#  3]+0.309*[#  6]+0.037*[#  2]+0.037*[#  5]+
    |psi|^2 = 1.000
     e =  13.5450054976 eV
     psi = 0.309*[#  4]+0.309*[#  3]+0.309*[#  6]+0.037*[#  2]+0.037*[#  5]+
    |psi|^2 = 1.000
     e =  14.5384349871 eV
     psi = 0.463*[#  2]+0.463*[#  5]+0.025*[#  4]+0.025*[#  3]+0.025*[#  6]+
    |psi|^2 = 1.000
     e =  14.5384350056 eV
     psi = 0.463*[#  5]+0.463*[#  2]+0.025*[#  4]+0.025*[#  3]+0.025*[#  6]+
    |psi|^2 = 1.000
     e =  35.1995340734 eV
     psi = 
    |psi|^2 = 0.002
     e =  40.7504866935 eV
     psi = 
    |psi|^2 = 0.000

 k =  -0.2500000000  0.2500000000 -0.2500000000
     e =   8.1573914518 eV
     psi = 0.940*[#  1]+0.019*[#  4]+0.019*[#  3]+0.019*[#  6]+
    |psi|^2 = 0.998
     e =  12.8915011264 eV
     psi = 0.312*[#  4]+0.312*[#  3]+0.312*[#  6]+0.057*[#  1]+
    |psi|^2 = 0.993
     e =  13.5657749661 eV
     psi = 0.230*[#  4]+0.230*[#  3]+0.230*[#  6]+0.154*[#  2]+0.154*[#  5]+
    |psi|^2 = 1.000
     e =  13.5657750129 eV
     psi = 0.230*[#  4]+0.230*[#  3]+0.230*[#  6]+0.154*[#  2]+0.154*[#  5]+
    |psi|^2 = 1.000
     e =  14.7005992534 eV
     psi = 0.345*[#  2]+0.345*[#  5]+0.103*[#  4]+0.103*[#  3]+0.103*[#  6]+
    |psi|^2 = 1.000
     e =  14.7005992729 eV
     psi = 0.345*[#  5]+0.345*[#  2]+0.103*[#  4]+0.103*[#  3]+0.103*[#  6]+
    |psi|^2 = 1.000
     e =  30.8081321873 eV
     psi = 0.002*[#  4]+0.002*[#  3]+0.002*[#  6]+
    |psi|^2 = 0.007
     e =  40.0566913543 eV
     psi = 
    |psi|^2 = 0.000

 k =  -0.3333333333  0.3333333333 -0.3333333333
     e =   9.4800005306 eV
     psi = 0.722*[#  1]+0.091*[#  4]+0.091*[#  3]+0.091*[#  6]+
    |psi|^2 = 0.996
     e =  13.1190523514 eV
     psi = 0.259*[#  1]+0.235*[#  4]+0.235*[#  3]+0.235*[#  6]+
    |psi|^2 = 0.962
     e =  13.4456534534 eV
     psi = 0.249*[#  2]+0.249*[#  5]+0.167*[#  4]+0.167*[#  3]+0.167*[#  6]+
    |psi|^2 = 1.000
     e =  13.4456534800 eV
     psi = 0.249*[#  5]+0.249*[#  2]+0.167*[#  4]+0.167*[#  3]+0.167*[#  6]+
    |psi|^2 = 1.000
     e =  15.0318888896 eV
     psi = 0.251*[#  5]+0.251*[#  2]+0.166*[#  4]+0.166*[#  3]+0.166*[#  6]+
    |psi|^2 = 0.999
     e =  15.0318889218 eV
     psi = 0.251*[#  5]+0.251*[#  2]+0.166*[#  4]+0.166*[#  3]+0.166*[#  6]+
    |psi|^2 = 0.999
     e =  26.7679835375 eV
     psi = 0.015*[#  1]+0.007*[#  4]+0.007*[#  3]+0.007*[#  6]+
    |psi|^2 = 0.037
     e =  39.1961418366 eV
     psi = 
    |psi|^2 = 0.000

 k =  -0.4166666667  0.4166666667 -0.4166666667
     e =  10.2473527143 eV
     psi = 0.345*[#  1]+0.217*[#  4]+0.217*[#  3]+0.217*[#  6]+
    |psi|^2 = 0.995
     e =  13.3201930267 eV
     psi = 0.289*[#  2]+0.289*[#  5]+0.140*[#  4]+0.140*[#  3]+0.140*[#  6]+
    |psi|^2 = 1.000
     e =  13.3201930509 eV
     psi = 0.289*[#  2]+0.289*[#  5]+0.140*[#  4]+0.140*[#  3]+0.140*[#  6]+
    |psi|^2 = 1.000
     e =  14.1316700583 eV
     psi = 0.447*[#  1]+0.089*[#  4]+0.089*[#  3]+0.089*[#  6]+
    |psi|^2 = 0.713
     e =  15.3321653095 eV
     psi = 0.210*[#  5]+0.210*[#  2]+0.193*[#  4]+0.193*[#  3]+0.193*[#  6]+
    |psi|^2 = 0.999
     e =  15.3321653506 eV
     psi = 0.210*[#  5]+0.210*[#  2]+0.193*[#  4]+0.193*[#  3]+0.193*[#  6]+
    |psi|^2 = 0.999
     e =  23.4606379636 eV
     psi = 0.192*[#  1]+0.028*[#  4]+0.028*[#  3]+0.028*[#  6]+
    |psi|^2 = 0.276
     e =  38.5315690645 eV
     psi = 
    |psi|^2 = 0.000

 k =   0.5000000000 -0.5000000000  0.5000000000
     e =  10.4254782514 eV
     psi = 0.267*[#  4]+0.267*[#  3]+0.267*[#  6]+0.196*[#  1]+
    |psi|^2 = 0.996
     e =  13.2706452407 eV
     psi = 0.300*[#  2]+0.300*[#  5]+0.133*[#  4]+0.133*[#  3]+0.133*[#  6]+
    |psi|^2 = 1.000
     e =  13.2706452447 eV
     psi = 0.300*[#  2]+0.300*[#  5]+0.133*[#  4]+0.133*[#  3]+0.133*[#  6]+
    |psi|^2 = 1.000
     e =  14.9681176988 eV
     psi = 
    |psi|^2 = 0.000
     e =  15.4503524932 eV
     psi = 0.200*[#  4]+0.200*[#  3]+0.200*[#  6]+0.199*[#  5]+0.199*[#  2]+
    |psi|^2 = 0.999
     e =  15.4503525176 eV
     psi = 0.200*[#  4]+0.200*[#  3]+0.200*[#  6]+0.199*[#  5]+0.199*[#  2]+
    |psi|^2 = 0.999
     e =  21.9342559197 eV
     psi = 0.769*[#  1]+0.066*[#  4]+0.066*[#  3]+0.066*[#  6]+
    |psi|^2 = 0.967
     e =  38.2875955772 eV
     psi = 
    |psi|^2 = 0.000

 k =   0.0000000000  0.1666666667  0.0000000000
     e =   6.1634284212 eV
     psi = 0.998*[#  1]+
    |psi|^2 = 0.999
     e =  13.1859765773 eV
     psi = 0.333*[#  4]+0.333*[#  3]+0.333*[#  6]+
    |psi|^2 = 0.999
     e =  13.4582252012 eV
     psi = 0.333*[#  4]+0.333*[#  3]+0.333*[#  6]+
    |psi|^2 = 1.000
     e =  13.4582252417 eV
     psi = 0.333*[#  4]+0.333*[#  3]+0.333*[#  6]+
    |psi|^2 = 1.000
     e =  14.4450773269 eV
     psi = 0.500*[#  5]+0.500*[#  2]+
    |psi|^2 = 1.000
     e =  14.6405532128 eV
     psi = 0.500*[#  2]+0.500*[#  5]+
    |psi|^2 = 1.000
     e =  39.3323664963 eV
     psi = 
    |psi|^2 = 0.000
     e =  42.1728321989 eV
     psi = 
    |psi|^2 = 0.000

 k =  -0.0833333333  0.2500000000 -0.0833333333
     e =   6.8144603186 eV
     psi = 0.993*[#  1]+0.001*[#  5]+0.001*[#  2]+
    |psi|^2 = 0.999
     e =  12.9934133286 eV
     psi = 0.333*[#  4]+0.333*[#  3]+0.333*[#  6]+
    |psi|^2 = 0.999
     e =  13.5947212470 eV
     psi = 0.319*[#  4]+0.319*[#  3]+0.319*[#  6]+0.021*[#  2]+0.021*[#  5]+
          +0.001*[#  1]+
    |psi|^2 = 1.000
     e =  13.6042303163 eV
     psi = 0.322*[#  4]+0.322*[#  3]+0.322*[#  6]+0.017*[#  2]+0.017*[#  5]+
    |psi|^2 = 1.000
     e =  14.3265150435 eV
     psi = 0.477*[#  5]+0.477*[#  2]+0.014*[#  4]+0.014*[#  3]+0.014*[#  6]+
          +0.004*[#  1]+
    |psi|^2 = 1.000
     e =  14.6912004165 eV
     psi = 0.483*[#  2]+0.483*[#  5]+0.011*[#  4]+0.011*[#  3]+0.011*[#  6]+
    |psi|^2 = 0.999
[...]
    |psi|^2 = 0.985
     e =  12.4635248845 eV
     psi = 0.259*[#  4]+0.259*[#  3]+0.259*[#  6]+0.086*[#  5]+0.086*[#  2]+
          +0.032*[#  1]+
    |psi|^2 = 0.979
     e =  12.8073558186 eV
     psi = 0.263*[#  2]+0.263*[#  5]+0.155*[#  4]+0.155*[#  3]+0.155*[#  6]+
          +0.004*[#  1]+
    |psi|^2 = 0.997
     e =  14.1004022993 eV
     psi = 0.395*[#  5]+0.395*[#  2]+0.065*[#  4]+0.065*[#  3]+0.065*[#  6]+
          +0.012*[#  1]+
    |psi|^2 = 0.998
     e =  14.8267209316 eV
     psi = 0.268*[#  4]+0.268*[#  3]+0.268*[#  6]+0.096*[#  5]+0.096*[#  2]+
          +0.003*[#  1]+
    |psi|^2 = 0.998
     e =  17.0278014603 eV
     psi = 0.405*[#  1]+0.118*[#  4]+0.118*[#  3]+0.118*[#  6]+0.094*[#  2]+
          +0.094*[#  5]+
    |psi|^2 = 0.948
     e =  26.6811764436 eV
     psi = 0.035*[#  1]+0.006*[#  4]+0.006*[#  3]+0.006*[#  6]+
    |psi|^2 = 0.054
     e =  30.6795699282 eV
     psi = 0.017*[#  1]+0.001*[#  4]+0.001*[#  3]+0.001*[#  6]+
    |psi|^2 = 0.022

 k =   0.3333333333  0.0000000000  0.5000000000
     e =   9.9672643786 eV
     psi = 0.779*[#  1]+0.044*[#  4]+0.044*[#  3]+0.044*[#  6]+0.041*[#  2]+
          +0.041*[#  5]+
    |psi|^2 = 0.994
     e =  12.4124905095 eV
     psi = 0.331*[#  4]+0.331*[#  3]+0.331*[#  6]+
    |psi|^2 = 0.993
     e =  13.1298515839 eV
     psi = 0.308*[#  2]+0.308*[#  5]+0.127*[#  4]+0.127*[#  3]+0.127*[#  6]+
    |psi|^2 = 0.997
     e =  14.2153980691 eV
     psi = 0.470*[#  2]+0.470*[#  5]+0.027*[#  1]+0.010*[#  4]+0.010*[#  3]+
          +0.010*[#  6]+
    |psi|^2 = 0.998
     e =  14.3769766812 eV
     psi = 0.333*[#  4]+0.333*[#  3]+0.333*[#  6]+
    |psi|^2 = 0.999
     e =  15.9616087226 eV
     psi = 0.181*[#  1]+0.179*[#  2]+0.179*[#  5]+0.151*[#  4]+0.151*[#  3]+
          +0.151*[#  6]+
    |psi|^2 = 0.992
     e =  30.3141577841 eV
     psi = 0.002*[#  4]+0.002*[#  3]+0.002*[#  6]+
    |psi|^2 = 0.007
     e =  31.1504036021 eV
     psi = 0.007*[#  1]+0.001*[#  4]+0.001*[#  3]+0.001*[#  6]+
    |psi|^2 = 0.011

 k =  -0.1666666667  0.6666666667  0.0000000000
     e =  10.4460487950 eV
     psi = 0.467*[#  1]+0.251*[#  2]+0.251*[#  5]+0.008*[#  4]+0.008*[#  3]+
          +0.008*[#  6]+
    |psi|^2 = 0.993
     e =  11.8218375919 eV
     psi = 0.331*[#  4]+0.331*[#  3]+0.331*[#  6]+
    |psi|^2 = 0.994
     e =  13.6407989777 eV
     psi = 0.185*[#  1]+0.173*[#  2]+0.173*[#  5]+0.154*[#  4]+0.154*[#  3]+
          +0.154*[#  6]+
    |psi|^2 = 0.992
     e =  14.9336852176 eV
     psi = 0.333*[#  4]+0.333*[#  3]+0.333*[#  6]+
    |psi|^2 = 0.999
     e =  14.9641730032 eV
     psi = 0.454*[#  2]+0.454*[#  5]+0.064*[#  1]+0.008*[#  4]+0.008*[#  3]+
          +0.008*[#  6]+
    |psi|^2 = 0.995
     e =  15.9341813468 eV
     psi = 0.259*[#  1]+0.162*[#  4]+0.162*[#  3]+0.162*[#  6]+0.120*[#  5]+
          +0.120*[#  2]+
    |psi|^2 = 0.985
     e =  31.2136323904 eV
     psi = 0.001*[#  4]+0.001*[#  3]+0.001*[#  6]+
    |psi|^2 = 0.004
     e =  31.4612694546 eV
     psi = 0.001*[#  1]+
    |psi|^2 = 0.004

 k =   0.7500000000 -0.2500000000  0.9166666667
     e =  11.0166404398 eV
     psi = 0.350*[#  5]+0.350*[#  2]+0.220*[#  1]+0.023*[#  4]+0.023*[#  3]+
          +0.023*[#  6]+
    |psi|^2 = 0.988
     e =  11.7994494564 eV
     psi = 0.316*[#  4]+0.316*[#  3]+0.316*[#  6]+0.020*[#  2]+0.020*[#  5]+
    |psi|^2 = 0.990
     e =  13.4458552335 eV
     psi = 0.228*[#  4]+0.228*[#  3]+0.228*[#  6]+0.136*[#  1]+0.083*[#  2]+
          +0.083*[#  5]+
    |psi|^2 = 0.985
     e =  14.7555926149 eV
     psi = 0.350*[#  2]+0.350*[#  5]+0.095*[#  4]+0.095*[#  3]+0.095*[#  6]+
          +0.012*[#  1]+
    |psi|^2 = 0.996
     e =  15.3647317221 eV
     psi = 0.241*[#  4]+0.241*[#  3]+0.241*[#  6]+0.137*[#  2]+0.137*[#  5]+
          +0.002*[#  1]+
    |psi|^2 = 0.998
     e =  17.4915539795 eV
     psi = 0.516*[#  1]+0.093*[#  4]+0.093*[#  3]+0.093*[#  6]+0.054*[#  5]+
          +0.054*[#  2]+
    |psi|^2 = 0.903
     e =  27.5812070609 eV
     psi = 0.032*[#  1]+0.003*[#  4]+0.003*[#  3]+0.003*[#  6]+
    |psi|^2 = 0.042
     e =  30.3464195548 eV
     psi = 0.026*[#  1]+0.004*[#  2]+0.004*[#  5]+
    |psi|^2 = 0.035

 k =   0.6666666667 -0.1666666667  0.8333333333
     e =  11.4433823011 eV
     psi = 0.348*[#  5]+0.348*[#  2]+0.074*[#  1]+0.072*[#  4]+0.072*[#  3]+
          +0.072*[#  6]+
    |psi|^2 = 0.985
     e =  11.8882476220 eV
     psi = 0.251*[#  4]+0.251*[#  3]+0.251*[#  6]+0.110*[#  2]+0.110*[#  5]+
          +0.002*[#  1]+
    |psi|^2 = 0.976
     e =  13.2240553384 eV
     psi = 0.291*[#  4]+0.291*[#  3]+0.291*[#  6]+0.055*[#  1]+0.022*[#  2]+
          +0.022*[#  5]+
    |psi|^2 = 0.971
     e =  14.5367601535 eV
     psi = 0.411*[#  2]+0.411*[#  5]+0.059*[#  4]+0.059*[#  3]+0.059*[#  6]+
    |psi|^2 = 0.997
     e =  15.4554326735 eV
     psi = 0.278*[#  4]+0.278*[#  3]+0.278*[#  6]+0.082*[#  5]+0.082*[#  2]+
    |psi|^2 = 0.999
     e =  19.7462591724 eV
     psi = 0.371*[#  1]+0.036*[#  4]+0.036*[#  3]+0.036*[#  6]+0.021*[#  5]+
          +0.021*[#  2]+
    |psi|^2 = 0.520
     e =  24.1738335082 eV
     psi = 0.280*[#  1]+0.012*[#  4]+0.012*[#  3]+0.012*[#  6]+
    |psi|^2 = 0.317
     e =  28.8712845388 eV
     psi = 0.133*[#  1]+0.006*[#  2]+0.006*[#  5]+
    |psi|^2 = 0.146

 k =   0.5833333333 -0.0833333333  0.7500000000
     e =  11.8478622386 eV
     psi = 0.202*[#  4]+0.202*[#  3]+0.202*[#  6]+0.171*[#  5]+0.171*[#  2]+
          +0.046*[#  1]+
    |psi|^2 = 0.994
     e =  11.9319348996 eV
     psi = 0.315*[#  2]+0.315*[#  5]+0.100*[#  4]+0.100*[#  3]+0.100*[#  6]+
          +0.031*[#  1]+
    |psi|^2 = 0.962
     e =  12.9286878351 eV
     psi = 0.322*[#  4]+0.322*[#  3]+0.322*[#  6]+
    |psi|^2 = 0.968
     e =  14.3753367931 eV
     psi = 0.461*[#  5]+0.461*[#  2]+0.025*[#  4]+0.025*[#  3]+0.025*[#  6]+
    |psi|^2 = 0.999
     e =  15.2836060957 eV
     psi = 0.310*[#  4]+0.310*[#  3]+0.310*[#  6]+0.035*[#  5]+0.035*[#  2]+
    |psi|^2 = 0.999
     e =  20.7807288486 eV
     psi = 0.287*[#  1]+0.021*[#  4]+0.021*[#  3]+0.021*[#  6]+0.010*[#  2]+
          +0.010*[#  5]+
    |psi|^2 = 0.369
     e =  23.0637142275 eV
     psi = 0.343*[#  1]+0.018*[#  4]+0.018*[#  3]+0.018*[#  6]+0.001*[#  5]+
          +0.001*[#  2]+
    |psi|^2 = 0.400
     e =  27.8475858796 eV
     psi = 0.218*[#  1]+0.004*[#  5]+0.004*[#  2]+0.002*[#  4]+0.002*[#  3]+
          +0.002*[#  6]+
    |psi|^2 = 0.232

 k =   0.5000000000  0.0000000000  0.6666666667
     e =  11.7283232584 eV
     psi = 0.237*[#  1]+0.168*[#  4]+0.168*[#  3]+0.168*[#  6]+0.114*[#  2]+
          +0.114*[#  5]+
    |psi|^2 = 0.970
     e =  12.3168188423 eV
     psi = 0.353*[#  5]+0.353*[#  2]+0.094*[#  4]+0.094*[#  3]+0.094*[#  6]+
          +0.003*[#  1]+
    |psi|^2 = 0.992
     e =  12.5544164846 eV
     psi = 0.328*[#  4]+0.328*[#  3]+0.328*[#  6]+
    |psi|^2 = 0.983
     e =  14.2970895432 eV
     psi = 0.495*[#  2]+0.495*[#  5]+0.002*[#  4]+0.002*[#  3]+0.002*[#  6]+
          +0.002*[#  1]+
    |psi|^2 = 0.997
     e =  14.9839150008 eV
     psi = 0.333*[#  4]+0.333*[#  3]+0.333*[#  6]+
    |psi|^2 = 0.999
     e =  18.6792448580 eV
     psi = 0.569*[#  1]+0.065*[#  4]+0.065*[#  3]+0.065*[#  6]+0.035*[#  5]+
          +0.035*[#  2]+
    |psi|^2 = 0.833
     e =  25.7504175183 eV
     psi = 0.006*[#  4]+0.006*[#  3]+0.006*[#  6]+
    |psi|^2 = 0.018
     e =  27.8160254015 eV
     psi = 0.154*[#  1]+0.004*[#  4]+0.004*[#  3]+0.004*[#  6]+0.002*[#  5]+
          +0.002*[#  2]+
    |psi|^2 = 0.168

 k =   0.8333333333 -0.1666666667  1.0000000000
     e =  10.7669378993 eV
     psi = 0.428*[#  5]+0.428*[#  2]+0.132*[#  1]+0.001*[#  4]+0.001*[#  3]+
          +0.001*[#  6]+
    |psi|^2 = 0.991
     e =  11.4921563187 eV
     psi = 0.331*[#  4]+0.331*[#  3]+0.331*[#  6]+
    |psi|^2 = 0.993
     e =  14.3868081911 eV
     psi = 0.256*[#  4]+0.256*[#  3]+0.256*[#  6]+0.113*[#  1]+0.043*[#  2]+
          +0.043*[#  5]+
    |psi|^2 = 0.967
     e =  15.2200037629 eV
     psi = 0.477*[#  2]+0.477*[#  5]+0.010*[#  1]+0.010*[#  4]+0.010*[#  3]+
          +0.010*[#  6]+
    |psi|^2 = 0.994
     e =  15.4584705606 eV
     psi = 0.333*[#  4]+0.333*[#  3]+0.333*[#  6]+
    |psi|^2 = 0.999
     e =  17.6359759230 eV
     psi = 0.527*[#  1]+0.066*[#  4]+0.066*[#  3]+0.066*[#  6]+0.039*[#  5]+
          +0.039*[#  2]+
    |psi|^2 = 0.802
     e =  27.9028720686 eV
     psi = 0.110*[#  1]+0.012*[#  2]+0.012*[#  5]+
    |psi|^2 = 0.134
     e =  29.7932640835 eV
     psi = 0.001*[#  4]+0.001*[#  3]+0.001*[#  6]+
    |psi|^2 = 0.004

 k =   0.7500000000 -0.0833333333  0.9166666667
     e =  11.0429878234 eV
     psi = 0.459*[#  2]+0.459*[#  5]+0.056*[#  1]+0.005*[#  4]+0.005*[#  3]+
          +0.005*[#  6]+
    |psi|^2 = 0.988
     e =  11.5945946930 eV
     psi = 0.325*[#  4]+0.325*[#  3]+0.325*[#  6]+0.007*[#  2]+0.007*[#  5]+
    |psi|^2 = 0.989
     e =  13.9739703976 eV
     psi = 0.299*[#  4]+0.299*[#  3]+0.299*[#  6]+0.031*[#  1]+0.010*[#  2]+
          +0.010*[#  5]+
    |psi|^2 = 0.949
     e =  14.9780527889 eV
     psi = 0.478*[#  5]+0.478*[#  2]+0.014*[#  4]+0.014*[#  3]+0.014*[#  6]+
    |psi|^2 = 0.997
     e =  15.5807233349 eV
     psi = 0.323*[#  4]+0.323*[#  3]+0.323*[#  6]+0.015*[#  5]+0.015*[#  2]+
    |psi|^2 = 0.999
     e =  19.7666058747 eV
     psi = 0.265*[#  1]+0.029*[#  4]+0.029*[#  3]+0.029*[#  6]+0.011*[#  5]+
          +0.011*[#  2]+
    |psi|^2 = 0.375
     e =  26.2597892739 eV
     psi = 0.065*[#  1]+0.010*[#  2]+0.010*[#  5]+
    |psi|^2 = 0.088
     e =  26.9616554640 eV
     psi = 0.439*[#  1]+0.009*[#  5]+0.009*[#  2]+0.003*[#  4]+0.003*[#  3]+
          +0.003*[#  6]+
    |psi|^2 = 0.464

 k =   0.6666666667  0.0000000000  0.8333333333
     e =  11.4196038555 eV
     psi = 0.458*[#  2]+0.458*[#  5]+0.019*[#  1]+0.017*[#  4]+0.017*[#  3]+
          +0.017*[#  6]+
    |psi|^2 = 0.985
     e =  11.8146792982 eV
     psi = 0.306*[#  4]+0.306*[#  3]+0.306*[#  6]+0.027*[#  5]+0.027*[#  2]+
          +0.011*[#  1]+
    |psi|^2 = 0.982
     e =  13.4025944050 eV
     psi = 0.319*[#  4]+0.319*[#  3]+0.319*[#  6]+
    |psi|^2 = 0.957
     e =  14.6934821146 eV
     psi = 0.497*[#  2]+0.497*[#  5]+0.003*[#  1]+
    |psi|^2 = 0.999
     e =  15.4650485800 eV
     psi = 0.333*[#  4]+0.333*[#  3]+0.333*[#  6]+
    |psi|^2 = 0.998
     e =  21.9121619151 eV
     psi = 0.014*[#  4]+0.014*[#  3]+0.014*[#  6]+
    |psi|^2 = 0.043
     e =  23.4910603265 eV
     psi = 0.185*[#  1]+0.008*[#  4]+0.008*[#  3]+0.008*[#  6]+0.002*[#  2]+
          +0.002*[#  5]+
    |psi|^2 = 0.212
     e =  26.2606724062 eV
     psi = 0.660*[#  1]+0.015*[#  5]+0.015*[#  2]+0.002*[#  4]+0.002*[#  3]+
          +0.002*[#  6]+
    |psi|^2 = 0.696

 k =  -0.1666666667 -1.0000000000  0.0000000000
     e =  10.7511825333 eV
     psi = 0.465*[#  2]+0.465*[#  5]+0.061*[#  1]+
    |psi|^2 = 0.992
     e =  11.3738390493 eV
     psi = 0.331*[#  4]+0.331*[#  3]+0.331*[#  6]+
    |psi|^2 = 0.992
     e =  14.7651219192 eV
     psi = 0.308*[#  4]+0.308*[#  3]+0.308*[#  6]+
    |psi|^2 = 0.925
     e =  15.2339922425 eV
     psi = 0.499*[#  2]+0.499*[#  5]+
    |psi|^2 = 0.999
     e =  15.6729961015 eV
     psi = 0.333*[#  4]+0.333*[#  3]+0.333*[#  6]+
    |psi|^2 = 0.999
     e =  19.1070424451 eV
     psi = 0.025*[#  4]+0.025*[#  3]+0.025*[#  6]+
    |psi|^2 = 0.074
     e =  25.6216561646 eV
     psi = 0.688*[#  1]+0.034*[#  5]+0.034*[#  2]+
    |psi|^2 = 0.755
     e =  29.2684318682 eV
     psi = 0.001*[#  4]+0.001*[#  3]+0.001*[#  6]+
    |psi|^2 = 0.004

 k =   0.6666666667 -0.3333333333  1.0000000000
     e =  11.1109408377 eV
     psi = 0.392*[#  1]+0.228*[#  5]+0.228*[#  2]+0.045*[#  4]+0.045*[#  3]+
          +0.045*[#  6]+
    |psi|^2 = 0.984
     e =  12.1103840167 eV
     psi = 0.330*[#  4]+0.330*[#  3]+0.330*[#  6]+
    |psi|^2 = 0.991
     e =  12.8637313388 eV
     psi = 0.209*[#  2]+0.209*[#  5]+0.173*[#  4]+0.173*[#  3]+0.173*[#  6]+
          +0.060*[#  1]+
    |psi|^2 = 0.996
     e =  14.5989527701 eV
     psi = 0.483*[#  5]+0.483*[#  2]+0.028*[#  1]+
    |psi|^2 = 0.995
     e =  14.9377309359 eV
     psi = 0.333*[#  4]+0.333*[#  3]+0.333*[#  6]+
    |psi|^2 = 0.999
     e =  17.1865166289 eV
     psi = 0.456*[#  1]+0.113*[#  4]+0.113*[#  3]+0.113*[#  6]+0.077*[#  5]+
          +0.077*[#  2]+
    |psi|^2 = 0.949
     e =  28.3569513145 eV
     psi = 0.003*[#  4]+0.003*[#  3]+0.003*[#  6]+
    |psi|^2 = 0.009
     e =  29.4579828587 eV
     psi = 0.036*[#  1]+0.002*[#  4]+0.002*[#  3]+0.002*[#  6]+
    |psi|^2 = 0.042

 k =   0.5833333333 -0.2500000000  0.9166666667
     e =  11.6314283918 eV
     psi = 0.298*[#  5]+0.298*[#  2]+0.137*[#  1]+0.081*[#  4]+0.081*[#  3]+
          +0.081*[#  6]+
    |psi|^2 = 0.976
     e =  12.1570814211 eV
     psi = 0.245*[#  4]+0.245*[#  3]+0.245*[#  6]+0.122*[#  2]+0.122*[#  5]+
          +0.003*[#  1]+
    |psi|^2 = 0.982
     e =  12.6963653429 eV
     psi = 0.271*[#  4]+0.271*[#  3]+0.271*[#  6]+0.058*[#  2]+0.058*[#  5]+
          +0.056*[#  1]+
    |psi|^2 = 0.986
     e =  14.4381064488 eV
     psi = 0.443*[#  5]+0.443*[#  2]+0.036*[#  4]+0.036*[#  3]+0.036*[#  6]+
          +0.002*[#  1]+
    |psi|^2 = 0.995
     e =  15.2691945466 eV
     psi = 0.302*[#  4]+0.302*[#  3]+0.302*[#  6]+0.045*[#  5]+0.045*[#  2]+
    |psi|^2 = 0.998
     e =  19.0253214541 eV
     psi = 0.531*[#  1]+0.053*[#  4]+0.053*[#  3]+0.053*[#  6]+0.030*[#  5]+
          +0.030*[#  2]+
    |psi|^2 = 0.751
     e =  25.1061072538 eV
     psi = 0.127*[#  1]+0.009*[#  4]+0.009*[#  3]+0.009*[#  6]+
    |psi|^2 = 0.154
     e =  29.3006381489 eV
     psi = 0.055*[#  1]+0.001*[#  4]+0.001*[#  3]+0.001*[#  6]+0.001*[#  2]+
          +0.001*[#  5]+
    |psi|^2 = 0.061

 k =   0.5000000000 -0.1666666667  0.8333333333
     e =  11.9092107753 eV
     psi = 0.483*[#  2]+0.483*[#  5]+
    |psi|^2 = 0.967
     e =  11.9557574202 eV
     psi = 0.301*[#  4]+0.301*[#  3]+0.301*[#  6]+0.077*[#  1]+0.005*[#  2]+
          +0.005*[#  5]+
    |psi|^2 = 0.989
     e =  12.7964138394 eV
     psi = 0.321*[#  4]+0.321*[#  3]+0.321*[#  6]+0.001*[#  2]+0.001*[#  5]+
    |psi|^2 = 0.965
     e =  14.3294156132 eV
     psi = 0.442*[#  5]+0.442*[#  2]+0.038*[#  4]+0.038*[#  3]+0.038*[#  6]+
    |psi|^2 = 0.998
     e =  15.3990484074 eV
     psi = 0.299*[#  4]+0.299*[#  3]+0.299*[#  6]+0.049*[#  5]+0.049*[#  2]+
          +0.003*[#  1]+
    |psi|^2 = 0.999
     e =  20.8706642668 eV
     psi = 0.013*[#  5]+0.013*[#  2]+0.012*[#  4]+0.012*[#  3]+0.012*[#  6]+
    |psi|^2 = 0.061
     e =  22.6721116833 eV
     psi = 0.710*[#  1]+0.028*[#  4]+0.028*[#  3]+0.028*[#  6]+0.002*[#  5]+
          +0.002*[#  2]+
    |psi|^2 = 0.799
     e =  29.7946656137 eV
     psi = 0.002*[#  2]+0.002*[#  5]+
    |psi|^2 = 0.007

 k =   0.6666666667 -0.1666666667  1.0000000000
     e =  11.3160204316 eV
     psi = 0.444*[#  2]+0.444*[#  5]+0.077*[#  1]+0.006*[#  4]+0.006*[#  3]+
          +0.006*[#  6]+
    |psi|^2 = 0.983
     e =  11.8796532217 eV
     psi = 0.330*[#  4]+0.330*[#  3]+0.330*[#  6]+
    |psi|^2 = 0.989
     e =  13.2265056173 eV
     psi = 0.275*[#  4]+0.275*[#  3]+0.275*[#  6]+0.076*[#  1]+0.037*[#  2]+
          +0.037*[#  5]+
    |psi|^2 = 0.977
     e =  14.7880660926 eV
     psi = 0.485*[#  2]+0.485*[#  5]+0.008*[#  4]+0.008*[#  3]+0.008*[#  6]+
    |psi|^2 = 0.994
     e =  15.4551959023 eV
     psi = 0.333*[#  4]+0.333*[#  3]+0.333*[#  6]+
    |psi|^2 = 0.998
     e =  19.3844652859 eV
     psi = 0.520*[#  1]+0.043*[#  4]+0.043*[#  3]+0.043*[#  6]+0.024*[#  5]+
          +0.024*[#  2]+
    |psi|^2 = 0.696
     e =  26.9963425409 eV
     psi = 0.004*[#  4]+0.004*[#  3]+0.004*[#  6]+
    |psi|^2 = 0.011
     e =  28.0761724625 eV
     psi = 0.006*[#  1]+0.004*[#  2]+0.004*[#  5]+
    |psi|^2 = 0.015

 k =   0.5833333333 -0.0833333333  0.9166666667
     e =  11.5498090842 eV
     psi = 0.481*[#  2]+0.481*[#  5]+0.011*[#  1]+0.003*[#  4]+0.003*[#  3]+
          +0.003*[#  6]+
    |psi|^2 = 0.980
     e =  12.0976133110 eV
     psi = 0.322*[#  4]+0.322*[#  3]+0.322*[#  6]+0.009*[#  1]+0.004*[#  2]+
          +0.004*[#  5]+
    |psi|^2 = 0.983
     e =  12.9196306033 eV
     psi = 0.315*[#  4]+0.315*[#  3]+0.315*[#  6]+0.015*[#  1]+0.005*[#  2]+
          +0.005*[#  5]+
    |psi|^2 = 0.970
     e =  14.5537301035 eV
     psi = 0.487*[#  5]+0.487*[#  2]+0.007*[#  1]+0.006*[#  4]+0.006*[#  3]+
          +0.006*[#  6]+
    |psi|^2 = 0.998
     e =  15.5686159733 eV
     psi = 0.330*[#  4]+0.330*[#  3]+0.330*[#  6]+0.004*[#  5]+0.004*[#  2]+
    |psi|^2 = 0.999
     e =  21.7950250806 eV
     psi = 0.180*[#  1]+0.015*[#  4]+0.015*[#  3]+0.015*[#  6]+0.006*[#  5]+
          +0.006*[#  2]+
    |psi|^2 = 0.238
     e =  24.1552589025 eV
     psi = 0.209*[#  1]+0.008*[#  4]+0.008*[#  3]+0.008*[#  6]+0.002*[#  2]+
          +0.002*[#  5]+
    |psi|^2 = 0.237
     e =  27.2391329784 eV
     psi = 0.216*[#  1]+0.008*[#  2]+0.008*[#  5]+
    |psi|^2 = 0.234

 k =   0.5000000000  0.0000000000  0.8333333333
     e =  11.7240648905 eV
     psi = 0.479*[#  2]+0.479*[#  5]+0.008*[#  1]+0.003*[#  4]+0.003*[#  3]+
          +0.003*[#  6]+
    |psi|^2 = 0.975
     e =  12.3398782828 eV
     psi = 0.303*[#  4]+0.303*[#  3]+0.303*[#  6]+0.049*[#  1]+0.013*[#  5]+
          +0.013*[#  2]+
    |psi|^2 = 0.983
     e =  12.5277011968 eV
     psi = 0.326*[#  4]+0.326*[#  3]+0.326*[#  6]+
    |psi|^2 = 0.978
     e =  14.4672235875 eV
     psi = 0.490*[#  5]+0.490*[#  2]+0.005*[#  1]+0.005*[#  4]+0.005*[#  3]+
          +0.005*[#  6]+
    |psi|^2 = 0.998
     e =  15.4533666610 eV
     psi = 0.333*[#  4]+0.333*[#  3]+0.333*[#  6]+
    |psi|^2 = 0.998
     e =  21.2952863993 eV
     psi = 0.417*[#  1]+0.021*[#  4]+0.021*[#  3]+0.021*[#  6]+0.010*[#  2]+
          +0.010*[#  5]+
    |psi|^2 = 0.498
     e =  24.3088559633 eV
     psi = 0.007*[#  4]+0.007*[#  3]+0.007*[#  6]+
    |psi|^2 = 0.022
     e =  26.9955014250 eV
     psi = 0.331*[#  1]+0.005*[#  5]+0.005*[#  2]+0.002*[#  4]+0.002*[#  3]+
          +0.002*[#  6]+
    |psi|^2 = 0.348

 k =  -0.3333333333 -1.0000000000  0.0000000000
     e =  11.2463877703 eV
     psi = 0.480*[#  2]+0.480*[#  5]+0.025*[#  1]+
    |psi|^2 = 0.986
     e =  11.7949190439 eV
     psi = 0.329*[#  4]+0.329*[#  3]+0.329*[#  6]+
    |psi|^2 = 0.988
     e =  13.5188285315 eV
     psi = 0.317*[#  4]+0.317*[#  3]+0.317*[#  6]+
    |psi|^2 = 0.952
     e =  14.7780372171 eV
     psi = 0.496*[#  5]+0.496*[#  2]+0.007*[#  1]+
    |psi|^2 = 0.999
     e =  15.6736555460 eV
     psi = 0.333*[#  4]+0.333*[#  3]+0.333*[#  6]+
    |psi|^2 = 0.999
     e =  21.2657361018 eV
     psi = 0.016*[#  4]+0.016*[#  3]+0.016*[#  6]+
    |psi|^2 = 0.047
     e =  25.8671167250 eV
     psi = 0.428*[#  1]+0.020*[#  2]+0.020*[#  5]+
    |psi|^2 = 0.467
     e =  26.4952640670 eV
     psi = 0.004*[#  4]+0.004*[#  3]+0.004*[#  6]+
    |psi|^2 = 0.011

 k =  -0.5000000000 -1.0000000000  0.0000000000
     e =  11.5604113639 eV
     psi = 0.491*[#  2]+0.491*[#  5]+
    |psi|^2 = 0.982
     e =  12.5091347997 eV
     psi = 0.325*[#  4]+0.325*[#  3]+0.325*[#  6]+
    |psi|^2 = 0.976
     e =  12.5091350214 eV
     psi = 0.325*[#  4]+0.325*[#  3]+0.325*[#  6]+
    |psi|^2 = 0.976
     e =  14.4806287061 eV
     psi = 0.491*[#  5]+0.491*[#  2]+0.018*[#  1]+
    |psi|^2 = 1.000
     e =  15.6739788263 eV
     psi = 0.333*[#  4]+0.333*[#  3]+0.333*[#  6]+
    |psi|^2 = 0.999
     e =  23.7659046373 eV
     psi = 0.008*[#  4]+0.008*[#  3]+0.008*[#  6]+
    |psi|^2 = 0.023
     e =  23.7659113173 eV
     psi = 0.008*[#  4]+0.008*[#  3]+0.008*[#  6]+
    |psi|^2 = 0.023
     e =  26.1524278776 eV
     psi = 0.009*[#  2]+0.009*[#  5]+
    |psi|^2 = 0.018

Lowdin Charges: 

     Atom #   1: total charge =   9.8849, s, p, d, f =   0.9347  0.0000  8.9501
                 spin up      =   5.2270, s, p, d, f =   0.4610  0.0000  4.7661
                 spin down    =   4.6578, s, p, d, f =   0.4738  0.0000  4.1841
                 polarization =   0.5692, s, p, d, f =  -0.0128  0.0000  0.5820
     Spilling Parameter:   0.0115
