                                                                                      
                                       ``:oss/                                        
                           `.+s+.     .+ys--yh+     `./ss+.                           
                          -sh//yy+`   +yy   +yy    -+h+-oyy                           
                          -yh- .oyy/.-sh.   .syo-.:sy-  /yh                           
                 `.-.`    `yh+   -oyyyo.     `/syys:    oys      `.`                  
               `/+ssys+-` `sh+      `                   oys`   .:osyo`                
               -yh- ./syyooyo`                          .sys+/oyo--yh/                
               `yy+    .-:-.                             `-/+/:`  -sh-                
                /yh.                                              oys                 
          ``..---hho---------`   .---------..`      `.-----.`    -hd+---.             
       `./osmNMMMMMMMMMMMMMMMs. +NNMMMMMMMMNNmh+.   yNMMMMMNm-  oNMMMMMNmo++:`        
       +sy--/sdMMMhyyyyyyyNMMh- .oyNMMmyyyyyhNMMm+` -yMMMdyyo:` .oyyNMMNhs+syy`       
       -yy/   /MMM+.`-+/``mMMy-   `mMMh:`````.dMMN:` `MMMy-`-dhhy```mMMy:``+hs        
        -yy+` /MMMo:-mMM+`-oo/.    mMMh:     `dMMN/`  dMMm:`dMMMMy..MMMo-.+yo`        
         .sys`/MMMMNNMMMs-         mMMmyooooymMMNo:   oMMM/sMMMMMM++MMN//oh:          
          `sh+/MMMhyyMMMs- `-`     mMMMMMMMMMNmy+-`   -MMMhMMMsmMMmdMMd/yy+           
    `-/+++oyy-/MMM+.`/hh/.`mNm:`   mMMd+/////:-.`      NMMMMMd/:NMMMMMy:/yyo/:.`      
   +os+//:-..-oMMMo:--:::-/MMMo. .-mMMd+---`           hMMMMN+. oMMMMMo. `-+osyso:`   
   syo     `mNMMMMMNNNNNNNNMMMo.oNNMMMMMNNNN:`         +MMMMs:`  dMMMN/`     ``:syo   
   /yh`     :syyyyyyyyyyyyyyyy+.`+syyyyyyyyo:`         .oyys:`   .oyys:`        +yh   
   -yh-        ````````````````    `````````              ``        ``          oys   
   -+h/------------------------::::::::://////++++++++++++++++++++++///////::::/yd:   
   shdddddddddddddddddddddddddddddhhhhhhhhyyyyyssssssssssssssssyyyyyyyhhhhhhhddddh`   
                                                                                      
  S. Ponce, E. R. Margine, C. Verdi, and F. Giustino,                                 
                                                Comput. Phys. Commun. 209, 116 (2016) 
                                                                                      

     Program EPW v.5.3.1 starts on 27May2021 at 16:19: 9 

     This program is part of the open-source Quantum ESPRESSO suite
     for quantum simulation of materials; please cite
         "P. Giannozzi et al., J. Phys.:Condens. Matter 21 395502 (2009);
         "P. Giannozzi et al., J. Phys.:Condens. Matter 29 465901 (2017);
         "P. Giannozzi et al., J. Chem. Phys. 152 154105 (2020);
          URL http://www.quantum-espresso.org", 
     in publications or presentations arising from this work. More details at
     http://www.quantum-espresso.org/quote

     Parallel version (MPI), running on     4 processors

     MPI processes distributed on     1 nodes
     K-points division:     npool     =       4
     Reading input from epw3.in

     Reading supplied temperature list.
                      
     ------------------------------------------------------------------------ 
                   RESTART - RESTART - RESTART - RESTART                         
     Restart is done without reading PWSCF save file.                  
     Be aware that some consistency checks are therefore not done.                  
     ------------------------------------------------------------------------ 
                      

     --                                                                         

     bravais-lattice index     =            0
     lattice parameter (a_0)   =       0.0000  a.u.
     unit-cell volume          =       0.0000 (a.u.)^3
     number of atoms/cell      =            0
     number of atomic types    =            0
     kinetic-energy cut-off    =       0.0000  Ry
     charge density cut-off    =       0.0000  Ry
     Exchange-correlation= not set
                           (  -1  -1  -1  -1  -1  -1  -1)


     celldm(1)=    0.00000  celldm(2)=    0.00000  celldm(3)=    0.00000
     celldm(4)=    0.00000  celldm(5)=    0.00000  celldm(6)=    0.00000

     crystal axes: (cart. coord. in units of a_0)
               a(1) = (  0.0000  0.0000  0.0000 )  
               a(2) = (  0.0000  0.0000  0.0000 )  
               a(3) = (  0.0000  0.0000  0.0000 )  

     reciprocal axes: (cart. coord. in units 2 pi/a_0)
               b(1) = (  0.0000  0.0000  0.0000 )  
               b(2) = (  0.0000  0.0000  0.0000 )  
               b(3) = (  0.0000  0.0000  0.0000 )  


     Atoms inside the unit cell: 

   Cartesian axes

     site n.  atom      mass           positions (a_0 units)

 
     No symmetry!

     G cutoff =    0.0000  (      0 G-vectors)     FFT grid: (  0,  0,  0)
     number of k points=    0
                       cart. coord. in units 2pi/a_0
     EPW          :      0.00s CPU      0.00s WALL

     EPW          :      0.00s CPU      0.00s WALL


     -------------------------------------------------------------------
     Using si.ukk from disk
     -------------------------------------------------------------------

     Symmetries of Bravais lattice:  48
     Symmetries of crystal:          48

     Do not need to read .epb files; read .fmt files


     Band disentanglement is used: nbndsub =    8
     Use zone-centred Wigner-Seitz cells 
     Number of WS vectors for electrons      279
     Number of WS vectors for phonons       19
     Number of WS vectors for electron-phonon       19
     Maximum number of cores for efficient parallelization      114
     Results may improve by using use_ws == .TRUE. 

     Reading Hamiltonian, Dynamical matrix and EP vertex in Wann rep from file


     Reading interatomic force constants

     Read Z* and epsilon
     IFC last   -0.0026115
     Norm of the difference between old and new effective charges:    0.0000000
     Norm of the difference between old and new force-constants:    0.0000073
     Imposed crystal ASR

     Finished reading ifcs


     Finished reading Wann rep data from file

     ===================================================================
     Memory usage:  VmHWM =        43Mb
                   VmPeak =       398Mb
     ===================================================================
     
     Using uniform q-mesh:    7   7   7
     Size of q point mesh for interpolation:        343
     Using uniform k-mesh:    7   7   7
     Size of k point mesh for interpolation:        686
     Max number of k points per pool:              172

     Fermi energy coarse grid =   6.255484 eV

     Fermi energy is calculated from the fine k-mesh: Ef =   6.602988 eV

     Warning: check if difference with Fermi level fine grid makes sense

     ===================================================================
     Applying a scissor shift of   0.70000 eV to the CB      5

              ibndmin =     2  ebndmin =     2.604 eV
              ibndmax =     7  ebndmax =    10.540 eV


     Number of ep-matrix elements per pool :        18576 ~=  145.12 Kb (@ 8 bytes/ DP)
     Number of elements per core       1803
      
     =============================================================================================
     BTE in the self-energy relaxation time approximation (SERTA)
     =============================================================================================

     =============================================================================================
       Temp     Fermi   Hole density  Population SR                  Hole mobility 
        [K]      [eV]     [cm^-3]      [h per cell]                    [cm^2/Vs]
     =============================================================================================

      400.000   6.8619   0.10000E+14  -0.91091E-12    0.536142E-02    0.107352E-02    0.977999E-03
                                                      0.107352E-02    0.509940E-02    0.124003E-02
                                                      0.977999E-03    0.124003E-02    0.519490E-02
      500.000   7.0136   0.10000E+14  -0.62582E-12    0.306495E-01    0.597245E-02    0.540902E-02
                                                      0.597245E-02    0.291040E-01    0.695461E-02
                                                      0.540902E-02    0.695461E-02    0.296673E-01
      
     =============================================================================================
     Start solving iterative Boltzmann Transport Equation
     =============================================================================================

     Iteration number:         1

     =============================================================================================
       Temp     Fermi   Hole density  Population SR                  Hole mobility 
        [K]      [eV]     [cm^-3]      [h per cell]                    [cm^2/Vs]
     =============================================================================================

      400.000   6.8619   0.10000E+14  -0.18207E-11    0.575126E-02    0.115432E-02    0.105880E-02
                                                      0.115432E-02    0.548924E-02    0.132083E-02
                                                      0.105880E-02    0.132083E-02    0.558475E-02
      500.000   7.0136   0.10000E+14  -0.12454E-11    0.329664E-01    0.641892E-02    0.585550E-02
                                                      0.641892E-02    0.314208E-01    0.740109E-02
                                                      0.585550E-02    0.740109E-02    0.319842E-01

                                                      0.329664E-01    Max error
     Iteration number:         2

     =============================================================================================
       Temp     Fermi   Hole density  Population SR                  Hole mobility 
        [K]      [eV]     [cm^-3]      [h per cell]                    [cm^2/Vs]
     =============================================================================================

      400.000   6.8619   0.10000E+14  -0.27303E-11    0.586630E-02    0.119690E-02    0.110138E-02
                                                      0.119690E-02    0.560428E-02    0.136341E-02
                                                      0.110138E-02    0.136341E-02    0.569979E-02
      500.000   7.0136   0.10000E+14  -0.18639E-11    0.336627E-01    0.668132E-02    0.611790E-02
                                                      0.668132E-02    0.321171E-01    0.766349E-02
                                                      0.611789E-02    0.766348E-02    0.326805E-01

                                                      0.696331E-03    Max error
     Iteration number:         3

     =============================================================================================
       Temp     Fermi   Hole density  Population SR                  Hole mobility 
        [K]      [eV]     [cm^-3]      [h per cell]                    [cm^2/Vs]
     =============================================================================================

      400.000   6.8619   0.10000E+14  -0.36396E-11    0.589361E-02    0.121138E-02    0.111586E-02
                                                      0.121138E-02    0.563158E-02    0.137788E-02
                                                      0.111586E-02    0.137788E-02    0.572709E-02
      500.000   7.0136   0.10000E+14  -0.24812E-11    0.338243E-01    0.676238E-02    0.619896E-02
                                                      0.676238E-02    0.322787E-01    0.774455E-02
                                                      0.619895E-02    0.774454E-02    0.328421E-01

                                                      0.161576E-03    Max error
     Iteration number:         4

     =============================================================================================
       Temp     Fermi   Hole density  Population SR                  Hole mobility 
        [K]      [eV]     [cm^-3]      [h per cell]                    [cm^2/Vs]
     =============================================================================================

      400.000   6.8619   0.10000E+14  -0.45488E-11    0.590065E-02    0.121515E-02    0.111964E-02
                                                      0.121515E-02    0.563863E-02    0.138166E-02
                                                      0.111963E-02    0.138166E-02    0.573413E-02
      500.000   7.0136   0.10000E+14  -0.30985E-11    0.338692E-01    0.678709E-02    0.622366E-02
                                                      0.678709E-02    0.323236E-01    0.776925E-02
                                                      0.622366E-02    0.776925E-02    0.328870E-01

                                                      0.448865E-04    Max error
     Iteration number:         5
     =============================================================================================
     The iteration reached the maximum but did not converge.
     =============================================================================================


     Unfolding on the coarse grid
     elphon_wrap  :      0.00s CPU      0.00s WALL (       1 calls)

     INITIALIZATION: 




     Electron-Phonon interpolation
     ephwann      :      0.18s CPU      0.18s WALL (       1 calls)

     HamW2B       :      0.00s CPU      0.00s WALL (     172 calls)


     Total program execution
     EPW          :      0.18s CPU      0.19s WALL

     ===============================================================================
     The functionality-dependent EPW.bib file was created with suggested citations. 
     Please consider citing the papers listed in EPW.bib.                           
     ===============================================================================
                                                                                    
