
     Program PHONON v.5.0.2 (svn rev. 9400) starts on  6Dec2012 at 16: 8:43 

     This program is part of the open-source Quantum ESPRESSO suite
     for quantum simulation of materials; please cite
         "P. Giannozzi et al., J. Phys.:Condens. Matter 21 395502 (2009);
          URL http://www.quantum-espresso.org", 
     in publications or presentations arising from this work. More details at
     http://www.quantum-espresso.org/quote.php

     Serial version

     Ultrasoft (Vanderbilt) Pseudopotentials

   Info: using nr1, nr2, nr3 values from input

   Info: using nr1s, nr2s, nr3s values from input

     IMPORTANT: XC functional enforced from input :
     Exchange-correlation      =  SLA  PZ   NOGX NOGC ( 1 1 0 0 0)
     EXX-fraction              =        0.00
     Any further DFT definition will be discarded
     Please, verify this is what you really want

               file C.pz-rrkjus.UPF: wavefunction(s)  2S renormalized
 
     G-vector sticks info
     --------------------
     sticks:   dense  smooth     PW     G-vecs:    dense   smooth      PW
     Sum         475     163     61                 6735     1459     331
 

     Calculation of q =    0.0000000   0.0000000   0.0000000

                                                                                

     bravais-lattice index     =            2
     lattice parameter (alat)  =       6.7400  a.u.
     unit-cell volume          =      76.5455 (a.u.)^3
     number of atoms/cell      =            2
     number of atomic types    =            1
     kinetic-energy cut-off    =      27.0000  Ry
     charge density cut-off    =     300.0000  Ry
     convergence threshold     =      1.0E-14
     beta                      =       0.7000
     number of iterations used =            4
     Exchange-correlation      =  SLA  PZ   NOGX NOGC ( 1 1 0 0 0)
     EXX-fraction              =        0.00


     celldm(1)=    6.74000  celldm(2)=    0.00000  celldm(3)=    0.00000
     celldm(4)=    0.00000  celldm(5)=    0.00000  celldm(6)=    0.00000

     crystal axes: (cart. coord. in units of alat)
               a(1) = ( -0.5000  0.0000  0.5000 )  
               a(2) = (  0.0000  0.5000  0.5000 )  
               a(3) = ( -0.5000  0.5000  0.0000 )  

     reciprocal axes: (cart. coord. in units 2 pi/alat)
               b(1) = ( -1.0000 -1.0000  1.0000 )  
               b(2) = (  1.0000  1.0000  1.0000 )  
               b(3) = ( -1.0000  1.0000 -1.0000 )  


     Atoms inside the unit cell: 

   Cartesian axes

     site n.  atom      mass           positions (alat units)
        1        C   12.0107   tau( 1) = (    0.00000    0.00000    0.00000  )
        2        C   12.0107   tau( 2) = (    0.25000    0.25000    0.25000  )

     Computing dynamical matrix for 
                    q = (   0.0000000   0.0000000   0.0000000 )
 
     49 Sym.Ops. (with q -> -q+G )


     G cutoff =  345.2084  (   6735 G-vectors)     FFT grid: ( 32, 32, 32)
     G cutoff =  124.2750  (   1459 G-vectors)  smooth grid: ( 15, 15, 15)
     number of k points=    10
                       cart. coord. in units 2pi/alat
        k(    1) = (  -0.1250000   0.1250000   0.1250000), wk =   0.0625000
        k(    2) = (  -0.3750000   0.3750000  -0.1250000), wk =   0.1875000
        k(    3) = (   0.3750000  -0.3750000   0.6250000), wk =   0.1875000
        k(    4) = (   0.1250000  -0.1250000   0.3750000), wk =   0.1875000
        k(    5) = (  -0.1250000   0.6250000   0.1250000), wk =   0.1875000
        k(    6) = (   0.6250000  -0.1250000   0.8750000), wk =   0.3750000
        k(    7) = (   0.3750000   0.1250000   0.6250000), wk =   0.3750000
        k(    8) = (  -0.1250000  -0.8750000   0.1250000), wk =   0.1875000
        k(    9) = (  -0.3750000   0.3750000   0.3750000), wk =   0.0625000
        k(   10) = (   0.3750000  -0.3750000   1.1250000), wk =   0.1875000

     PseudoPot. # 1 for C  read from file:
     /home/giannozz/trunk/espresso/pseudo/C.pz-rrkjus.UPF
     MD5 check sum: a648be5dbf3fafdfb4e35f5396849845
     Pseudo is Ultrasoft, Zval =  4.0
     Generated by new atomic code, or converted to UPF format
     Using radial grid of 1425 points,  4 beta functions with: 
                l(1) =   0
                l(2) =   0
                l(3) =   1
                l(4) =   1
     Q(r) pseudized with 0 coefficients 



     Electric field:
     Dielectric constant
     Born effective charges as d Force / d E


     Atomic displacements:
     There are   2 irreducible representations

     Representation     1      3 modes -T_2g G_25' G_5+  To be done

     Representation     2      3 modes -T_1u G_15  G_4-  To be done



     Alpha used in Ewald sum =   2.8000
     PHONON       :     1.00s CPU         1.06s WALL


     Electric Fields Calculation

      iter #   1 total cpu time :     1.8 secs   av.it.:   6.1
      thresh= 0.100E-01 alpha_mix =  0.700 |ddv_scf|^2 =  0.128E-07

      iter #   2 total cpu time :     2.2 secs   av.it.:  11.2
      thresh= 0.113E-04 alpha_mix =  0.700 |ddv_scf|^2 =  0.163E-09

      iter #   3 total cpu time :     3.0 secs   av.it.:  11.4
      thresh= 0.128E-05 alpha_mix =  0.700 |ddv_scf|^2 =  0.752E-11

      iter #   4 total cpu time :     3.6 secs   av.it.:  11.6
      thresh= 0.274E-06 alpha_mix =  0.700 |ddv_scf|^2 =  0.118E-13

      iter #   5 total cpu time :     4.1 secs   av.it.:  11.0
      thresh= 0.109E-07 alpha_mix =  0.700 |ddv_scf|^2 =  0.202E-17

     End of electric fields calculation

          Dielectric constant in cartesian axis 

          (       5.756035041       0.000000000       0.000000000 )
          (       0.000000000       5.756035041       0.000000000 )
          (       0.000000000       0.000000000       5.756035041 )

          Effective charges (d Force / dE) in cartesian axis

           atom      1   C  
      Ex  (        0.04185        0.00000        0.00000 )
      Ey  (        0.00000        0.04185        0.00000 )
      Ez  (        0.00000        0.00000        0.04185 )
           atom      2   C  
      Ex  (        0.04185        0.00000        0.00000 )
      Ey  (        0.00000        0.04185        0.00000 )
      Ez  (        0.00000        0.00000        0.04185 )


     Representation #  1 modes #   1  2  3

     Self-consistent Calculation

      iter #   1 total cpu time :     4.8 secs   av.it.:   6.7
      thresh= 0.100E-01 alpha_mix =  0.700 |ddv_scf|^2 =  0.240E-06

      iter #   2 total cpu time :     5.4 secs   av.it.:  11.2
      thresh= 0.490E-04 alpha_mix =  0.700 |ddv_scf|^2 =  0.811E-09

      iter #   3 total cpu time :     5.9 secs   av.it.:  11.2
      thresh= 0.285E-05 alpha_mix =  0.700 |ddv_scf|^2 =  0.156E-10

      iter #   4 total cpu time :     6.5 secs   av.it.:  10.2
      thresh= 0.395E-06 alpha_mix =  0.700 |ddv_scf|^2 =  0.105E-13

      iter #   5 total cpu time :     7.0 secs   av.it.:  11.2
      thresh= 0.103E-07 alpha_mix =  0.700 |ddv_scf|^2 =  0.167E-16

     End of self-consistent calculation

     Convergence has been achieved 


     Representation #  2 modes #   4  5  6

     Self-consistent Calculation

      iter #   1 total cpu time :     7.4 secs   av.it.:   6.6
      thresh= 0.100E-01 alpha_mix =  0.700 |ddv_scf|^2 =  0.158E-06

      iter #   2 total cpu time :     8.0 secs   av.it.:  11.1
      thresh= 0.398E-04 alpha_mix =  0.700 |ddv_scf|^2 =  0.248E-09

      iter #   3 total cpu time :     8.5 secs   av.it.:  10.2
      thresh= 0.157E-05 alpha_mix =  0.700 |ddv_scf|^2 =  0.211E-10

      iter #   4 total cpu time :     9.4 secs   av.it.:  10.5
      thresh= 0.459E-06 alpha_mix =  0.700 |ddv_scf|^2 =  0.934E-14

     End of self-consistent calculation

     Convergence has been achieved 
 
     Number of q in the star =    1
     List of q in the star:
          1   0.000000000   0.000000000   0.000000000

          Dielectric constant in cartesian axis 

          (       5.756035041       0.000000000       0.000000000 )
          (       0.000000000       5.756035041       0.000000000 )
          (       0.000000000       0.000000000       5.756035041 )

          Effective charges (d Force / dE) in cartesian axis

           atom      1   C  
      Ex  (        0.04185        0.00000        0.00000 )
      Ey  (        0.00000        0.04185        0.00000 )
      Ez  (        0.00000        0.00000        0.04185 )
           atom      2   C  
      Ex  (        0.04185        0.00000        0.00000 )
      Ey  (        0.00000        0.04185        0.00000 )
      Ez  (        0.00000        0.00000        0.04185 )

     Diagonalizing the dynamical matrix

     q = (    0.000000000   0.000000000   0.000000000 ) 

 **************************************************************************
     omega( 1) =       0.707828 [THz] =      23.610596 [cm-1]
     omega( 2) =       0.707828 [THz] =      23.610596 [cm-1]
     omega( 3) =       0.707828 [THz] =      23.610596 [cm-1]
     omega( 4) =      38.441568 [THz] =    1282.272681 [cm-1]
     omega( 5) =      38.441568 [THz] =    1282.272681 [cm-1]
     omega( 6) =      38.441568 [THz] =    1282.272681 [cm-1]
 **************************************************************************

     Mode symmetry, O_h (m-3m)  point group:

     omega(  1 -  3) =         23.6  [cm-1]   --> T_1u G_15  G_4- I  
     omega(  4 -  6) =       1282.3  [cm-1]   --> T_2g G_25' G_5+ R  
 
     PHONON       :     7.87s CPU         9.39s WALL

     INITIALIZATION: 
     phq_setup    :      0.01s CPU      0.01s WALL (       1 calls)
     phq_init     :      0.24s CPU      0.26s WALL (       1 calls)
 
     phq_init     :      0.24s CPU      0.26s WALL (       1 calls)
     init_vloc    :      0.00s CPU      0.00s WALL (       1 calls)
     init_us_1    :      0.29s CPU      0.30s WALL (       1 calls)
     newd         :      0.01s CPU      0.01s WALL (       1 calls)
     dvanqq       :      0.06s CPU      0.07s WALL (       1 calls)
     drho         :      0.07s CPU      0.08s WALL (       1 calls)
     cmpt_qdipol  :      0.00s CPU      0.00s WALL (       1 calls)
 
     DIELECTRIC CONSTANT AND EFFECTIVE CHARGES:
     solve_e      :      2.32s CPU      3.01s WALL (       1 calls)
     dielec       :      0.00s CPU      0.00s WALL (       1 calls)
     zstar_eu     :      0.31s CPU      0.33s WALL (       1 calls)
 
     DYNAMICAL MATRIX:
     dynmat0      :      0.01s CPU      0.01s WALL (       1 calls)
     phqscf       :      4.23s CPU      4.98s WALL (       1 calls)
     dynmatrix    :      0.00s CPU      0.00s WALL (       1 calls)
 
     phqscf       :      4.23s CPU      4.98s WALL (       1 calls)
     solve_linter :      4.21s CPU      4.95s WALL (       2 calls)
     drhodv       :      0.01s CPU      0.01s WALL (       2 calls)
 
     dynmat0      :      0.01s CPU      0.01s WALL (       1 calls)
     dynmat_us    :      0.01s CPU      0.01s WALL (       1 calls)
     d2ionq       :      0.00s CPU      0.00s WALL (       1 calls)
 
     dynmat_us    :      0.01s CPU      0.01s WALL (       1 calls)
     addusdynmat  :      0.00s CPU      0.00s WALL (       1 calls)
 
     phqscf       :      4.23s CPU      4.98s WALL (       1 calls)
     solve_linter :      4.21s CPU      4.95s WALL (       2 calls)
 
     solve_linter :      4.21s CPU      4.95s WALL (       2 calls)
     dvqpsi_us    :      0.07s CPU      0.07s WALL (     120 calls)
     ortho        :      0.03s CPU      0.03s WALL (     450 calls)
     cgsolve      :      2.80s CPU      3.14s WALL (     450 calls)
     incdrhoscf   :      0.20s CPU      0.18s WALL (     450 calls)
     addusddens   :      0.14s CPU      0.15s WALL (      11 calls)
     vpsifft      :      0.08s CPU      0.07s WALL (     210 calls)
     dv_of_drho   :      0.07s CPU      0.08s WALL (      45 calls)
     mix_pot      :      0.11s CPU      0.37s WALL (      14 calls)
     symdvscf     :      1.90s CPU      1.96s WALL (       9 calls)
     newdq        :      0.29s CPU      0.30s WALL (      14 calls)
     adddvscf     :      0.02s CPU      0.01s WALL (     330 calls)
     drhodvus     :      0.01s CPU      0.01s WALL (       2 calls)
 
     dvqpsi_us    :      0.07s CPU      0.07s WALL (     120 calls)
     dvqpsi_us_on :      0.02s CPU      0.02s WALL (     120 calls)
 
     cgsolve      :      2.80s CPU      3.14s WALL (     450 calls)
     ch_psi       :      2.72s CPU      3.08s WALL (    5690 calls)
 
     ch_psi       :      2.72s CPU      3.08s WALL (    5690 calls)
     h_psiq       :      2.37s CPU      2.67s WALL (    5690 calls)
     last         :      0.31s CPU      0.38s WALL (    5690 calls)
 
     h_psiq       :      2.37s CPU      2.67s WALL (    5690 calls)
     firstfft     :      1.21s CPU      1.32s WALL (   20020 calls)
     secondfft    :      0.64s CPU      0.76s WALL (   20020 calls)
     add_vuspsi   :      0.10s CPU      0.12s WALL (    5690 calls)
 
     incdrhoscf   :      0.20s CPU      0.18s WALL (     450 calls)
     addusdbec    :      0.02s CPU      0.02s WALL (     510 calls)
 
     drhodvus     :      0.01s CPU      0.01s WALL (       2 calls)
 
      General routines
     calbec       :      0.33s CPU      0.32s WALL (   14180 calls)
     fft          :      0.11s CPU      0.14s WALL (     328 calls)
     ffts         :      0.02s CPU      0.02s WALL (     232 calls)
     fftw         :      1.44s CPU      1.63s WALL (   47520 calls)
     cinterpolate :      0.04s CPU      0.06s WALL (      93 calls)
     davcio       :      0.07s CPU      0.96s WALL (    2279 calls)
     write_rec    :      0.04s CPU      0.12s WALL (      16 calls)
 
 
     PHONON       :     7.87s CPU         9.39s WALL

 
   This run was terminated on:  16: 8:52   6Dec2012            

=------------------------------------------------------------------------------=
   JOB DONE.
=------------------------------------------------------------------------------=
