
     Program PHONON v.5.0.2 (svn rev. 9400) starts on  6Dec2012 at 16: 8:16 

     This program is part of the open-source Quantum ESPRESSO suite
     for quantum simulation of materials; please cite
         "P. Giannozzi et al., J. Phys.:Condens. Matter 21 395502 (2009);
          URL http://www.quantum-espresso.org", 
     in publications or presentations arising from this work. More details at
     http://www.quantum-espresso.org/quote.php

     Serial version

     Ultrasoft (Vanderbilt) Pseudopotentials

   Info: using nr1, nr2, nr3 values from input

   Info: using nr1s, nr2s, nr3s values from input

     IMPORTANT: XC functional enforced from input :
     Exchange-correlation      =  SLA  PZ   NOGX NOGC ( 1 1 0 0 0)
     EXX-fraction              =        0.00
     Any further DFT definition will be discarded
     Please, verify this is what you really want

 
     G-vector sticks info
     --------------------
     sticks:   dense  smooth     PW     G-vecs:    dense   smooth      PW
     Sum         253     253     85                 2733     2733     531
 

     Calculation of q =    0.0000000   0.0000000   0.0000000

                                                                                

     bravais-lattice index     =            2
     lattice parameter (alat)  =      10.2000  a.u.
     unit-cell volume          =     265.3020 (a.u.)^3
     number of atoms/cell      =            2
     number of atomic types    =            1
     kinetic-energy cut-off    =      18.0000  Ry
     charge density cut-off    =      72.0000  Ry
     convergence threshold     =      1.0E-14
     beta                      =       0.7000
     number of iterations used =            4
     Exchange-correlation      =  SLA  PZ   NOGX NOGC ( 1 1 0 0 0)
     EXX-fraction              =        0.00


     celldm(1)=   10.20000  celldm(2)=    0.00000  celldm(3)=    0.00000
     celldm(4)=    0.00000  celldm(5)=    0.00000  celldm(6)=    0.00000

     crystal axes: (cart. coord. in units of alat)
               a(1) = ( -0.5000  0.0000  0.5000 )  
               a(2) = (  0.0000  0.5000  0.5000 )  
               a(3) = ( -0.5000  0.5000  0.0000 )  

     reciprocal axes: (cart. coord. in units 2 pi/alat)
               b(1) = ( -1.0000 -1.0000  1.0000 )  
               b(2) = (  1.0000  1.0000  1.0000 )  
               b(3) = ( -1.0000  1.0000 -1.0000 )  


     Atoms inside the unit cell: 

   Cartesian axes

     site n.  atom      mass           positions (alat units)
        1        Si  28.0800   tau( 1) = (    0.00000    0.00000    0.00000  )
        2        Si  28.0800   tau( 2) = (    0.25000    0.25000    0.25000  )

     Computing dynamical matrix for 
                    q = (   0.0000000   0.0000000   0.0000000 )
 
     49 Sym.Ops. (with q -> -q+G )


     G cutoff =  189.7462  (   2733 G-vectors)     FFT grid: ( 20, 20, 20)
     number of k points=    10
                       cart. coord. in units 2pi/alat
        k(    1) = (   0.1250000   0.1250000   0.1250000), wk =   0.0625000
        k(    2) = (   0.1250000   0.1250000   0.3750000), wk =   0.1875000
        k(    3) = (   0.1250000   0.1250000   0.6250000), wk =   0.1875000
        k(    4) = (   0.1250000   0.1250000   0.8750000), wk =   0.1875000
        k(    5) = (   0.1250000   0.3750000   0.3750000), wk =   0.1875000
        k(    6) = (   0.1250000   0.3750000   0.6250000), wk =   0.3750000
        k(    7) = (   0.1250000   0.3750000   0.8750000), wk =   0.3750000
        k(    8) = (   0.1250000   0.6250000   0.6250000), wk =   0.1875000
        k(    9) = (   0.3750000   0.3750000   0.3750000), wk =   0.0625000
        k(   10) = (   0.3750000   0.3750000   0.6250000), wk =   0.1875000

     PseudoPot. # 1 for Si read from file:
     /home/giannozz/trunk/espresso/pseudo/Si.pz-vbc.UPF
     MD5 check sum: 6dfa03ddd5817404712e03e4d12deb78
     Pseudo is Norm-conserving, Zval =  4.0
     Generated by new atomic code, or converted to UPF format
     Using radial grid of  431 points,  2 beta functions with: 
                l(1) =   0
                l(2) =   1


     Electric field:
     Dielectric constant
     Born effective charges as d Force / d E


     Atomic displacements:
     There are   2 irreducible representations

     Representation     1      3 modes -T_2g G_25' G_5+  To be done

     Representation     2      3 modes -T_1u G_15  G_4-  To be done



     Alpha used in Ewald sum =   0.7000
     PHONON       :     0.46s CPU         0.50s WALL


     Electric Fields Calculation

      iter #   1 total cpu time :     1.2 secs   av.it.:   5.5
      thresh= 0.100E-01 alpha_mix =  0.700 |ddv_scf|^2 =  0.888E-06

      iter #   2 total cpu time :     1.6 secs   av.it.:   9.3
      thresh= 0.942E-04 alpha_mix =  0.700 |ddv_scf|^2 =  0.337E-07

      iter #   3 total cpu time :     1.9 secs   av.it.:   9.2
      thresh= 0.183E-04 alpha_mix =  0.700 |ddv_scf|^2 =  0.354E-09

      iter #   4 total cpu time :     2.2 secs   av.it.:   9.3
      thresh= 0.188E-05 alpha_mix =  0.700 |ddv_scf|^2 =  0.152E-11

      iter #   5 total cpu time :     2.6 secs   av.it.:   9.0
      thresh= 0.123E-06 alpha_mix =  0.700 |ddv_scf|^2 =  0.188E-14

     End of electric fields calculation

          Dielectric constant in cartesian axis 

          (      13.806375309       0.000000000       0.000000000 )
          (       0.000000000      13.806375309       0.000000000 )
          (       0.000000000       0.000000000      13.806375309 )

          Effective charges (d Force / dE) in cartesian axis

           atom      1   Si 
      Ex  (       -0.07568        0.00000        0.00000 )
      Ey  (        0.00000       -0.07568        0.00000 )
      Ez  (        0.00000        0.00000       -0.07568 )
           atom      2   Si 
      Ex  (       -0.07568        0.00000        0.00000 )
      Ey  (        0.00000       -0.07568        0.00000 )
      Ez  (        0.00000        0.00000       -0.07568 )


     Representation #  1 modes #   1  2  3

     Self-consistent Calculation

      iter #   1 total cpu time :     2.9 secs   av.it.:   5.0
      thresh= 0.100E-01 alpha_mix =  0.700 |ddv_scf|^2 =  0.190E-06

      iter #   2 total cpu time :     3.2 secs   av.it.:   9.6
      thresh= 0.435E-04 alpha_mix =  0.700 |ddv_scf|^2 =  0.328E-08

      iter #   3 total cpu time :     3.6 secs   av.it.:   9.5
      thresh= 0.573E-05 alpha_mix =  0.700 |ddv_scf|^2 =  0.333E-10

      iter #   4 total cpu time :     3.9 secs   av.it.:   8.8
      thresh= 0.577E-06 alpha_mix =  0.700 |ddv_scf|^2 =  0.326E-13

      iter #   5 total cpu time :     4.3 secs   av.it.:   9.4
      thresh= 0.180E-07 alpha_mix =  0.700 |ddv_scf|^2 =  0.326E-15

     End of self-consistent calculation

     Convergence has been achieved 


     Representation #  2 modes #   4  5  6

     Self-consistent Calculation

      iter #   1 total cpu time :     4.6 secs   av.it.:   5.0
      thresh= 0.100E-01 alpha_mix =  0.700 |ddv_scf|^2 =  0.133E-06

      iter #   2 total cpu time :     5.0 secs   av.it.:   9.5
      thresh= 0.365E-04 alpha_mix =  0.700 |ddv_scf|^2 =  0.476E-08

      iter #   3 total cpu time :     5.3 secs   av.it.:   9.4
      thresh= 0.690E-05 alpha_mix =  0.700 |ddv_scf|^2 =  0.441E-10

      iter #   4 total cpu time :     5.7 secs   av.it.:   9.2
      thresh= 0.664E-06 alpha_mix =  0.700 |ddv_scf|^2 =  0.976E-13

      iter #   5 total cpu time :     6.0 secs   av.it.:   9.5
      thresh= 0.312E-07 alpha_mix =  0.700 |ddv_scf|^2 =  0.134E-14

     End of self-consistent calculation

     Convergence has been achieved 
 
     Number of q in the star =    1
     List of q in the star:
          1   0.000000000   0.000000000   0.000000000

          Dielectric constant in cartesian axis 

          (      13.806375309       0.000000000       0.000000000 )
          (       0.000000000      13.806375309       0.000000000 )
          (       0.000000000       0.000000000      13.806375309 )

          Effective charges (d Force / dE) in cartesian axis

           atom      1   Si 
      Ex  (       -0.07568        0.00000        0.00000 )
      Ey  (        0.00000       -0.07568        0.00000 )
      Ez  (        0.00000        0.00000       -0.07568 )
           atom      2   Si 
      Ex  (       -0.07568        0.00000        0.00000 )
      Ey  (        0.00000       -0.07568        0.00000 )
      Ez  (        0.00000        0.00000       -0.07568 )

     Diagonalizing the dynamical matrix

     q = (    0.000000000   0.000000000   0.000000000 ) 

 **************************************************************************
     omega( 1) =       0.100037 [THz] =       3.336885 [cm-1]
     omega( 2) =       0.100037 [THz] =       3.336885 [cm-1]
     omega( 3) =       0.100037 [THz] =       3.336885 [cm-1]
     omega( 4) =      15.294119 [THz] =     510.156908 [cm-1]
     omega( 5) =      15.294119 [THz] =     510.156908 [cm-1]
     omega( 6) =      15.294119 [THz] =     510.156908 [cm-1]
 **************************************************************************

     Mode symmetry, O_h (m-3m)  point group:

     omega(  1 -  3) =          3.3  [cm-1]   --> T_1u G_15  G_4- I  
     omega(  4 -  6) =        510.2  [cm-1]   --> T_2g G_25' G_5+ R  
 
     PHONON       :     5.58s CPU         6.07s WALL

     INITIALIZATION: 
     phq_setup    :      0.00s CPU      0.01s WALL (       1 calls)
     phq_init     :      0.02s CPU      0.02s WALL (       1 calls)
 
     phq_init     :      0.02s CPU      0.02s WALL (       1 calls)
     init_vloc    :      0.00s CPU      0.00s WALL (       1 calls)
     init_us_1    :      0.01s CPU      0.01s WALL (       1 calls)
 
     DIELECTRIC CONSTANT AND EFFECTIVE CHARGES:
     solve_e      :      1.92s CPU      2.07s WALL (       1 calls)
     dielec       :      0.00s CPU      0.00s WALL (       1 calls)
     zstar_eu     :      0.06s CPU      0.06s WALL (       1 calls)
 
     DYNAMICAL MATRIX:
     dynmat0      :      0.00s CPU      0.01s WALL (       1 calls)
     phqscf       :      3.13s CPU      3.43s WALL (       1 calls)
     dynmatrix    :      0.00s CPU      0.00s WALL (       1 calls)
 
     phqscf       :      3.13s CPU      3.43s WALL (       1 calls)
     solve_linter :      3.11s CPU      3.41s WALL (       2 calls)
     drhodv       :      0.01s CPU      0.01s WALL (       2 calls)
 
     dynmat0      :      0.00s CPU      0.01s WALL (       1 calls)
     dynmat_us    :      0.00s CPU      0.00s WALL (       1 calls)
     d2ionq       :      0.00s CPU      0.00s WALL (       1 calls)
 
     dynmat_us    :      0.00s CPU      0.00s WALL (       1 calls)
 
     phqscf       :      3.13s CPU      3.43s WALL (       1 calls)
     solve_linter :      3.11s CPU      3.41s WALL (       2 calls)
 
     solve_linter :      3.11s CPU      3.41s WALL (       2 calls)
     dvqpsi_us    :      0.12s CPU      0.12s WALL (     120 calls)
     ortho        :      0.01s CPU      0.02s WALL (     480 calls)
     cgsolve      :      3.64s CPU      3.87s WALL (     480 calls)
     incdrhoscf   :      0.26s CPU      0.33s WALL (     450 calls)
     vpsifft      :      0.17s CPU      0.17s WALL (     240 calls)
     dv_of_drho   :      0.01s CPU      0.02s WALL (      45 calls)
     mix_pot      :      0.04s CPU      0.05s WALL (      15 calls)
     symdvscf     :      0.50s CPU      0.52s WALL (      10 calls)
 
     dvqpsi_us    :      0.12s CPU      0.12s WALL (     120 calls)
     dvqpsi_us_on :      0.00s CPU      0.01s WALL (     120 calls)
 
     cgsolve      :      3.64s CPU      3.87s WALL (     480 calls)
     ch_psi       :      3.58s CPU      3.77s WALL (    5026 calls)
 
     ch_psi       :      3.58s CPU      3.77s WALL (    5026 calls)
     h_psiq       :      3.25s CPU      3.43s WALL (    5026 calls)
     last         :      0.27s CPU      0.32s WALL (    5026 calls)
 
     h_psiq       :      3.25s CPU      3.43s WALL (    5026 calls)
     firstfft     :      1.39s CPU      1.44s WALL (   18183 calls)
     secondfft    :      1.38s CPU      1.41s WALL (   18183 calls)
     add_vuspsi   :      0.09s CPU      0.10s WALL (    5026 calls)
 
     incdrhoscf   :      0.26s CPU      0.33s WALL (     450 calls)
 
 
      General routines
     calbec       :      0.20s CPU      0.25s WALL (   10422 calls)
     fft          :      0.01s CPU      0.02s WALL (     139 calls)
     ffts         :      0.02s CPU      0.02s WALL (     132 calls)
     fftw         :      3.02s CPU      3.13s WALL (   43806 calls)
     davcio       :      0.04s CPU      0.11s WALL (    1878 calls)
     write_rec    :      0.04s CPU      0.08s WALL (      17 calls)
 
 
     PHONON       :     5.58s CPU         6.08s WALL

 
   This run was terminated on:  16: 8:22   6Dec2012            

=------------------------------------------------------------------------------=
   JOB DONE.
=------------------------------------------------------------------------------=
