
     Program PWSCF v.6.beta (svn rev. 12992:12993) starts on 21Sep2016 at 13: 7:46 

     This program is part of the open-source Quantum ESPRESSO suite
     for quantum simulation of materials; please cite
         "P. Giannozzi et al., J. Phys.:Condens. Matter 21 395502 (2009);
          URL http://www.quantum-espresso.org", 
     in publications or presentations arising from this work. More details at
     http://www.quantum-espresso.org/quote

           HOST :    @host@
           ARCH :    x86_64
             CC :    cc
            CPP :    cpp
            F90 :    mpif90
            F77 :    gfortran
         DFLAGS :    -D__GFORTRAN -D__STD_F95 -D__FFTW -D__MPI -D__XSD
      BLAS LIBS :    
    LAPACK LIBS :    $(TOPDIR)/LAPACK/liblapack.a $(TOPDIR)/LAPACK/libblas.a
       FFT LIBS :    
      MASS LIBS :    

     Parallel version (MPI), running on     1 processors
     Waiting for input...
     Reading input from standard input
     Message from routine read_cards :
     DEPRECATED: no units specified in ATOMIC_POSITIONS card
     Message from routine read_cards :
     ATOMIC_POSITIONS: units set to alat

     Current dimensions of program PWSCF are:
     Max number of different atomic species (ntypx) = 10
     Max number of k-points (npk) =  40000
     Max angular momentum in pseudopotentials (lmaxx) =  3
               file Fe.pz-nd-rrkjus.UPF: wavefunction(s)  4S renormalized

     Subspace diagonalization in iterative solution of the eigenvalue problem:
     a serial algorithm will be used


     G-vector sticks info
     --------------------
     sticks:   dense  smooth     PW     G-vecs:    dense   smooth      PW
     Sum         307     155     55                 3367     1205     249



     bravais-lattice index     =            3
     lattice parameter (alat)  =       5.2170  a.u.
     unit-cell volume          =      70.9958 (a.u.)^3
     number of atoms/cell      =            1
     number of atomic types    =            1
     number of electrons       =         8.00
     number of Kohn-Sham states=           16
     kinetic-energy cutoff     =      25.0000  Ry
     charge density cutoff     =     200.0000  Ry
     convergence threshold     =      1.0E-08
     mixing beta               =       0.2000
     number of iterations used =            8  plain     mixing
     Exchange-correlation      =  SLA  PZ   NOGX NOGC ( 1  1  0  0 0 0)
     Noncollinear calculation without spin-orbit


     celldm(1)=   5.217000  celldm(2)=   0.000000  celldm(3)=   0.000000
     celldm(4)=   0.000000  celldm(5)=   0.000000  celldm(6)=   0.000000

     crystal axes: (cart. coord. in units of alat)
               a(1) = (   0.500000   0.500000   0.500000 )  
               a(2) = (  -0.500000   0.500000   0.500000 )  
               a(3) = (  -0.500000  -0.500000   0.500000 )  

     reciprocal axes: (cart. coord. in units 2 pi/alat)
               b(1) = (  1.000000  0.000000  1.000000 )  
               b(2) = ( -1.000000  1.000000  0.000000 )  
               b(3) = (  0.000000 -1.000000  1.000000 )  


     PseudoPot. # 1 for Fe read from file:
     /home/pietro/trunk/espresso/pseudo/Fe.pz-nd-rrkjus.UPF
     MD5 check sum: 2e083728ad07023434bc1cc596eb954d
     Pseudo is Ultrasoft + core correction, Zval =  8.0
     Generated by new atomic code, or converted to UPF format
     Using radial grid of  957 points,  6 beta functions with: 
                l(1) =   0
                l(2) =   0
                l(3) =   1
                l(4) =   1
                l(5) =   2
                l(6) =   2
     Q(r) pseudized with 0 coefficients 


     atomic species   valence    mass     pseudopotential
        Fe             8.00    55.84700     Fe( 1.00)

      4 Sym. Ops., with inversion, found



   Cartesian axes

     site n.     atom                  positions (alat units)
         1           Fe  tau(   1) = (   0.0000000   0.0000000   0.0000000  )

     number of k points=    70  Marzari-Vanderbilt smearing, width (Ry)=  0.0500
                       cart. coord. in units 2pi/alat
        k(    1) = (   0.0625000   0.0625000   0.0625000), wk =   0.0135135
        k(    2) = (   0.0625000   0.0625000   0.1875000), wk =   0.0135135
        k(    3) = (   0.0625000   0.0625000   0.3125000), wk =   0.0135135
        k(    4) = (   0.0625000   0.0625000   0.4375000), wk =   0.0135135
        k(    5) = (   0.0625000   0.0625000   0.5625000), wk =   0.0135135
        k(    6) = (   0.0625000   0.0625000   0.6875000), wk =   0.0135135
        k(    7) = (   0.0625000   0.0625000   0.8125000), wk =   0.0135135
        k(    8) = (   0.0625000   0.0625000   0.9375000), wk =   0.0405405
        k(    9) = (   0.0625000   0.1875000   0.1875000), wk =   0.0135135
        k(   10) = (   0.0625000   0.1875000   0.3125000), wk =   0.0135135
        k(   11) = (   0.0625000   0.1875000   0.4375000), wk =   0.0135135
        k(   12) = (   0.0625000   0.0625000  -0.0625000), wk =   0.0135135
        k(   13) = (   0.0625000   0.0625000  -0.1875000), wk =   0.0135135
        k(   14) = (   0.1875000  -0.0625000   0.0625000), wk =   0.0135135
        k(   15) = (   0.1875000   0.0625000  -0.0625000), wk =   0.0135135
        k(   16) = (  -0.0625000   0.1875000   0.0625000), wk =   0.0135135
        k(   17) = (  -0.0625000  -0.1875000  -0.0625000), wk =   0.0135135
        k(   18) = (   0.0625000   0.0625000  -0.3125000), wk =   0.0135135
        k(   19) = (   0.3125000  -0.0625000   0.0625000), wk =   0.0135135
        k(   20) = (   0.3125000   0.0625000  -0.0625000), wk =   0.0135135
        k(   21) = (  -0.0625000   0.3125000   0.0625000), wk =   0.0135135
        k(   22) = (  -0.0625000  -0.3125000  -0.0625000), wk =   0.0135135
        k(   23) = (   0.0625000   0.0625000  -0.4375000), wk =   0.0135135
        k(   24) = (   0.4375000  -0.0625000   0.0625000), wk =   0.0135135
        k(   25) = (   0.4375000   0.0625000  -0.0625000), wk =   0.0135135
        k(   26) = (  -0.0625000   0.4375000   0.0625000), wk =   0.0135135
        k(   27) = (  -0.0625000  -0.4375000  -0.0625000), wk =   0.0135135
        k(   28) = (   0.0625000   0.0625000  -0.5625000), wk =   0.0135135
        k(   29) = (   0.5625000  -0.0625000   0.0625000), wk =   0.0135135
        k(   30) = (   0.5625000   0.0625000  -0.0625000), wk =   0.0135135
        k(   31) = (  -0.0625000   0.5625000   0.0625000), wk =   0.0135135
        k(   32) = (  -0.0625000  -0.5625000  -0.0625000), wk =   0.0135135
        k(   33) = (   0.0625000   0.0625000  -0.6875000), wk =   0.0135135
        k(   34) = (   0.6875000  -0.0625000   0.0625000), wk =   0.0135135
        k(   35) = (   0.6875000   0.0625000  -0.0625000), wk =   0.0135135
        k(   36) = (  -0.0625000   0.6875000   0.0625000), wk =   0.0135135
        k(   37) = (  -0.0625000  -0.6875000  -0.0625000), wk =   0.0135135
        k(   38) = (   0.0625000   0.0625000  -0.8125000), wk =   0.0135135
        k(   39) = (   0.8125000  -0.0625000   0.0625000), wk =   0.0135135
        k(   40) = (   0.8125000   0.0625000  -0.0625000), wk =   0.0135135
        k(   41) = (  -0.0625000   0.8125000   0.0625000), wk =   0.0135135
        k(   42) = (  -0.0625000  -0.8125000  -0.0625000), wk =   0.0135135
        k(   43) = (   0.0625000   0.0625000  -0.9375000), wk =   0.0405405
        k(   44) = (   0.1875000   0.0625000  -0.1875000), wk =   0.0135135
        k(   45) = (  -0.1875000  -0.0625000  -0.1875000), wk =   0.0135135
        k(   46) = (   0.1875000  -0.1875000   0.0625000), wk =   0.0135135
        k(   47) = (   0.1875000   0.1875000  -0.0625000), wk =   0.0135135
        k(   48) = (  -0.0625000   0.1875000   0.1875000), wk =   0.0135135
        k(   49) = (   0.1875000   0.0625000  -0.3125000), wk =   0.0135135
        k(   50) = (  -0.1875000  -0.0625000  -0.3125000), wk =   0.0135135
        k(   51) = (   0.3125000  -0.1875000   0.0625000), wk =   0.0135135
        k(   52) = (   0.3125000   0.1875000  -0.0625000), wk =   0.0135135
        k(   53) = (  -0.0625000   0.3125000   0.1875000), wk =   0.0135135
        k(   54) = (  -0.0625000  -0.3125000  -0.1875000), wk =   0.0135135
        k(   55) = (   0.1875000   0.3125000   0.0625000), wk =   0.0135135
        k(   56) = (   0.1875000  -0.3125000  -0.0625000), wk =   0.0135135
        k(   57) = (   0.3125000   0.0625000   0.1875000), wk =   0.0135135
        k(   58) = (   0.3125000  -0.0625000  -0.1875000), wk =   0.0135135
        k(   59) = (  -0.0625000  -0.1875000   0.3125000), wk =   0.0135135
        k(   60) = (   0.1875000   0.0625000  -0.4375000), wk =   0.0135135
        k(   61) = (  -0.1875000  -0.0625000  -0.4375000), wk =   0.0135135
        k(   62) = (   0.4375000  -0.1875000   0.0625000), wk =   0.0135135
        k(   63) = (   0.4375000   0.1875000  -0.0625000), wk =   0.0135135
        k(   64) = (  -0.0625000   0.4375000   0.1875000), wk =   0.0135135
        k(   65) = (  -0.0625000  -0.4375000  -0.1875000), wk =   0.0135135
        k(   66) = (   0.1875000   0.4375000   0.0625000), wk =   0.0135135
        k(   67) = (   0.1875000  -0.4375000  -0.0625000), wk =   0.0135135
        k(   68) = (   0.4375000   0.0625000   0.1875000), wk =   0.0135135
        k(   69) = (   0.4375000  -0.0625000  -0.1875000), wk =   0.0135135
        k(   70) = (  -0.0625000  -0.1875000   0.4375000), wk =   0.0135135

     Dense  grid:     3367 G-vectors     FFT dimensions: (  24,  24,  24)

     Smooth grid:     1205 G-vectors     FFT dimensions: (  15,  15,  15)

     Estimated max dynamical RAM per process >      12.91Mb
     Generating pointlists ...
     new r_m :   0.3572 (alat units)  1.8637 (a.u.) for type    1

     Check: negative/imaginary core charge=   -0.000013    0.000000

     Initial potential from superposition of free atoms

     starting charge    7.99953, renormalised to    8.00000
     constraint energy (Ryd) =      8.02202247

 ==============================================================================
     atom number    1 relative position :    0.0000   0.0000   0.0000
     charge :     6.664635
     magnetization :          3.319637    0.000000    0.290431
     magnetization/charge:    0.498097    0.000000    0.043578
     polar coord.: r, theta, phi [deg] :     3.332318   85.000000    0.000000
     constrained moment :     0.498097    0.000000    0.043578

 ==============================================================================
     Starting wfc are   12 randomized atomic wfcs +    4 random wfc

     total cpu time spent up to now is        0.8 secs

     per-process dynamical memory:    15.3 Mb

     Self-consistent Calculation

     iteration #  1     ecut=    25.00 Ry     beta=0.20
     Davidson diagonalization with overlap
     ethr =  1.00E-02,  avg # of iterations =  4.4
     constraint energy (Ryd) =      6.78548616

 ==============================================================================
     atom number    1 relative position :    0.0000   0.0000   0.0000
     charge :     6.568754
     magnetization :          3.093081    0.000000    0.270612
     magnetization/charge:    0.470878    0.000000    0.041197
     polar coord.: r, theta, phi [deg] :     3.104897   84.999951    0.000000
     constrained moment :     0.498097    0.000000    0.043578

 ==============================================================================

     total cpu time spent up to now is        2.1 secs

     total energy              =     -55.70589717 Ry
     Harris-Foulkes estimate   =     -55.76528052 Ry
     estimated scf accuracy    <       0.24768119 Ry

     total magnetization       =     2.35     0.00     0.21 Bohr mag/cell
     absolute magnetization    =     2.36 Bohr mag/cell
     lambda                    =       1.00 Ry

     iteration #  2     ecut=    25.00 Ry     beta=0.20
     Davidson diagonalization with overlap
     ethr =  3.10E-03,  avg # of iterations =  1.0
     constraint energy (Ryd) =      4.85666317

 ==============================================================================
     atom number    1 relative position :    0.0000   0.0000   0.0000
     charge :     6.433700
     magnetization :          2.693495   -0.000000    0.235650
     magnetization/charge:    0.418654   -0.000000    0.036627
     polar coord.: r, theta, phi [deg] :     2.703784   85.000014   -0.000000
     constrained moment :     0.498097    0.000000    0.043578

 ==============================================================================

     total cpu time spent up to now is        2.8 secs

     total energy              =     -55.68123633 Ry
     Harris-Foulkes estimate   =     -55.71643791 Ry
     estimated scf accuracy    <       0.08260566 Ry

     total magnetization       =     2.36    -0.00     0.21 Bohr mag/cell
     absolute magnetization    =     2.37 Bohr mag/cell
     lambda                    =       1.00 Ry

     iteration #  3     ecut=    25.00 Ry     beta=0.20
     Davidson diagonalization with overlap
     ethr =  1.03E-03,  avg # of iterations =  2.1
     constraint energy (Ryd) =      3.67711779

 ==============================================================================
     atom number    1 relative position :    0.0000   0.0000   0.0000
     charge :     6.423122
     magnetization :          2.408381   -0.000000    0.210711
     magnetization/charge:    0.374955   -0.000000    0.032805
     polar coord.: r, theta, phi [deg] :     2.417581   84.999892   -0.000000
     constrained moment :     0.498097    0.000000    0.043578

 ==============================================================================

     total cpu time spent up to now is        3.6 secs

     total energy              =     -55.69771277 Ry
     Harris-Foulkes estimate   =     -55.69837985 Ry
     estimated scf accuracy    <       0.00391033 Ry

     total magnetization       =     2.32    -0.00     0.20 Bohr mag/cell
     absolute magnetization    =     2.33 Bohr mag/cell
     lambda                    =       1.00 Ry

     iteration #  4     ecut=    25.00 Ry     beta=0.20
     Davidson diagonalization with overlap
     ethr =  4.89E-05,  avg # of iterations =  3.3
     constraint energy (Ryd) =      2.12026596

 ==============================================================================
     atom number    1 relative position :    0.0000   0.0000   0.0000
     charge :     6.374334
     magnetization :          1.948669    0.000000    0.170498
     magnetization/charge:    0.305705    0.000000    0.026748
     polar coord.: r, theta, phi [deg] :     1.956113   84.999652    0.000000
     constrained moment :     0.498097    0.000000    0.043578

 ==============================================================================

     total cpu time spent up to now is        4.7 secs

     total energy              =     -55.69208638 Ry
     Harris-Foulkes estimate   =     -55.69901161 Ry
     estimated scf accuracy    <       0.00267815 Ry

     total magnetization       =     2.14    -0.00     0.19 Bohr mag/cell
     absolute magnetization    =     2.15 Bohr mag/cell
     lambda                    =       1.00 Ry

     iteration #  5     ecut=    25.00 Ry     beta=0.20
     Davidson diagonalization with overlap
     ethr =  3.35E-05,  avg # of iterations =  2.2
     constraint energy (Ryd) =      1.60507184

 ==============================================================================
     atom number    1 relative position :    0.0000   0.0000   0.0000
     charge :     6.404330
     magnetization :          1.760190    0.000000    0.154009
     magnetization/charge:    0.274844    0.000000    0.024048
     polar coord.: r, theta, phi [deg] :     1.766914   84.999595    0.000000
     constrained moment :     0.498097    0.000000    0.043578

 ==============================================================================

     total cpu time spent up to now is        5.6 secs

     total energy              =     -55.69104534 Ry
     Harris-Foulkes estimate   =     -55.69395753 Ry
     estimated scf accuracy    <       0.00164749 Ry

     total magnetization       =     1.93    -0.00     0.17 Bohr mag/cell
     absolute magnetization    =     1.94 Bohr mag/cell
     lambda                    =       1.00 Ry

     iteration #  6     ecut=    25.00 Ry     beta=0.20
     Davidson diagonalization with overlap
     ethr =  2.06E-05,  avg # of iterations =  2.0
     constraint energy (Ryd) =      1.33846190

 ==============================================================================
     atom number    1 relative position :    0.0000   0.0000   0.0000
     charge :     6.405728
     magnetization :          1.650613    0.000000    0.144422
     magnetization/charge:    0.257678    0.000000    0.022546
     polar coord.: r, theta, phi [deg] :     1.656919   84.999572    0.000000
     constrained moment :     0.498097    0.000000    0.043578

 ==============================================================================

     total cpu time spent up to now is        6.5 secs

     total energy              =     -55.69055241 Ry
     Harris-Foulkes estimate   =     -55.69189654 Ry
     estimated scf accuracy    <       0.00021596 Ry

     total magnetization       =     1.77     0.00     0.15 Bohr mag/cell
     absolute magnetization    =     1.78 Bohr mag/cell
     lambda                    =       1.00 Ry

     iteration #  7     ecut=    25.00 Ry     beta=0.20
     Davidson diagonalization with overlap
     ethr =  2.70E-06,  avg # of iterations =  3.0
     constraint energy (Ryd) =      1.30472547

 ==============================================================================
     atom number    1 relative position :    0.0000   0.0000   0.0000
     charge :     6.405565
     magnetization :          1.635995    0.000000    0.143144
     magnetization/charge:    0.255402    0.000000    0.022347
     polar coord.: r, theta, phi [deg] :     1.642246   84.999559    0.000000
     constrained moment :     0.498097    0.000000    0.043578

 ==============================================================================

     total cpu time spent up to now is        7.5 secs

     total energy              =     -55.69060113 Ry
     Harris-Foulkes estimate   =     -55.69076532 Ry
     estimated scf accuracy    <       0.00007448 Ry

     total magnetization       =     1.69    -0.00     0.15 Bohr mag/cell
     absolute magnetization    =     1.70 Bohr mag/cell
     lambda                    =       1.00 Ry

     iteration #  8     ecut=    25.00 Ry     beta=0.20
     Davidson diagonalization with overlap
     ethr =  9.31E-07,  avg # of iterations =  1.0
     constraint energy (Ryd) =      1.80164425

 ==============================================================================
     atom number    1 relative position :    0.0000   0.0000   0.0000
     charge :     6.403151
     magnetization :          1.835242    0.000000    0.160571
     magnetization/charge:    0.286616    0.000000    0.025077
     polar coord.: r, theta, phi [deg] :     1.842253   84.999734    0.000000
     constrained moment :     0.498097    0.000000    0.043578

 ==============================================================================

     total cpu time spent up to now is        8.2 secs

     total energy              =     -55.69247279 Ry
     Harris-Foulkes estimate   =     -55.69060457 Ry
     estimated scf accuracy    <       0.00006081 Ry

     total magnetization       =     1.68     0.00     0.15 Bohr mag/cell
     absolute magnetization    =     1.69 Bohr mag/cell
     lambda                    =       1.00 Ry

     iteration #  9     ecut=    25.00 Ry     beta=0.20
     Davidson diagonalization with overlap
     ethr =  7.60E-07,  avg # of iterations =  2.3
     constraint energy (Ryd) =      1.20745660

 ==============================================================================
     atom number    1 relative position :    0.0000   0.0000   0.0000
     charge :     6.403688
     magnetization :          1.592759    0.000000    0.139356
     magnetization/charge:    0.248725    0.000000    0.021762
     polar coord.: r, theta, phi [deg] :     1.598843   84.999732    0.000000
     constrained moment :     0.498097    0.000000    0.043578

 ==============================================================================

     total cpu time spent up to now is        9.1 secs

     total energy              =     -55.68942023 Ry
     Harris-Foulkes estimate   =     -55.69290431 Ry
     estimated scf accuracy    <       0.00023638 Ry

     total magnetization       =     1.82    -0.00     0.16 Bohr mag/cell
     absolute magnetization    =     1.83 Bohr mag/cell
     lambda                    =       1.00 Ry

     iteration # 10     ecut=    25.00 Ry     beta=0.20
     Davidson diagonalization with overlap
     ethr =  7.60E-07,  avg # of iterations =  2.5
     constraint energy (Ryd) =      1.25334470

 ==============================================================================
     atom number    1 relative position :    0.0000   0.0000   0.0000
     charge :     6.403376
     magnetization :          1.613365    0.000000    0.141159
     magnetization/charge:    0.251955    0.000000    0.022044
     polar coord.: r, theta, phi [deg] :     1.619529   84.999734    0.000000
     constrained moment :     0.498097    0.000000    0.043578

 ==============================================================================

     total cpu time spent up to now is       10.1 secs

     total energy              =     -55.69035001 Ry
     Harris-Foulkes estimate   =     -55.69011365 Ry
     estimated scf accuracy    <       0.00000417 Ry

     total magnetization       =     1.64     0.00     0.14 Bohr mag/cell
     absolute magnetization    =     1.65 Bohr mag/cell
     lambda                    =       1.00 Ry

     iteration # 11     ecut=    25.00 Ry     beta=0.20
     Davidson diagonalization with overlap
     ethr =  5.21E-08,  avg # of iterations =  2.1
     constraint energy (Ryd) =      1.23918045

 ==============================================================================
     atom number    1 relative position :    0.0000   0.0000   0.0000
     charge :     6.403171
     magnetization :          1.607045    0.000000    0.140608
     magnetization/charge:    0.250976    0.000000    0.021959
     polar coord.: r, theta, phi [deg] :     1.613185   84.999662    0.000000
     constrained moment :     0.498097    0.000000    0.043578

 ==============================================================================

     total cpu time spent up to now is       10.9 secs

     total energy              =     -55.69028379 Ry
     Harris-Foulkes estimate   =     -55.69035527 Ry
     estimated scf accuracy    <       0.00000124 Ry

     total magnetization       =     1.66    -0.00     0.15 Bohr mag/cell
     absolute magnetization    =     1.67 Bohr mag/cell
     lambda                    =       1.00 Ry

     iteration # 12     ecut=    25.00 Ry     beta=0.20
     Davidson diagonalization with overlap
     ethr =  1.55E-08,  avg # of iterations =  2.0
     constraint energy (Ryd) =      1.24057065

 ==============================================================================
     atom number    1 relative position :    0.0000   0.0000   0.0000
     charge :     6.403057
     magnetization :          1.607667    0.000000    0.140664
     magnetization/charge:    0.251078    0.000000    0.021968
     polar coord.: r, theta, phi [deg] :     1.613809   84.999581    0.000000
     constrained moment :     0.498097    0.000000    0.043578

 ==============================================================================

     total cpu time spent up to now is       11.7 secs

     total energy              =     -55.69029283 Ry
     Harris-Foulkes estimate   =     -55.69028429 Ry
     estimated scf accuracy    <       0.00000054 Ry

     total magnetization       =     1.66     0.00     0.14 Bohr mag/cell
     absolute magnetization    =     1.66 Bohr mag/cell
     lambda                    =       1.00 Ry

     iteration # 13     ecut=    25.00 Ry     beta=0.20
     Davidson diagonalization with overlap
     ethr =  6.71E-09,  avg # of iterations =  1.5
     constraint energy (Ryd) =      1.24281349

 ==============================================================================
     atom number    1 relative position :    0.0000   0.0000   0.0000
     charge :     6.402921
     magnetization :          1.608670    0.000000    0.140753
     magnetization/charge:    0.251240    0.000000    0.021983
     polar coord.: r, theta, phi [deg] :     1.614815   84.999562    0.000000
     constrained moment :     0.498097    0.000000    0.043578

 ==============================================================================

     total cpu time spent up to now is       12.5 secs

     total energy              =     -55.69030523 Ry
     Harris-Foulkes estimate   =     -55.69029289 Ry
     estimated scf accuracy    <       0.00000016 Ry

     total magnetization       =     1.66    -0.00     0.14 Bohr mag/cell
     absolute magnetization    =     1.66 Bohr mag/cell
     lambda                    =       1.00 Ry

     iteration # 14     ecut=    25.00 Ry     beta=0.20
     Davidson diagonalization with overlap
     ethr =  1.99E-09,  avg # of iterations =  2.2
     constraint energy (Ryd) =      1.24140061

 ==============================================================================
     atom number    1 relative position :    0.0000   0.0000   0.0000
     charge :     6.402912
     magnetization :          1.608038    0.000000    0.140698
     magnetization/charge:    0.251142    0.000000    0.021974
     polar coord.: r, theta, phi [deg] :     1.614182   84.999559    0.000000
     constrained moment :     0.498097    0.000000    0.043578

 ==============================================================================

     total cpu time spent up to now is       13.3 secs

     total energy              =     -55.69029852 Ry
     Harris-Foulkes estimate   =     -55.69030527 Ry
     estimated scf accuracy    <       0.00000002 Ry

     total magnetization       =     1.66     0.00     0.15 Bohr mag/cell
     absolute magnetization    =     1.66 Bohr mag/cell
     lambda                    =       1.00 Ry

     iteration # 15     ecut=    25.00 Ry     beta=0.20
     Davidson diagonalization with overlap
     ethr =  2.90E-10,  avg # of iterations =  3.3
     constraint energy (Ryd) =      1.24069337

 ==============================================================================
     atom number    1 relative position :    0.0000   0.0000   0.0000
     charge :     6.402963
     magnetization :          1.607722    0.000000    0.140670
     magnetization/charge:    0.251090    0.000000    0.021969
     polar coord.: r, theta, phi [deg] :     1.613864   84.999569    0.000000
     constrained moment :     0.498097    0.000000    0.043578

 ==============================================================================

     total cpu time spent up to now is       14.3 secs

     End of self-consistent calculation

          k = 0.0625 0.0625 0.0625 (   141 PWs)   bands (ev):

     5.9510   6.1972  12.2410  12.2410  12.4711  13.4416  13.4416  13.6871
    13.8573  13.8573  15.3269  15.3269  38.9719  38.9719  39.2158  39.2158

          k = 0.0625 0.0625 0.1875 (   148 PWs)   bands (ev):

     6.6174   6.8683  12.1401  12.2142  12.7713  13.3252  13.4020  13.5624
    13.9991  14.0010  14.9917  15.4835  36.4898  36.8591  38.1007  38.4417

          k = 0.0625 0.0625 0.3125 (   152 PWs)   bands (ev):

     7.8218   8.0977  12.1697  12.1747  13.0702  13.1921  13.3358  13.3492
    14.2594  14.4236  14.4428  15.7458  34.1130  34.5976  35.7762  36.2006

          k = 0.0625 0.0625 0.4375 (   156 PWs)   bands (ev):

     9.2171   9.5967  11.8744  12.3823  12.8119  13.0631  13.5377  13.6896
    14.0543  14.7940  14.9741  16.1778  32.0176  32.5959  33.0368  33.4999

          k = 0.0625 0.0625 0.5625 (   148 PWs)   bands (ev):

    10.1574  10.7922  11.1709  12.3178  12.7381  13.1207  13.9138  14.1900
    14.3292  15.5110  16.1736  17.2483  29.9417  30.4398  30.5391  30.9215

          k = 0.0625 0.0625 0.6875 (   146 PWs)   bands (ev):

    10.2586  10.4555  11.1468  11.5427  13.2762  13.7328  14.4770  14.6508
    14.9686  16.0007  18.6645  19.4164  27.7948  28.0894  28.3347  28.5482

          k = 0.0625 0.0625 0.8125 (   144 PWs)   bands (ev):

     9.9074   9.9096  10.9039  10.9502  13.9972  14.4608  14.9652  15.2526
    15.7625  16.3395  21.8272  22.3668  25.8985  26.1775  26.3467  26.5739

          k = 0.0625 0.0625 0.9375 (   143 PWs)   bands (ev):

     9.6135   9.6135  10.6335  10.6335  14.6561  15.0049  15.0049  15.9865
    16.3800  16.3800  24.7320  24.7321  25.0940  25.0940  25.1259  25.4523

          k = 0.0625 0.1875 0.1875 (   151 PWs)   bands (ev):

     7.2341   7.4959  11.8720  12.0996  13.0363  13.2481  13.2564  13.6596
    13.9226  14.4993  15.0929  15.3995  34.2314  34.6951  36.9587  37.2923

          k = 0.0625 0.1875 0.3125 (   152 PWs)   bands (ev):

     8.3002   8.6126  11.7207  12.0347  12.8648  13.1318  13.4606  13.8069
    14.1459  14.8486  15.0879  15.6248  31.4686  32.0117  35.1676  35.5461

          k = 0.0625 0.1875 0.4375 (   153 PWs)   bands (ev):

     9.4219   9.8941  11.6833  11.9894  12.7951  13.0634  13.3322  14.2461
    14.6412  14.8731  15.6022  16.1888  28.9406  29.5444  32.8941  33.3460

          k = 0.0625 0.0625-0.0625 (   141 PWs)   bands (ev):

     5.9510   6.1972  12.2410  12.2410  12.4711  13.4416  13.4416  13.6871
    13.8573  13.8573  15.3269  15.3269  38.9719  38.9719  39.2158  39.2158

          k = 0.0625 0.0625-0.1875 (   148 PWs)   bands (ev):

     6.6174   6.8683  12.1401  12.2142  12.7713  13.3252  13.4020  13.5624
    13.9991  14.0010  14.9917  15.4835  36.4898  36.8591  38.1007  38.4417

          k = 0.1875-0.0625 0.0625 (   148 PWs)   bands (ev):

     6.6174   6.8683  12.1401  12.2142  12.7713  13.3252  13.4020  13.5624
    13.9991  14.0010  14.9917  15.4835  36.4898  36.8591  38.1007  38.4417

          k = 0.1875 0.0625-0.0625 (   148 PWs)   bands (ev):

     6.6174   6.8683  12.1401  12.2142  12.7713  13.3252  13.4020  13.5624
    13.9991  14.0010  14.9917  15.4835  36.4898  36.8591  38.1007  38.4417

          k =-0.0625 0.1875 0.0625 (   148 PWs)   bands (ev):

     6.6174   6.8683  12.1401  12.2142  12.7713  13.3252  13.4020  13.5624
    13.9991  14.0010  14.9917  15.4835  36.4898  36.8591  38.1007  38.4417

          k =-0.0625-0.1875-0.0625 (   148 PWs)   bands (ev):

     6.6174   6.8683  12.1401  12.2142  12.7713  13.3252  13.4020  13.5624
    13.9991  14.0010  14.9917  15.4835  36.4898  36.8591  38.1007  38.4417

          k = 0.0625 0.0625-0.3125 (   152 PWs)   bands (ev):

     7.8218   8.0977  12.1697  12.1747  13.0702  13.1921  13.3358  13.3492
    14.2594  14.4236  14.4428  15.7458  34.1130  34.5976  35.7762  36.2006

          k = 0.3125-0.0625 0.0625 (   152 PWs)   bands (ev):

     7.8218   8.0977  12.1697  12.1747  13.0702  13.1921  13.3358  13.3492
    14.2594  14.4236  14.4428  15.7458  34.1130  34.5976  35.7762  36.2006

          k = 0.3125 0.0625-0.0625 (   152 PWs)   bands (ev):

     7.8218   8.0977  12.1697  12.1747  13.0702  13.1921  13.3358  13.3492
    14.2594  14.4236  14.4428  15.7458  34.1130  34.5976  35.7762  36.2006

          k =-0.0625 0.3125 0.0625 (   152 PWs)   bands (ev):

     7.8218   8.0977  12.1697  12.1747  13.0702  13.1921  13.3358  13.3492
    14.2594  14.4236  14.4428  15.7458  34.1130  34.5976  35.7762  36.2006

          k =-0.0625-0.3125-0.0625 (   152 PWs)   bands (ev):

     7.8218   8.0977  12.1697  12.1747  13.0702  13.1921  13.3358  13.3492
    14.2594  14.4237  14.4428  15.7458  34.1130  34.5976  35.7762  36.2006

          k = 0.0625 0.0625-0.4375 (   156 PWs)   bands (ev):

     9.2171   9.5967  11.8744  12.3823  12.8119  13.0631  13.5377  13.6896
    14.0543  14.7940  14.9741  16.1778  32.0176  32.5959  33.0368  33.4999

          k = 0.4375-0.0625 0.0625 (   156 PWs)   bands (ev):

     9.2171   9.5967  11.8744  12.3823  12.8119  13.0631  13.5377  13.6896
    14.0543  14.7940  14.9741  16.1778  32.0176  32.5958  33.0368  33.4999

          k = 0.4375 0.0625-0.0625 (   156 PWs)   bands (ev):

     9.2171   9.5967  11.8744  12.3823  12.8119  13.0631  13.5377  13.6896
    14.0543  14.7940  14.9741  16.1778  32.0176  32.5958  33.0368  33.4999

          k =-0.0625 0.4375 0.0625 (   156 PWs)   bands (ev):

     9.2171   9.5967  11.8744  12.3823  12.8119  13.0631  13.5377  13.6896
    14.0543  14.7940  14.9741  16.1778  32.0176  32.5959  33.0368  33.4999

          k =-0.0625-0.4375-0.0625 (   156 PWs)   bands (ev):

     9.2171   9.5967  11.8744  12.3823  12.8119  13.0631  13.5377  13.6896
    14.0543  14.7940  14.9741  16.1778  32.0176  32.5959  33.0368  33.4999

          k = 0.0625 0.0625-0.5625 (   148 PWs)   bands (ev):

    10.1574  10.7922  11.1709  12.3178  12.7381  13.1207  13.9138  14.1900
    14.3292  15.5110  16.1736  17.2483  29.9417  30.4398  30.5391  30.9215

          k = 0.5625-0.0625 0.0625 (   148 PWs)   bands (ev):

    10.1574  10.7922  11.1709  12.3178  12.7381  13.1207  13.9138  14.1900
    14.3292  15.5110  16.1736  17.2484  29.9417  30.4398  30.5390  30.9215

          k = 0.5625 0.0625-0.0625 (   148 PWs)   bands (ev):

    10.1574  10.7922  11.1709  12.3178  12.7381  13.1207  13.9138  14.1900
    14.3292  15.5110  16.1736  17.2484  29.9417  30.4398  30.5391  30.9215

          k =-0.0625 0.5625 0.0625 (   148 PWs)   bands (ev):

    10.1574  10.7922  11.1709  12.3178  12.7381  13.1207  13.9138  14.1900
    14.3292  15.5110  16.1736  17.2483  29.9417  30.4398  30.5391  30.9215

          k =-0.0625-0.5625-0.0625 (   148 PWs)   bands (ev):

    10.1574  10.7922  11.1709  12.3178  12.7381  13.1207  13.9138  14.1900
    14.3292  15.5110  16.1736  17.2483  29.9417  30.4398  30.5391  30.9215

          k = 0.0625 0.0625-0.6875 (   146 PWs)   bands (ev):

    10.2586  10.4555  11.1468  11.5427  13.2762  13.7328  14.4770  14.6508
    14.9686  16.0007  18.6645  19.4164  27.7948  28.0894  28.3347  28.5482

          k = 0.6875-0.0625 0.0625 (   146 PWs)   bands (ev):

    10.2586  10.4555  11.1468  11.5427  13.2762  13.7328  14.4770  14.6508
    14.9687  16.0007  18.6645  19.4164  27.7948  28.0894  28.3347  28.5482

          k = 0.6875 0.0625-0.0625 (   146 PWs)   bands (ev):

    10.2586  10.4555  11.1468  11.5427  13.2762  13.7328  14.4770  14.6508
    14.9686  16.0007  18.6645  19.4164  27.7948  28.0894  28.3347  28.5482

          k =-0.0625 0.6875 0.0625 (   146 PWs)   bands (ev):

    10.2586  10.4555  11.1468  11.5427  13.2762  13.7328  14.4770  14.6508
    14.9686  16.0007  18.6645  19.4164  27.7948  28.0894  28.3347  28.5482

          k =-0.0625-0.6875-0.0625 (   146 PWs)   bands (ev):

    10.2586  10.4555  11.1468  11.5427  13.2762  13.7328  14.4770  14.6508
    14.9686  16.0007  18.6645  19.4164  27.7948  28.0894  28.3347  28.5482

          k = 0.0625 0.0625-0.8125 (   144 PWs)   bands (ev):

     9.9074   9.9096  10.9039  10.9502  13.9972  14.4608  14.9652  15.2526
    15.7625  16.3395  21.8272  22.3668  25.8985  26.1775  26.3467  26.5739

          k = 0.8125-0.0625 0.0625 (   144 PWs)   bands (ev):

     9.9074   9.9096  10.9039  10.9502  13.9972  14.4608  14.9652  15.2526
    15.7625  16.3395  21.8272  22.3668  25.8985  26.1775  26.3467  26.5739

          k = 0.8125 0.0625-0.0625 (   144 PWs)   bands (ev):

     9.9074   9.9096  10.9039  10.9502  13.9972  14.4608  14.9652  15.2526
    15.7625  16.3395  21.8272  22.3668  25.8985  26.1775  26.3467  26.5739

          k =-0.0625 0.8125 0.0625 (   144 PWs)   bands (ev):

     9.9074   9.9096  10.9039  10.9502  13.9972  14.4608  14.9652  15.2526
    15.7625  16.3395  21.8272  22.3668  25.8985  26.1775  26.3467  26.5739

          k =-0.0625-0.8125-0.0625 (   144 PWs)   bands (ev):

     9.9074   9.9096  10.9039  10.9502  13.9972  14.4608  14.9652  15.2526
    15.7625  16.3395  21.8272  22.3668  25.8985  26.1775  26.3467  26.5739

          k = 0.0625 0.0625-0.9375 (   143 PWs)   bands (ev):

     9.6135   9.6135  10.6335  10.6335  14.6561  15.0049  15.0049  15.9865
    16.3800  16.3800  24.7321  24.7321  25.0940  25.0940  25.1259  25.4523

          k = 0.1875 0.0625-0.1875 (   151 PWs)   bands (ev):

     7.2341   7.4959  11.8720  12.0996  13.0363  13.2481  13.2564  13.6596
    13.9226  14.4993  15.0929  15.3996  34.2314  34.6951  36.9587  37.2924

          k =-0.1875-0.0625-0.1875 (   151 PWs)   bands (ev):

     7.2341   7.4959  11.8720  12.0996  13.0363  13.2481  13.2564  13.6596
    13.9226  14.4993  15.0929  15.3996  34.2314  34.6951  36.9587  37.2923

          k = 0.1875-0.1875 0.0625 (   151 PWs)   bands (ev):

     7.2341   7.4959  11.8720  12.0996  13.0363  13.2481  13.2564  13.6596
    13.9226  14.4993  15.0929  15.3995  34.2314  34.6951  36.9587  37.2923

          k = 0.1875 0.1875-0.0625 (   151 PWs)   bands (ev):

     7.2341   7.4959  11.8720  12.0996  13.0363  13.2481  13.2564  13.6596
    13.9226  14.4993  15.0929  15.3995  34.2314  34.6951  36.9587  37.2923

          k =-0.0625 0.1875 0.1875 (   151 PWs)   bands (ev):

     7.2341   7.4959  11.8720  12.0996  13.0364  13.2481  13.2564  13.6596
    13.9226  14.4993  15.0929  15.3995  34.2314  34.6951  36.9587  37.2923

          k = 0.1875 0.0625-0.3125 (   152 PWs)   bands (ev):

     8.3002   8.6126  11.7207  12.0347  12.8648  13.1318  13.4606  13.8069
    14.1459  14.8486  15.0879  15.6248  31.4686  32.0117  35.1676  35.5461

          k =-0.1875-0.0625-0.3125 (   152 PWs)   bands (ev):

     8.3002   8.6126  11.7207  12.0347  12.8648  13.1318  13.4606  13.8069
    14.1459  14.8486  15.0879  15.6249  31.4686  32.0117  35.1676  35.5461

          k = 0.3125-0.1875 0.0625 (   152 PWs)   bands (ev):

     8.3002   8.6126  11.7207  12.0347  12.8648  13.1318  13.4606  13.8069
    14.1459  14.8486  15.0879  15.6249  31.4686  32.0117  35.1676  35.5461

          k = 0.3125 0.1875-0.0625 (   152 PWs)   bands (ev):

     8.3002   8.6126  11.7207  12.0347  12.8648  13.1318  13.4606  13.8069
    14.1459  14.8486  15.0879  15.6249  31.4686  32.0117  35.1676  35.5461

          k =-0.0625 0.3125 0.1875 (   152 PWs)   bands (ev):

     8.3002   8.6126  11.7207  12.0347  12.8648  13.1318  13.4606  13.8069
    14.1459  14.8486  15.0879  15.6248  31.4686  32.0117  35.1676  35.5461

          k =-0.0625-0.3125-0.1875 (   152 PWs)   bands (ev):

     8.3002   8.6126  11.7207  12.0347  12.8648  13.1318  13.4606  13.8069
    14.1459  14.8486  15.0879  15.6248  31.4686  32.0117  35.1676  35.5461

          k = 0.1875 0.3125 0.0625 (   152 PWs)   bands (ev):

     8.3002   8.6126  11.7207  12.0347  12.8648  13.1318  13.4606  13.8069
    14.1459  14.8486  15.0879  15.6248  31.4686  32.0117  35.1676  35.5461

          k = 0.1875-0.3125-0.0625 (   152 PWs)   bands (ev):

     8.3002   8.6126  11.7207  12.0347  12.8648  13.1318  13.4606  13.8069
    14.1459  14.8486  15.0879  15.6248  31.4686  32.0117  35.1676  35.5461

          k = 0.3125 0.0625 0.1875 (   152 PWs)   bands (ev):

     8.3002   8.6126  11.7207  12.0347  12.8648  13.1318  13.4606  13.8069
    14.1459  14.8486  15.0878  15.6249  31.4686  32.0117  35.1676  35.5461

          k = 0.3125-0.0625-0.1875 (   152 PWs)   bands (ev):

     8.3002   8.6126  11.7207  12.0347  12.8648  13.1318  13.4606  13.8069
    14.1459  14.8486  15.0879  15.6249  31.4686  32.0117  35.1676  35.5461

          k =-0.0625-0.1875 0.3125 (   152 PWs)   bands (ev):

     8.3002   8.6126  11.7207  12.0347  12.8648  13.1318  13.4606  13.8069
    14.1459  14.8486  15.0879  15.6248  31.4686  32.0117  35.1676  35.5461

          k = 0.1875 0.0625-0.4375 (   153 PWs)   bands (ev):

     9.4219   9.8941  11.6833  11.9894  12.7951  13.0634  13.3322  14.2461
    14.6412  14.8731  15.6022  16.1889  28.9406  29.5445  32.8941  33.3460

          k =-0.1875-0.0625-0.4375 (   153 PWs)   bands (ev):

     9.4219   9.8941  11.6833  11.9894  12.7951  13.0634  13.3322  14.2461
    14.6412  14.8731  15.6022  16.1888  28.9406  29.5445  32.8941  33.3460

          k = 0.4375-0.1875 0.0625 (   153 PWs)   bands (ev):

     9.4219   9.8941  11.6833  11.9894  12.7951  13.0634  13.3322  14.2461
    14.6412  14.8731  15.6022  16.1889  28.9406  29.5444  32.8941  33.3460

          k = 0.4375 0.1875-0.0625 (   153 PWs)   bands (ev):

     9.4219   9.8941  11.6833  11.9894  12.7951  13.0634  13.3322  14.2461
    14.6412  14.8731  15.6022  16.1889  28.9406  29.5444  32.8941  33.3460

          k =-0.0625 0.4375 0.1875 (   153 PWs)   bands (ev):

     9.4219   9.8941  11.6833  11.9894  12.7951  13.0634  13.3322  14.2461
    14.6412  14.8731  15.6023  16.1888  28.9406  29.5445  32.8941  33.3460

          k =-0.0625-0.4375-0.1875 (   153 PWs)   bands (ev):

     9.4219   9.8941  11.6833  11.9894  12.7951  13.0634  13.3322  14.2461
    14.6412  14.8731  15.6022  16.1888  28.9406  29.5445  32.8941  33.3460

          k = 0.1875 0.4375 0.0625 (   153 PWs)   bands (ev):

     9.4219   9.8941  11.6833  11.9894  12.7951  13.0634  13.3322  14.2461
    14.6412  14.8731  15.6022  16.1888  28.9406  29.5445  32.8941  33.3460

          k = 0.1875-0.4375-0.0625 (   153 PWs)   bands (ev):

     9.4219   9.8941  11.6833  11.9894  12.7951  13.0634  13.3322  14.2461
    14.6412  14.8731  15.6023  16.1888  28.9406  29.5445  32.8941  33.3460

          k = 0.4375 0.0625 0.1875 (   153 PWs)   bands (ev):

     9.4219   9.8941  11.6833  11.9894  12.7951  13.0634  13.3322  14.2461
    14.6412  14.8731  15.6022  16.1889  28.9406  29.5445  32.8941  33.3460

          k = 0.4375-0.0625-0.1875 (   153 PWs)   bands (ev):

     9.4219   9.8941  11.6833  11.9894  12.7951  13.0634  13.3322  14.2461
    14.6412  14.8731  15.6022  16.1889  28.9406  29.5445  32.8941  33.3460

          k =-0.0625-0.1875 0.4375 (   153 PWs)   bands (ev):

     9.4219   9.8941  11.6833  11.9894  12.7951  13.0634  13.3322  14.2461
    14.6412  14.8731  15.6022  16.1888  28.9406  29.5444  32.8941  33.3460

     the Fermi energy is    14.3661 ev

!    total energy              =     -55.69029582 Ry
     Harris-Foulkes estimate   =     -55.69029853 Ry
     estimated scf accuracy    <          9.7E-09 Ry

     The total energy is the sum of the following terms:

     one-electron contribution =       8.87153447 Ry
     hartree contribution      =       6.00691782 Ry
     xc contribution           =     -25.92672805 Ry
     ewald contribution        =     -44.64461207 Ry
     smearing contrib. (-TS)   =       0.00259201 Ry

     total magnetization       =     1.66     0.00     0.14 Bohr mag/cell
     absolute magnetization    =     1.66 Bohr mag/cell
     lambda                    =       1.00 Ry

     convergence has been achieved in  15 iterations

     Writing output data file fe.save

     init_run     :      0.70s CPU      0.71s WALL (       1 calls)
     electrons    :     13.17s CPU     13.50s WALL (       1 calls)

     Called by init_run:
     wfcinit      :      0.29s CPU      0.29s WALL (       1 calls)
     potinit      :      0.01s CPU      0.02s WALL (       1 calls)

     Called by electrons:
     c_bands      :     10.70s CPU     10.98s WALL (      15 calls)
     sum_band     :      2.06s CPU      2.11s WALL (      15 calls)
     v_of_rho     :      0.13s CPU      0.13s WALL (      16 calls)
     newd         :      0.24s CPU      0.25s WALL (      16 calls)
     mix_rho      :      0.04s CPU      0.04s WALL (      15 calls)

     Called by c_bands:
     init_us_2    :      0.17s CPU      0.14s WALL (    2170 calls)
     cegterg      :     10.41s CPU     10.68s WALL (    1050 calls)

     Called by sum_band:
     sum_band:bec :      0.05s CPU      0.05s WALL (    1050 calls)
     addusdens    :      0.36s CPU      0.35s WALL (      15 calls)

     Called by *egterg:
     h_psi        :      6.96s CPU      6.92s WALL (    3570 calls)
     s_psi        :      0.37s CPU      0.38s WALL (    3570 calls)
     g_psi        :      0.02s CPU      0.03s WALL (    2450 calls)
     cdiaghg      :      1.39s CPU      1.51s WALL (    3500 calls)

     Called by h_psi:
     h_psi:pot    :      6.91s CPU      6.88s WALL (    3570 calls)
     h_psi:calbec :      0.38s CPU      0.42s WALL (    3570 calls)
     vloc_psi     :      6.24s CPU      6.07s WALL (    3570 calls)
     add_vuspsi   :      0.29s CPU      0.39s WALL (    3570 calls)

     General routines
     calbec       :      0.52s CPU      0.58s WALL (    4620 calls)
     fft          :      0.12s CPU      0.13s WALL (     506 calls)
     ffts         :      0.00s CPU      0.01s WALL (     124 calls)
     fftw         :      5.59s CPU      5.54s WALL (  196684 calls)
     interpolate  :      0.05s CPU      0.04s WALL (     124 calls)
     davcio       :      0.00s CPU      0.00s WALL (      70 calls)

     Parallel routines
     fft_scatter  :      0.41s CPU      0.39s WALL (  197314 calls)

     PWSCF        :    14.01s CPU        14.35s WALL


   This run was terminated on:  13: 8: 0  21Sep2016            

=------------------------------------------------------------------------------=
   JOB DONE.
=------------------------------------------------------------------------------=
