
     Program PWSCF v.6.5 starts on 20May2020 at 16: 0:52 

     This program is part of the open-source Quantum ESPRESSO suite
     for quantum simulation of materials; please cite
         "P. Giannozzi et al., J. Phys.:Condens. Matter 21 395502 (2009);
         "P. Giannozzi et al., J. Phys.:Condens. Matter 29 465901 (2017);
          URL http://www.quantum-espresso.org", 
     in publications or presentations arising from this work. More details at
     http://www.quantum-espresso.org/quote

     Parallel version (MPI), running on     1 processors

     MPI processes distributed on     1 nodes
     Fft bands division:     nmany     =       1
     Reading input from relax1.in
Warning: card  &CELL ignored
Warning: card    CELL_DYNAMICS = 'DAMP-W' , ignored
Warning: card    PRESS = 0.00 , ignored
Warning: card    WMASS =  0.00700000 ignored
Warning: card  / ignored

     Current dimensions of program PWSCF are:
     Max number of different atomic species (ntypx) = 10
     Max number of k-points (npk) =  40000
     Max angular momentum in pseudopotentials (lmaxx) =  3

     Subspace diagonalization in iterative solution of the eigenvalue problem:
     a serial algorithm will be used

 
     G-vector sticks info
     --------------------
     sticks:   dense  smooth     PW     G-vecs:    dense   smooth      PW
     Sum         349     349    121                 4159     4159     833
 


     bravais-lattice index     =           14
     lattice parameter (alat)  =       7.0103  a.u.
     unit-cell volume          =     245.3705 (a.u.)^3
     number of atoms/cell      =            2
     number of atomic types    =            1
     number of electrons       =        10.00
     number of Kohn-Sham states=            9
     kinetic-energy cutoff     =      25.0000  Ry
     charge density cutoff     =     100.0000  Ry
     convergence threshold     =      1.0E-07
     mixing beta               =       0.7000
     number of iterations used =            8  plain     mixing
     Exchange-correlation= SLA PZ NOGX NOGC
                           (   1   1   0   0   0   0   0)
     nstep                     =           50


     celldm(1)=   7.010336  celldm(2)=   1.000000  celldm(3)=   1.000000
     celldm(4)=   0.495175  celldm(5)=   0.495175  celldm(6)=   0.495175

     crystal axes: (cart. coord. in units of alat)
               a(1) = (   1.000000   0.000000   0.000000 )  
               a(2) = (   0.495175   0.868793   0.000000 )  
               a(3) = (   0.495175   0.287729   0.819765 )  

     reciprocal axes: (cart. coord. in units 2 pi/alat)
               b(1) = (  1.000000 -0.569957 -0.403996 )  
               b(2) = (  0.000000  1.151022 -0.403996 )  
               b(3) = (  0.000000  0.000000  1.219862 )  


     PseudoPot. # 1 for As read from file:
     /home/fonari/QE-builds/q-e/test-suite/..//pseudo/As.pz-bhs.UPF
     MD5 check sum: 2c53d8691f3db84e0fbdf898b12bc293
     Pseudo is Norm-conserving, Zval =  5.0
     Generated by new atomic code, or converted to UPF format
     Using radial grid of  525 points,  2 beta functions with: 
                l(1) =   0
                l(2) =   1

     atomic species   valence    mass     pseudopotential
        As             5.00    74.90000     As( 1.00)

      2 Sym. Ops., with inversion, found



   Cartesian axes

     site n.     atom                  positions (alat units)
         1           As  tau(   1) = (   0.5772212   0.3354030   0.2377400  )
         2           As  tau(   2) = (  -0.5772212  -0.3354030  -0.2377400  )

     number of k points=    32  Methfessel-Paxton smearing, width (Ry)=  0.0050
                       cart. coord. in units 2pi/alat
        k(    1) = (   0.1250000   0.0726331   0.0514837), wk =   0.0625000
        k(    2) = (   0.1250000   0.0726331   0.3564493), wk =   0.0625000
        k(    3) = (   0.1250000   0.0726331  -0.5584473), wk =   0.0625000
        k(    4) = (   0.1250000   0.0726331  -0.2534818), wk =   0.0625000
        k(    5) = (   0.1250000   0.3603885  -0.0495153), wk =   0.0625000
        k(    6) = (   0.1250000   0.3603885   0.2554502), wk =   0.0625000
        k(    7) = (   0.1250000   0.3603885  -0.6594464), wk =   0.0625000
        k(    8) = (   0.1250000   0.3603885  -0.3544809), wk =   0.0625000
        k(    9) = (   0.1250000  -0.5028777   0.2534818), wk =   0.0625000
        k(   10) = (   0.1250000  -0.5028777   0.5584473), wk =   0.0625000
        k(   11) = (   0.1250000  -0.5028777  -0.3564493), wk =   0.0625000
        k(   12) = (   0.1250000  -0.5028777  -0.0514837), wk =   0.0625000
        k(   13) = (   0.1250000  -0.2151223   0.1524828), wk =   0.0625000
        k(   14) = (   0.1250000  -0.2151223   0.4574483), wk =   0.0625000
        k(   15) = (   0.1250000  -0.2151223  -0.4574483), wk =   0.0625000
        k(   16) = (   0.1250000  -0.2151223  -0.1524828), wk =   0.0625000
        k(   17) = (   0.3750000  -0.0698561  -0.0495153), wk =   0.0625000
        k(   18) = (   0.3750000  -0.0698561   0.2554502), wk =   0.0625000
        k(   19) = (   0.3750000  -0.0698561  -0.6594464), wk =   0.0625000
        k(   20) = (   0.3750000  -0.0698561  -0.3544809), wk =   0.0625000
        k(   21) = (   0.3750000   0.2178993  -0.1505144), wk =   0.0625000
        k(   22) = (   0.3750000   0.2178993   0.1544512), wk =   0.0625000
        k(   23) = (   0.3750000   0.2178993  -0.7604454), wk =   0.0625000
        k(   24) = (   0.3750000   0.2178993  -0.4554799), wk =   0.0625000
        k(   25) = (   0.3750000  -0.6453669   0.1524828), wk =   0.0625000
        k(   26) = (   0.3750000  -0.6453669   0.4574483), wk =   0.0625000
        k(   27) = (   0.3750000  -0.6453669  -0.4574483), wk =   0.0625000
        k(   28) = (   0.3750000  -0.6453669  -0.1524828), wk =   0.0625000
        k(   29) = (   0.3750000  -0.3576115   0.0514837), wk =   0.0625000
        k(   30) = (   0.3750000  -0.3576115   0.3564493), wk =   0.0625000
        k(   31) = (   0.3750000  -0.3576115  -0.5584473), wk =   0.0625000
        k(   32) = (   0.3750000  -0.3576115  -0.2534818), wk =   0.0625000

     Dense  grid:     4159 G-vectors     FFT dimensions: (  24,  24,  24)

     Estimated max dynamical RAM per process >       5.79 MB

     Initial potential from superposition of free atoms

     starting charge    9.99960, renormalised to   10.00000
     Starting wfcs are    8 randomized atomic wfcs +    1 random wfcs

     total cpu time spent up to now is        0.1 secs

     Self-consistent Calculation

     iteration #  1     ecut=    25.00 Ry     beta= 0.70
     Davidson diagonalization with overlap
     ethr =  1.00E-02,  avg # of iterations =  4.2

     Threshold (ethr) on eigenvalues was too large:
     Diagonalizing with lowered threshold

     Davidson diagonalization with overlap
     ethr =  1.54E-04,  avg # of iterations =  1.5

     total cpu time spent up to now is        0.5 secs

     total energy              =     -25.43995377 Ry
     estimated scf accuracy    <       0.01555766 Ry

     iteration #  2     ecut=    25.00 Ry     beta= 0.70
     Davidson diagonalization with overlap
     ethr =  1.56E-04,  avg # of iterations =  1.0

     total cpu time spent up to now is        0.6 secs

     total energy              =     -25.44008188 Ry
     estimated scf accuracy    <       0.00088611 Ry

     iteration #  3     ecut=    25.00 Ry     beta= 0.70
     Davidson diagonalization with overlap
     ethr =  8.86E-06,  avg # of iterations =  1.8

     total cpu time spent up to now is        0.7 secs

     total energy              =     -25.44011454 Ry
     estimated scf accuracy    <       0.00000522 Ry

     iteration #  4     ecut=    25.00 Ry     beta= 0.70
     Davidson diagonalization with overlap
     ethr =  5.22E-08,  avg # of iterations =  3.1

     total cpu time spent up to now is        0.9 secs

     total energy              =     -25.44012210 Ry
     estimated scf accuracy    <       0.00000067 Ry

     iteration #  5     ecut=    25.00 Ry     beta= 0.70
     Davidson diagonalization with overlap
     ethr =  6.69E-09,  avg # of iterations =  1.4

     total cpu time spent up to now is        1.1 secs

     End of self-consistent calculation

          k = 0.1250 0.0726 0.0515 (   531 PWs)   bands (ev):

    -6.9960   4.5196   5.9667   5.9667   8.4360  11.0403  11.7601  11.7602
    16.5645

          k = 0.1250 0.0726 0.3564 (   522 PWs)   bands (ev):

    -5.9250   0.3917   5.3512   5.6501   9.2996  10.5303  11.7005  13.5632
    15.7170

          k = 0.1250 0.0726-0.5584 (   520 PWs)   bands (ev):

    -4.3490  -2.4704   4.7883   6.1554   7.8796  10.8149  12.5849  13.8261
    17.7263

          k = 0.1250 0.0726-0.2535 (   525 PWs)   bands (ev):

    -6.3695   1.3043   4.9860   7.1720   8.5435  10.8049  12.4702  13.9612
    15.3511

          k = 0.1250 0.3604-0.0495 (   522 PWs)   bands (ev):

    -5.9250   0.3917   5.3512   5.6501   9.2996  10.5303  11.7005  13.5632
    15.7167

          k = 0.1250 0.3604 0.2555 (   519 PWs)   bands (ev):

    -5.5427   1.1265   3.5658   4.2978   7.5159  10.4217  13.7076  13.7746
    16.9045

          k = 0.1250 0.3604-0.6594 (   510 PWs)   bands (ev):

    -3.8393  -1.8099   2.3270   4.2466   8.0539  11.6204  13.3234  15.7202
    17.3489

          k = 0.1250 0.3604-0.3545 (   521 PWs)   bands (ev):

    -4.7124  -1.4722   3.0016   6.6926   7.7777  12.3034  13.0675  13.4304
    16.0962

          k = 0.1250-0.5029 0.2535 (   520 PWs)   bands (ev):

    -4.3490  -2.4704   4.7883   6.1554   7.8796  10.8149  12.5849  13.8261
    17.7263

          k = 0.1250-0.5029 0.5584 (   510 PWs)   bands (ev):

    -3.8393  -1.8099   2.3271   4.2466   8.0539  11.6204  13.3234  15.7202
    17.3489

          k = 0.1250-0.5029-0.3564 (   510 PWs)   bands (ev):

    -4.0542  -1.5061   3.7084   3.7296   6.0243  10.0593  15.9112  17.7151
    18.4776

          k = 0.1250-0.5029-0.0515 (   521 PWs)   bands (ev):

    -4.7124  -1.4722   3.0016   6.6926   7.7777  12.3034  13.0675  13.4304
    16.0962

          k = 0.1250-0.2151 0.1525 (   525 PWs)   bands (ev):

    -6.3695   1.3043   4.9860   7.1720   8.5435  10.8049  12.4702  13.9612
    15.3511

          k = 0.1250-0.2151 0.4574 (   521 PWs)   bands (ev):

    -4.7124  -1.4722   3.0016   6.6926   7.7777  12.3034  13.0675  13.4304
    16.0962

          k = 0.1250-0.2151-0.4574 (   521 PWs)   bands (ev):

    -4.7124  -1.4722   3.0016   6.6926   7.7777  12.3034  13.0675  13.4304
    16.0962

          k = 0.1250-0.2151-0.1525 (   525 PWs)   bands (ev):

    -6.3695   1.3043   4.9860   7.1720   8.5435  10.8049  12.4702  13.9612
    15.3511

          k = 0.3750-0.0699-0.0495 (   522 PWs)   bands (ev):

    -5.9250   0.3917   5.3512   5.6501   9.2996  10.5303  11.7005  13.5632
    15.7167

          k = 0.3750-0.0699 0.2555 (   519 PWs)   bands (ev):

    -5.5427   1.1264   3.5658   4.2978   7.5159  10.4217  13.7076  13.7746
    16.9045

          k = 0.3750-0.0699-0.6594 (   510 PWs)   bands (ev):

    -3.8393  -1.8099   2.3271   4.2466   8.0539  11.6204  13.3234  15.7202
    17.3489

          k = 0.3750-0.0699-0.3545 (   521 PWs)   bands (ev):

    -4.7124  -1.4722   3.0016   6.6926   7.7777  12.3034  13.0675  13.4304
    16.0962

          k = 0.3750 0.2179-0.1505 (   519 PWs)   bands (ev):

    -5.5427   1.1265   3.5658   4.2978   7.5159  10.4217  13.7076  13.7746
    16.9045

          k = 0.3750 0.2179 0.1545 (   522 PWs)   bands (ev):

    -5.8586   0.8361   5.8840   5.8840   7.4114  10.0627  10.0627  12.1192
    17.3944

          k = 0.3750 0.2179-0.7604 (   520 PWs)   bands (ev):

    -4.8492  -0.0498   2.4338   4.7831   7.5088  11.6828  12.0642  14.4760
    17.7700

          k = 0.3750 0.2179-0.4555 (   510 PWs)   bands (ev):

    -4.0542  -1.5061   3.7084   3.7296   6.0243  10.0593  15.9112  17.7151
    18.4776

          k = 0.3750-0.6454 0.1525 (   510 PWs)   bands (ev):

    -3.8393  -1.8099   2.3271   4.2466   8.0539  11.6204  13.3234  15.7202
    17.3489

          k = 0.3750-0.6454 0.4574 (   520 PWs)   bands (ev):

    -4.8492  -0.0498   2.4338   4.7831   7.5088  11.6828  12.0642  14.4760
    17.7701

          k = 0.3750-0.6454-0.4574 (   520 PWs)   bands (ev):

    -4.8492  -0.0498   2.4338   4.7831   7.5088  11.6828  12.0642  14.4760
    17.7700

          k = 0.3750-0.6454-0.1525 (   510 PWs)   bands (ev):

    -3.8393  -1.8099   2.3270   4.2466   8.0539  11.6204  13.3234  15.7202
    17.3489

          k = 0.3750-0.3576 0.0515 (   521 PWs)   bands (ev):

    -4.7124  -1.4722   3.0016   6.6926   7.7777  12.3034  13.0675  13.4304
    16.0962

          k = 0.3750-0.3576 0.3564 (   510 PWs)   bands (ev):

    -4.0542  -1.5061   3.7084   3.7296   6.0243  10.0593  15.9112  17.7151
    18.4776

          k = 0.3750-0.3576-0.5584 (   510 PWs)   bands (ev):

    -3.8393  -1.8099   2.3271   4.2466   8.0539  11.6204  13.3234  15.7202
    17.3489

          k = 0.3750-0.3576-0.2535 (   520 PWs)   bands (ev):

    -4.3490  -2.4704   4.7883   6.1554   7.8796  10.8149  12.5849  13.8261
    17.7262

     the Fermi energy is    10.0033 ev

!    total energy              =     -25.44012218 Ry
     estimated scf accuracy    <       0.00000001 Ry
     smearing contrib. (-TS)   =       0.00004540 Ry
     internal energy E=F+TS    =     -25.44016757 Ry

     The total energy is F=E-TS. E is the sum of the following terms:
     one-electron contribution =       7.72810297 Ry
     hartree contribution      =       1.22165924 Ry
     xc contribution           =      -6.50440083 Ry
     ewald contribution        =     -27.88552896 Ry

     convergence has been achieved in   5 iterations

     Forces acting on atoms (cartesian axes, Ry/au):

     atom    1 type  1   force =    -0.10311786   -0.05991789   -0.04247081
     atom    2 type  1   force =     0.10311786    0.05991789    0.04247081

     Total force =     0.179038     Total SCF correction =     0.000023

     BFGS Geometry Optimization

     number of scf cycles    =   1
     number of bfgs steps    =   0

     energy   new            =     -25.4401221753 Ry

     new trust radius        =       0.1265986423 bohr
     new conv_thr            =       0.0000001000 Ry


ATOMIC_POSITIONS (crystal)
As            0.2826195970        0.2826196641        0.2826196936
As           -0.2826195970       -0.2826196641       -0.2826196936



     Writing output data file ./pwscf.save/
     NEW-OLD atomic charge density approx. for the potential

     total cpu time spent up to now is        1.2 secs

     Self-consistent Calculation

     iteration #  1     ecut=    25.00 Ry     beta= 0.70
     Davidson diagonalization with overlap
     ethr =  1.00E-06,  avg # of iterations =  5.5

     total cpu time spent up to now is        1.5 secs

     total energy              =     -25.46779522 Ry
     estimated scf accuracy    <       0.00041134 Ry

     iteration #  2     ecut=    25.00 Ry     beta= 0.70
     Davidson diagonalization with overlap
     ethr =  4.11E-06,  avg # of iterations =  1.9

     total cpu time spent up to now is        1.6 secs

     total energy              =     -25.46785491 Ry
     estimated scf accuracy    <       0.00001361 Ry

     iteration #  3     ecut=    25.00 Ry     beta= 0.70
     Davidson diagonalization with overlap
     ethr =  1.36E-07,  avg # of iterations =  2.0

     total cpu time spent up to now is        1.8 secs

     total energy              =     -25.46785757 Ry
     estimated scf accuracy    <       0.00000059 Ry

     iteration #  4     ecut=    25.00 Ry     beta= 0.70
     Davidson diagonalization with overlap
     ethr =  5.90E-09,  avg # of iterations =  1.9

     total cpu time spent up to now is        1.9 secs

     End of self-consistent calculation

          k = 0.1250 0.0726 0.0515 (   531 PWs)   bands (ev):

    -6.7776   4.2340   6.3288   6.3288   8.5001  11.2001  11.9867  11.9867
    16.2473

          k = 0.1250 0.0726 0.3564 (   522 PWs)   bands (ev):

    -5.6770   0.4517   5.3342   6.1828   9.4478  10.3574  11.2223  13.8609
    15.4798

          k = 0.1250 0.0726-0.5584 (   520 PWs)   bands (ev):

    -4.0706  -2.3386   5.2593   6.0818   7.8129  10.9869  12.0077  13.3277
    17.9276

          k = 0.1250 0.0726-0.2535 (   525 PWs)   bands (ev):

    -6.1593   1.5019   5.3504   7.0745   8.4049  11.2617  12.0753  13.7821
    15.4184

          k = 0.1250 0.3604-0.0495 (   522 PWs)   bands (ev):

    -5.6770   0.4517   5.3342   6.1828   9.4478  10.3574  11.2223  13.8609
    15.4798

          k = 0.1250 0.3604 0.2555 (   519 PWs)   bands (ev):

    -5.2593   1.1330   3.6569   4.5923   7.1560  10.8719  13.8452  13.8597
    16.3415

          k = 0.1250 0.3604-0.6594 (   510 PWs)   bands (ev):

    -3.5170  -1.6225   2.4912   4.0962   7.8838  11.6835  13.5776  15.7910
    16.8919

          k = 0.1250 0.3604-0.3545 (   521 PWs)   bands (ev):

    -4.4805  -1.2584   3.3392   6.4277   7.7591  11.9682  13.2160  13.5733
    15.7738

          k = 0.1250-0.5029 0.2535 (   520 PWs)   bands (ev):

    -4.0706  -2.3386   5.2593   6.0818   7.8129  10.9869  12.0077  13.3277
    17.9276

          k = 0.1250-0.5029 0.5584 (   510 PWs)   bands (ev):

    -3.5170  -1.6225   2.4912   4.0962   7.8838  11.6835  13.5776  15.7910
    16.8919

          k = 0.1250-0.5029-0.3564 (   510 PWs)   bands (ev):

    -3.8027  -1.1276   3.3504   4.0119   5.7523  10.5216  15.5898  17.3385
    18.0001

          k = 0.1250-0.5029-0.0515 (   521 PWs)   bands (ev):

    -4.4805  -1.2584   3.3392   6.4277   7.7591  11.9682  13.2160  13.5733
    15.7738

          k = 0.1250-0.2151 0.1525 (   525 PWs)   bands (ev):

    -6.1593   1.5019   5.3504   7.0745   8.4049  11.2617  12.0753  13.7821
    15.4183

          k = 0.1250-0.2151 0.4574 (   521 PWs)   bands (ev):

    -4.4805  -1.2584   3.3392   6.4277   7.7591  11.9682  13.2160  13.5733
    15.7738

          k = 0.1250-0.2151-0.4574 (   521 PWs)   bands (ev):

    -4.4805  -1.2584   3.3392   6.4277   7.7591  11.9682  13.2160  13.5733
    15.7738

          k = 0.1250-0.2151-0.1525 (   525 PWs)   bands (ev):

    -6.1593   1.5019   5.3504   7.0745   8.4049  11.2617  12.0753  13.7821
    15.4183

          k = 0.3750-0.0699-0.0495 (   522 PWs)   bands (ev):

    -5.6770   0.4517   5.3342   6.1828   9.4478  10.3574  11.2223  13.8609
    15.4798

          k = 0.3750-0.0699 0.2555 (   519 PWs)   bands (ev):

    -5.2593   1.1330   3.6569   4.5923   7.1560  10.8719  13.8452  13.8597
    16.3415

          k = 0.3750-0.0699-0.6594 (   510 PWs)   bands (ev):

    -3.5170  -1.6225   2.4912   4.0962   7.8838  11.6835  13.5776  15.7910
    16.8919

          k = 0.3750-0.0699-0.3545 (   521 PWs)   bands (ev):

    -4.4805  -1.2584   3.3392   6.4277   7.7591  11.9682  13.2160  13.5733
    15.7738

          k = 0.3750 0.2179-0.1505 (   519 PWs)   bands (ev):

    -5.2593   1.1330   3.6569   4.5923   7.1560  10.8719  13.8452  13.8597
    16.3415

          k = 0.3750 0.2179 0.1545 (   522 PWs)   bands (ev):

    -5.5091   0.3756   6.3219   6.3219   7.8889   9.9636   9.9636  11.7652
    17.5188

          k = 0.3750 0.2179-0.7604 (   520 PWs)   bands (ev):

    -4.4436  -0.3251   2.6060   5.1587   7.3901  11.8760  11.9007  14.7952
    17.4501

          k = 0.3750 0.2179-0.4555 (   510 PWs)   bands (ev):

    -3.8027  -1.1276   3.3504   4.0119   5.7523  10.5216  15.5898  17.3385
    18.0001

          k = 0.3750-0.6454 0.1525 (   510 PWs)   bands (ev):

    -3.5170  -1.6225   2.4912   4.0962   7.8838  11.6835  13.5776  15.7910
    16.8919

          k = 0.3750-0.6454 0.4574 (   520 PWs)   bands (ev):

    -4.4436  -0.3251   2.6060   5.1587   7.3901  11.8760  11.9007  14.7952
    17.4501

          k = 0.3750-0.6454-0.4574 (   520 PWs)   bands (ev):

    -4.4436  -0.3251   2.6060   5.1587   7.3901  11.8760  11.9007  14.7952
    17.4501

          k = 0.3750-0.6454-0.1525 (   510 PWs)   bands (ev):

    -3.5170  -1.6225   2.4912   4.0962   7.8838  11.6835  13.5776  15.7910
    16.8919

          k = 0.3750-0.3576 0.0515 (   521 PWs)   bands (ev):

    -4.4805  -1.2584   3.3392   6.4277   7.7591  11.9682  13.2160  13.5733
    15.7738

          k = 0.3750-0.3576 0.3564 (   510 PWs)   bands (ev):

    -3.8027  -1.1276   3.3504   4.0119   5.7523  10.5216  15.5898  17.3385
    18.0001

          k = 0.3750-0.3576-0.5584 (   510 PWs)   bands (ev):

    -3.5170  -1.6225   2.4912   4.0962   7.8838  11.6835  13.5776  15.7910
    16.8919

          k = 0.3750-0.3576-0.2535 (   520 PWs)   bands (ev):

    -4.0706  -2.3386   5.2593   6.0818   7.8129  10.9869  12.0077  13.3277
    17.9276

     the Fermi energy is     9.5051 ev

!    total energy              =     -25.46785764 Ry
     estimated scf accuracy    <       0.00000001 Ry
     smearing contrib. (-TS)   =       0.00002718 Ry
     internal energy E=F+TS    =     -25.46788481 Ry

     The total energy is F=E-TS. E is the sum of the following terms:
     one-electron contribution =       7.97197662 Ry
     hartree contribution      =       1.12528997 Ry
     xc contribution           =      -6.48291538 Ry
     ewald contribution        =     -28.08223602 Ry

     convergence has been achieved in   4 iterations

     Forces acting on atoms (cartesian axes, Ry/au):

     atom    1 type  1   force =    -0.07330513   -0.04259509   -0.03019186
     atom    2 type  1   force =     0.07330513    0.04259509    0.03019186

     Total force =     0.127276     Total SCF correction =     0.000010

     number of scf cycles    =   2
     number of bfgs steps    =   1

     energy   old            =     -25.4401221753 Ry
     energy   new            =     -25.4678576356 Ry

     CASE: energy  _new < energy  _old

     new trust radius        =       0.1392585066 bohr
     new conv_thr            =       0.0000000733 Ry


ATOMIC_POSITIONS (crystal)
As            0.2744901878        0.2744902323        0.2744903849
As           -0.2744901878       -0.2744902323       -0.2744903849



     Writing output data file ./pwscf.save/
     NEW-OLD atomic charge density approx. for the potential

     total cpu time spent up to now is        2.0 secs

     Self-consistent Calculation

     iteration #  1     ecut=    25.00 Ry     beta= 0.70
     Davidson diagonalization with overlap
     ethr =  1.00E-06,  avg # of iterations =  5.6

     total cpu time spent up to now is        2.3 secs

     total energy              =     -25.48596267 Ry
     estimated scf accuracy    <       0.00057925 Ry

     iteration #  2     ecut=    25.00 Ry     beta= 0.70
     Davidson diagonalization with overlap
     ethr =  5.79E-06,  avg # of iterations =  1.9

     total cpu time spent up to now is        2.4 secs

     total energy              =     -25.48604302 Ry
     estimated scf accuracy    <       0.00002622 Ry

     iteration #  3     ecut=    25.00 Ry     beta= 0.70
     Davidson diagonalization with overlap
     ethr =  2.62E-07,  avg # of iterations =  2.0

     total cpu time spent up to now is        2.6 secs

     total energy              =     -25.48604874 Ry
     estimated scf accuracy    <       0.00000103 Ry

     iteration #  4     ecut=    25.00 Ry     beta= 0.70
     Davidson diagonalization with overlap
     ethr =  1.03E-08,  avg # of iterations =  1.9

     total cpu time spent up to now is        2.7 secs

     End of self-consistent calculation

          k = 0.1250 0.0726 0.0515 (   531 PWs)   bands (ev):

    -6.5637   3.9508   6.6883   6.6883   8.4181  11.6391  12.2064  12.2064
    15.9225

          k = 0.1250 0.0726 0.3564 (   522 PWs)   bands (ev):

    -5.4295   0.4668   5.3454   6.8041   9.5571  10.2265  10.6314  14.0232
    15.4009

          k = 0.1250 0.0726-0.5584 (   520 PWs)   bands (ev):

    -3.7843  -2.2381   5.7724   6.0336   7.7083  11.1799  11.3989  12.8460
    17.9320

          k = 0.1250 0.0726-0.2535 (   525 PWs)   bands (ev):

    -5.9559   1.6794   5.7165   6.9327   8.3653  11.5935  11.8286  13.5272
    15.2755

          k = 0.1250 0.3604-0.0495 (   522 PWs)   bands (ev):

    -5.4295   0.4668   5.3454   6.8041   9.5571  10.2265  10.6314  14.0232
    15.4009

          k = 0.1250 0.3604 0.2555 (   519 PWs)   bands (ev):

    -4.9677   1.0207   3.9121   4.8759   6.7064  11.4243  13.8955  13.9841
    15.7188

          k = 0.1250 0.3604-0.6594 (   510 PWs)   bands (ev):

    -3.1697  -1.4785   2.6093   3.9641   7.7591  11.6349  13.8656  15.9673
    16.4337

          k = 0.1250 0.3604-0.3545 (   521 PWs)   bands (ev):

    -4.2545  -1.0574   3.6948   6.1046   7.8327  11.4432  13.2653  13.9003
    15.5215

          k = 0.1250-0.5029 0.2535 (   520 PWs)   bands (ev):

    -3.7843  -2.2381   5.7724   6.0336   7.7083  11.1799  11.3989  12.8460
    17.9320

          k = 0.1250-0.5029 0.5584 (   510 PWs)   bands (ev):

    -3.1697  -1.4785   2.6093   3.9641   7.7591  11.6349  13.8656  15.9673
    16.4337

          k = 0.1250-0.5029-0.3564 (   510 PWs)   bands (ev):

    -3.5519  -0.7124   2.9253   4.3065   5.4699  11.0512  15.2799  16.6880
    17.7004

          k = 0.1250-0.5029-0.0515 (   521 PWs)   bands (ev):

    -4.2545  -1.0574   3.6948   6.1046   7.8327  11.4432  13.2653  13.9003
    15.5215

          k = 0.1250-0.2151 0.1525 (   525 PWs)   bands (ev):

    -5.9559   1.6794   5.7165   6.9327   8.3653  11.5935  11.8286  13.5272
    15.2755

          k = 0.1250-0.2151 0.4574 (   521 PWs)   bands (ev):

    -4.2545  -1.0574   3.6948   6.1046   7.8327  11.4432  13.2653  13.9003
    15.5215

          k = 0.1250-0.2151-0.4574 (   521 PWs)   bands (ev):

    -4.2545  -1.0574   3.6948   6.1046   7.8327  11.4432  13.2653  13.9003
    15.5215

          k = 0.1250-0.2151-0.1525 (   525 PWs)   bands (ev):

    -5.9559   1.6794   5.7165   6.9327   8.3653  11.5935  11.8286  13.5272
    15.2755

          k = 0.3750-0.0699-0.0495 (   522 PWs)   bands (ev):

    -5.4295   0.4668   5.3454   6.8041   9.5571  10.2265  10.6314  14.0233
    15.4009

          k = 0.3750-0.0699 0.2555 (   519 PWs)   bands (ev):

    -4.9677   1.0207   3.9121   4.8759   6.7064  11.4243  13.8955  13.9841
    15.7188

          k = 0.3750-0.0699-0.6594 (   510 PWs)   bands (ev):

    -3.1697  -1.4785   2.6093   3.9641   7.7591  11.6349  13.8656  15.9673
    16.4337

          k = 0.3750-0.0699-0.3545 (   521 PWs)   bands (ev):

    -4.2545  -1.0574   3.6948   6.1046   7.8327  11.4432  13.2653  13.9003
    15.5215

          k = 0.3750 0.2179-0.1505 (   519 PWs)   bands (ev):

    -4.9677   1.0207   3.9121   4.8759   6.7064  11.4243  13.8955  13.9841
    15.7188

          k = 0.3750 0.2179 0.1545 (   522 PWs)   bands (ev):

    -5.1246  -0.1239   6.7920   6.7920   8.4032   9.8020   9.8020  11.3846
    17.6647

          k = 0.3750 0.2179-0.7604 (   520 PWs)   bands (ev):

    -3.9630  -0.7487   2.8474   5.5394   7.2248  11.6526  12.1748  15.1331
    17.1380

          k = 0.3750 0.2179-0.4555 (   510 PWs)   bands (ev):

    -3.5519  -0.7124   2.9253   4.3065   5.4699  11.0512  15.2800  16.6880
    17.7004

          k = 0.3750-0.6454 0.1525 (   510 PWs)   bands (ev):

    -3.1697  -1.4785   2.6093   3.9641   7.7591  11.6349  13.8656  15.9673
    16.4337

          k = 0.3750-0.6454 0.4574 (   520 PWs)   bands (ev):

    -3.9630  -0.7487   2.8474   5.5394   7.2248  11.6526  12.1748  15.1331
    17.1380

          k = 0.3750-0.6454-0.4574 (   520 PWs)   bands (ev):

    -3.9630  -0.7487   2.8474   5.5394   7.2248  11.6526  12.1748  15.1331
    17.1380

          k = 0.3750-0.6454-0.1525 (   510 PWs)   bands (ev):

    -3.1697  -1.4785   2.6093   3.9641   7.7591  11.6349  13.8656  15.9673
    16.4337

          k = 0.3750-0.3576 0.0515 (   521 PWs)   bands (ev):

    -4.2545  -1.0574   3.6948   6.1046   7.8327  11.4432  13.2653  13.9003
    15.5215

          k = 0.3750-0.3576 0.3564 (   510 PWs)   bands (ev):

    -3.5519  -0.7124   2.9253   4.3065   5.4699  11.0512  15.2799  16.6880
    17.7004

          k = 0.3750-0.3576-0.5584 (   510 PWs)   bands (ev):

    -3.1697  -1.4785   2.6093   3.9641   7.7591  11.6349  13.8656  15.9673
    16.4337

          k = 0.3750-0.3576-0.2535 (   520 PWs)   bands (ev):

    -3.7843  -2.2381   5.7724   6.0336   7.7083  11.1799  11.3989  12.8460
    17.9320

     the Fermi energy is     9.6144 ev

!    total energy              =     -25.48604890 Ry
     estimated scf accuracy    <       0.00000002 Ry
     smearing contrib. (-TS)   =       0.00002798 Ry
     internal energy E=F+TS    =     -25.48607689 Ry

     The total energy is F=E-TS. E is the sum of the following terms:
     one-electron contribution =       8.22188987 Ry
     hartree contribution      =       1.02432194 Ry
     xc contribution           =      -6.45902438 Ry
     ewald contribution        =     -28.27326431 Ry

     convergence has been achieved in   4 iterations

     Forces acting on atoms (cartesian axes, Ry/au):

     atom    1 type  1   force =    -0.03261809   -0.01895331   -0.01343464
     atom    2 type  1   force =     0.03261809    0.01895331    0.01343464

     Total force =     0.056633     Total SCF correction =     0.000024

     number of scf cycles    =   3
     number of bfgs steps    =   2

     energy   old            =     -25.4678576356 Ry
     energy   new            =     -25.4860489024 Ry

     CASE: energy  _new < energy  _old

     new trust radius        =       0.1116418999 bohr
     new conv_thr            =       0.0000000326 Ry


ATOMIC_POSITIONS (crystal)
As            0.2679729990        0.2679729998        0.2679731147
As           -0.2679729990       -0.2679729998       -0.2679731147



     Writing output data file ./pwscf.save/
     NEW-OLD atomic charge density approx. for the potential

     total cpu time spent up to now is        2.8 secs

     Self-consistent Calculation

     iteration #  1     ecut=    25.00 Ry     beta= 0.70
     Davidson diagonalization with overlap
     ethr =  1.00E-06,  avg # of iterations =  5.6

     total cpu time spent up to now is        3.1 secs

     total energy              =     -25.49061606 Ry
     estimated scf accuracy    <       0.00031043 Ry

     iteration #  2     ecut=    25.00 Ry     beta= 0.70
     Davidson diagonalization with overlap
     ethr =  3.10E-06,  avg # of iterations =  1.1

     total cpu time spent up to now is        3.2 secs

     total energy              =     -25.49065113 Ry
     estimated scf accuracy    <       0.00001736 Ry

     iteration #  3     ecut=    25.00 Ry     beta= 0.70
     Davidson diagonalization with overlap
     ethr =  1.74E-07,  avg # of iterations =  2.0

     total cpu time spent up to now is        3.3 secs

     total energy              =     -25.49065448 Ry
     estimated scf accuracy    <       0.00000111 Ry

     iteration #  4     ecut=    25.00 Ry     beta= 0.70
     Davidson diagonalization with overlap
     ethr =  1.11E-08,  avg # of iterations =  2.1

     total cpu time spent up to now is        3.5 secs

     End of self-consistent calculation

          k = 0.1250 0.0726 0.0515 (   531 PWs)   bands (ev):

    -6.4290   3.7650   6.9203   6.9203   8.3066  12.0904  12.3467  12.3467
    15.7051

          k = 0.1250 0.0726 0.3564 (   522 PWs)   bands (ev):

    -5.2707   0.4494   5.3677   7.3138   9.5906  10.1284  10.1757  14.0051
    15.4842

          k = 0.1250 0.0726-0.5584 (   520 PWs)   bands (ev):

    -3.5925  -2.1967   6.0215   6.1446   7.6147  10.9648  11.3193  12.5341
    17.8133

          k = 0.1250 0.0726-0.2535 (   525 PWs)   bands (ev):

    -5.8293   1.7799   5.9565   6.8084   8.4241  11.2179  12.3043  13.3302
    14.9645

          k = 0.1250 0.3604-0.0495 (   522 PWs)   bands (ev):

    -5.2707   0.4494   5.3677   7.3138   9.5906  10.1284  10.1757  14.0051
    15.4842

          k = 0.1250 0.3604 0.2555 (   519 PWs)   bands (ev):

    -4.7745   0.8903   4.1917   5.0540   6.3338  11.8706  13.9163  14.0459
    15.2337

          k = 0.1250 0.3604-0.6594 (   510 PWs)   bands (ev):

    -2.9243  -1.4228   2.6622   3.8869   7.7079  11.5368  14.0842  16.1126
    16.1601

          k = 0.1250 0.3604-0.3545 (   521 PWs)   bands (ev):

    -4.1130  -0.9374   3.9511   5.8491   7.9522  11.0178  13.2372  14.1887
    15.3703

          k = 0.1250-0.5029 0.2535 (   520 PWs)   bands (ev):

    -3.5925  -2.1967   6.0215   6.1446   7.6147  10.9648  11.3193  12.5341
    17.8133

          k = 0.1250-0.5029 0.5584 (   510 PWs)   bands (ev):

    -2.9243  -1.4228   2.6622   3.8869   7.7079  11.5368  14.0842  16.1126
    16.1601

          k = 0.1250-0.5029-0.3564 (   510 PWs)   bands (ev):

    -3.3918  -0.4093   2.6081   4.4931   5.2800  11.4557  15.0803  16.1571
    17.5338

          k = 0.1250-0.5029-0.0515 (   521 PWs)   bands (ev):

    -4.1130  -0.9374   3.9511   5.8491   7.9522  11.0178  13.2372  14.1887
    15.3703

          k = 0.1250-0.2151 0.1525 (   525 PWs)   bands (ev):

    -5.8293   1.7799   5.9565   6.8084   8.4241  11.2179  12.3043  13.3302
    14.9645

          k = 0.1250-0.2151 0.4574 (   521 PWs)   bands (ev):

    -4.1130  -0.9374   3.9511   5.8491   7.9522  11.0178  13.2372  14.1887
    15.3703

          k = 0.1250-0.2151-0.4574 (   521 PWs)   bands (ev):

    -4.1130  -0.9374   3.9511   5.8491   7.9522  11.0178  13.2372  14.1887
    15.3703

          k = 0.1250-0.2151-0.1525 (   525 PWs)   bands (ev):

    -5.8293   1.7799   5.9565   6.8084   8.4241  11.2179  12.3043  13.3302
    14.9645

          k = 0.3750-0.0699-0.0495 (   522 PWs)   bands (ev):

    -5.2707   0.4494   5.3677   7.3138   9.5906  10.1284  10.1757  14.0051
    15.4842

          k = 0.3750-0.0699 0.2555 (   519 PWs)   bands (ev):

    -4.7745   0.8903   4.1917   5.0540   6.3338  11.8706  13.9163  14.0459
    15.2337

          k = 0.3750-0.0699-0.6594 (   510 PWs)   bands (ev):

    -2.9243  -1.4228   2.6622   3.8869   7.7079  11.5368  14.0842  16.1126
    16.1601

          k = 0.3750-0.0699-0.3545 (   521 PWs)   bands (ev):

    -4.1130  -0.9374   3.9511   5.8491   7.9522  11.0178  13.2372  14.1887
    15.3703

          k = 0.3750 0.2179-0.1505 (   519 PWs)   bands (ev):

    -4.7745   0.8903   4.1917   5.0540   6.3338  11.8706  13.9163  14.0459
    15.2337

          k = 0.3750 0.2179 0.1545 (   522 PWs)   bands (ev):

    -4.8480  -0.4805   7.1306   7.1307   8.7680   9.6461   9.6461  11.1041
    17.7751

          k = 0.3750 0.2179-0.7604 (   520 PWs)   bands (ev):

    -3.5706  -1.1358   3.0320   5.7920   7.0901  11.4850  12.3845  15.3502
    16.9665

          k = 0.3750 0.2179-0.4555 (   510 PWs)   bands (ev):

    -3.3918  -0.4093   2.6081   4.4931   5.2800  11.4557  15.0803  16.1571
    17.5338

          k = 0.3750-0.6454 0.1525 (   510 PWs)   bands (ev):

    -2.9243  -1.4228   2.6622   3.8869   7.7079  11.5368  14.0842  16.1126
    16.1601

          k = 0.3750-0.6454 0.4574 (   520 PWs)   bands (ev):

    -3.5706  -1.1358   3.0320   5.7920   7.0901  11.4850  12.3845  15.3502
    16.9665

          k = 0.3750-0.6454-0.4574 (   520 PWs)   bands (ev):

    -3.5706  -1.1358   3.0320   5.7920   7.0901  11.4850  12.3845  15.3502
    16.9665

          k = 0.3750-0.6454-0.1525 (   510 PWs)   bands (ev):

    -2.9243  -1.4228   2.6622   3.8869   7.7079  11.5368  14.0842  16.1126
    16.1601

          k = 0.3750-0.3576 0.0515 (   521 PWs)   bands (ev):

    -4.1130  -0.9374   3.9511   5.8491   7.9522  11.0178  13.2372  14.1887
    15.3703

          k = 0.3750-0.3576 0.3564 (   510 PWs)   bands (ev):

    -3.3918  -0.4093   2.6081   4.4931   5.2800  11.4557  15.0803  16.1571
    17.5338

          k = 0.3750-0.3576-0.5584 (   510 PWs)   bands (ev):

    -2.9243  -1.4228   2.6622   3.8869   7.7079  11.5368  14.0842  16.1126
    16.1601

          k = 0.3750-0.3576-0.2535 (   520 PWs)   bands (ev):

    -3.5925  -2.1967   6.0215   6.1446   7.6147  10.9648  11.3193  12.5341
    17.8133

     the Fermi energy is     9.6223 ev

!    total energy              =     -25.49065470 Ry
     estimated scf accuracy    <       0.00000002 Ry
     smearing contrib. (-TS)   =      -0.00011895 Ry
     internal energy E=F+TS    =     -25.49053574 Ry

     The total energy is F=E-TS. E is the sum of the following terms:
     one-electron contribution =       8.39475450 Ry
     hartree contribution      =       0.95279184 Ry
     xc contribution           =      -6.44129569 Ry
     ewald contribution        =     -28.39678640 Ry

     convergence has been achieved in   4 iterations

     Forces acting on atoms (cartesian axes, Ry/au):

     atom    1 type  1   force =    -0.00290235   -0.00168650   -0.00119506
     atom    2 type  1   force =     0.00290235    0.00168650    0.00119506

     Total force =     0.005039     Total SCF correction =     0.000020

     number of scf cycles    =   4
     number of bfgs steps    =   3

     energy   old            =     -25.4860489024 Ry
     energy   new            =     -25.4906546966 Ry

     CASE: energy  _new < energy  _old

     new trust radius        =       0.0109037894 bohr
     new conv_thr            =       0.0000000029 Ry


ATOMIC_POSITIONS (crystal)
As            0.2673364565        0.2673364418        0.2673366495
As           -0.2673364565       -0.2673364418       -0.2673366495



     Writing output data file ./pwscf.save/
     NEW-OLD atomic charge density approx. for the potential

     total cpu time spent up to now is        3.5 secs

     Self-consistent Calculation

     iteration #  1     ecut=    25.00 Ry     beta= 0.70
     Davidson diagonalization with overlap
     ethr =  1.00E-06,  avg # of iterations =  3.3

     Threshold (ethr) on eigenvalues was too large:
     Diagonalizing with lowered threshold

     Davidson diagonalization with overlap
     ethr =  4.49E-08,  avg # of iterations =  1.0

     total cpu time spent up to now is        3.9 secs

     total energy              =     -25.49070306 Ry
     estimated scf accuracy    <       0.00000447 Ry

     iteration #  2     ecut=    25.00 Ry     beta= 0.70
     Davidson diagonalization with overlap
     ethr =  4.47E-08,  avg # of iterations =  1.0

     total cpu time spent up to now is        4.0 secs

     total energy              =     -25.49070323 Ry
     estimated scf accuracy    <       0.00000018 Ry

     iteration #  3     ecut=    25.00 Ry     beta= 0.70
     Davidson diagonalization with overlap
     ethr =  1.79E-09,  avg # of iterations =  1.3

     total cpu time spent up to now is        4.1 secs

     total energy              =     -25.49070324 Ry
     estimated scf accuracy    <          3.7E-09 Ry

     iteration #  4     ecut=    25.00 Ry     beta= 0.70
     Davidson diagonalization with overlap
     ethr =  3.75E-11,  avg # of iterations =  3.0

     total cpu time spent up to now is        4.3 secs

     End of self-consistent calculation

          k = 0.1250 0.0726 0.0515 (   531 PWs)   bands (ev):

    -6.4178   3.7499   6.9402   6.9402   8.2952  12.1348  12.3591  12.3591
    15.6869

          k = 0.1250 0.0726 0.3564 (   522 PWs)   bands (ev):

    -5.2574   0.4473   5.3703   7.3642   9.5916  10.0794  10.1730  13.9994
    15.4961

          k = 0.1250 0.0726-0.5584 (   520 PWs)   bands (ev):

    -3.5760  -2.1939   6.0215   6.1782   7.6058  10.9273  11.3316  12.5084
    17.7998

          k = 0.1250 0.0726-0.2535 (   525 PWs)   bands (ev):

    -5.8188   1.7880   5.9771   6.7968   8.4333  11.1839  12.3511  13.3136
    14.9273

          k = 0.1250 0.3604-0.0495 (   522 PWs)   bands (ev):

    -5.2574   0.4473   5.3702   7.3642   9.5916  10.0794  10.1730  13.9994
    15.4961

          k = 0.1250 0.3604 0.2555 (   519 PWs)   bands (ev):

    -4.7581   0.8780   4.2208   5.0691   6.2982  11.9127  13.9184  14.0504
    15.1882

          k = 0.1250 0.3604-0.6594 (   510 PWs)   bands (ev):

    -2.9026  -1.4197   2.6662   3.8809   7.7053  11.5264  14.1043  16.0902
    16.1743

          k = 0.1250 0.3604-0.3545 (   521 PWs)   bands (ev):

    -4.1013  -0.9275   3.9745   5.8257   7.9660  10.9788  13.2335  14.2159
    15.3572

          k = 0.1250-0.5029 0.2535 (   520 PWs)   bands (ev):

    -3.5760  -2.1939   6.0215   6.1782   7.6058  10.9273  11.3316  12.5084
    17.7998

          k = 0.1250-0.5029 0.5584 (   510 PWs)   bands (ev):

    -2.9026  -1.4197   2.6662   3.8809   7.7053  11.5264  14.1043  16.0902
    16.1743

          k = 0.1250-0.5029-0.3564 (   510 PWs)   bands (ev):

    -3.3784  -0.3820   2.5800   4.5090   5.2640  11.4927  15.0645  16.1085
    17.5204

          k = 0.1250-0.5029-0.0515 (   521 PWs)   bands (ev):

    -4.1013  -0.9275   3.9745   5.8256   7.9660  10.9788  13.2335  14.2159
    15.3572

          k = 0.1250-0.2151 0.1525 (   525 PWs)   bands (ev):

    -5.8188   1.7880   5.9771   6.7968   8.4333  11.1839  12.3511  13.3136
    14.9273

          k = 0.1250-0.2151 0.4574 (   521 PWs)   bands (ev):

    -4.1013  -0.9275   3.9745   5.8257   7.9660  10.9788  13.2335  14.2159
    15.3572

          k = 0.1250-0.2151-0.4574 (   521 PWs)   bands (ev):

    -4.1013  -0.9275   3.9745   5.8257   7.9660  10.9788  13.2335  14.2159
    15.3572

          k = 0.1250-0.2151-0.1525 (   525 PWs)   bands (ev):

    -5.8188   1.7880   5.9771   6.7968   8.4333  11.1839  12.3511  13.3136
    14.9273

          k = 0.3750-0.0699-0.0495 (   522 PWs)   bands (ev):

    -5.2574   0.4473   5.3702   7.3642   9.5916  10.0794  10.1730  13.9994
    15.4961

          k = 0.3750-0.0699 0.2555 (   519 PWs)   bands (ev):

    -4.7581   0.8780   4.2208   5.0691   6.2982  11.9127  13.9184  14.0504
    15.1882

          k = 0.3750-0.0699-0.6594 (   510 PWs)   bands (ev):

    -2.9026  -1.4197   2.6662   3.8809   7.7053  11.5264  14.1043  16.0902
    16.1743

          k = 0.3750-0.0699-0.3545 (   521 PWs)   bands (ev):

    -4.1013  -0.9275   3.9745   5.8257   7.9660  10.9788  13.2335  14.2159
    15.3572

          k = 0.3750 0.2179-0.1505 (   519 PWs)   bands (ev):

    -4.7581   0.8780   4.2208   5.0691   6.2982  11.9127  13.9184  14.0504
    15.1883

          k = 0.3750 0.2179 0.1545 (   522 PWs)   bands (ev):

    -4.8235  -0.5113   7.1612   7.1613   8.7990   9.6313   9.6313  11.0788
    17.7851

          k = 0.3750 0.2179-0.7604 (   520 PWs)   bands (ev):

    -3.5326  -1.1738   3.0483   5.8138   7.0780  11.4709  12.4030  15.3674
    16.9557

          k = 0.3750 0.2179-0.4555 (   510 PWs)   bands (ev):

    -3.3784  -0.3820   2.5800   4.5090   5.2640  11.4927  15.0645  16.1085
    17.5204

          k = 0.3750-0.6454 0.1525 (   510 PWs)   bands (ev):

    -2.9026  -1.4197   2.6662   3.8809   7.7053  11.5264  14.1043  16.0902
    16.1743

          k = 0.3750-0.6454 0.4574 (   520 PWs)   bands (ev):

    -3.5326  -1.1738   3.0483   5.8138   7.0780  11.4709  12.4030  15.3674
    16.9557

          k = 0.3750-0.6454-0.4574 (   520 PWs)   bands (ev):

    -3.5326  -1.1738   3.0483   5.8138   7.0780  11.4709  12.4030  15.3674
    16.9557

          k = 0.3750-0.6454-0.1525 (   510 PWs)   bands (ev):

    -2.9026  -1.4197   2.6662   3.8809   7.7053  11.5264  14.1043  16.0902
    16.1743

          k = 0.3750-0.3576 0.0515 (   521 PWs)   bands (ev):

    -4.1013  -0.9275   3.9745   5.8256   7.9660  10.9788  13.2335  14.2159
    15.3572

          k = 0.3750-0.3576 0.3564 (   510 PWs)   bands (ev):

    -3.3784  -0.3820   2.5800   4.5090   5.2640  11.4927  15.0645  16.1085
    17.5204

          k = 0.3750-0.3576-0.5584 (   510 PWs)   bands (ev):

    -2.9026  -1.4197   2.6662   3.8809   7.7053  11.5264  14.1043  16.0902
    16.1743

          k = 0.3750-0.3576-0.2535 (   520 PWs)   bands (ev):

    -3.5760  -2.1939   6.0215   6.1782   7.6058  10.9273  11.3316  12.5084
    17.7998

     the Fermi energy is     9.6164 ev

!    total energy              =     -25.49070324 Ry
     estimated scf accuracy    <          6.7E-10 Ry
     smearing contrib. (-TS)   =      -0.00016085 Ry
     internal energy E=F+TS    =     -25.49054239 Ry

     The total energy is F=E-TS. E is the sum of the following terms:
     one-electron contribution =       8.40980277 Ry
     hartree contribution      =       0.94652738 Ry
     xc contribution           =      -6.43972955 Ry
     ewald contribution        =     -28.40714299 Ry

     convergence has been achieved in   4 iterations

     Forces acting on atoms (cartesian axes, Ry/au):

     atom    1 type  1   force =    -0.00074744   -0.00043434   -0.00030744
     atom    2 type  1   force =     0.00074744    0.00043434    0.00030744

     Total force =     0.001298     Total SCF correction =     0.000017

     bfgs converged in   5 scf cycles and   4 bfgs steps
     (criteria: energy <  1.0E-04 Ry, force <  1.0E-03 Ry/Bohr)

     End of BFGS Geometry Optimization

     Final energy   =     -25.4907032447 Ry

     File ./pwscf.bfgs deleted, as requested
Begin final coordinates

ATOMIC_POSITIONS (crystal)
As            0.2673364565        0.2673364418        0.2673366495
As           -0.2673364565       -0.2673364418       -0.2673366495
End final coordinates



     Writing output data file ./pwscf.save/
 
     init_run     :      0.06s CPU      0.06s WALL (       1 calls)
     electrons    :      3.77s CPU      3.93s WALL (       5 calls)
     update_pot   :      0.03s CPU      0.03s WALL (       4 calls)
     forces       :      0.07s CPU      0.07s WALL (       5 calls)

     Called by init_run:
     wfcinit      :      0.05s CPU      0.05s WALL (       1 calls)
     potinit      :      0.00s CPU      0.00s WALL (       1 calls)
     hinit0       :      0.01s CPU      0.01s WALL (       1 calls)

     Called by electrons:
     c_bands      :      3.20s CPU      3.28s WALL (      23 calls)
     sum_band     :      0.55s CPU      0.57s WALL (      23 calls)
     v_of_rho     :      0.01s CPU      0.01s WALL (      26 calls)
     mix_rho      :      0.00s CPU      0.00s WALL (      23 calls)

     Called by c_bands:
     init_us_2    :      0.08s CPU      0.08s WALL (    1664 calls)
     cegterg      :      3.12s CPU      3.19s WALL (     736 calls)

     Called by *egterg:
     cdiaghg      :      0.25s CPU      0.26s WALL (    2338 calls)
     h_psi        :      2.66s CPU      2.73s WALL (    2562 calls)
     g_psi        :      0.01s CPU      0.02s WALL (    1794 calls)

     Called by h_psi:
     h_psi:calbec :      0.04s CPU      0.04s WALL (    2562 calls)
     vloc_psi     :      2.56s CPU      2.63s WALL (    2562 calls)
     add_vuspsi   :      0.03s CPU      0.03s WALL (    2562 calls)

     General routines
     calbec       :      0.05s CPU      0.06s WALL (    3202 calls)
     fft          :      0.01s CPU      0.01s WALL (      89 calls)
     ffts         :      0.00s CPU      0.00s WALL (      23 calls)
     fftw         :      2.67s CPU      2.74s WALL (   43104 calls)
 
     Parallel routines
 
     PWSCF        :      4.02s CPU      4.83s WALL

 
   This run was terminated on:  16: 0:57  20May2020            

=------------------------------------------------------------------------------=
   JOB DONE.
=------------------------------------------------------------------------------=
