
     Program POST-PROC v.4.1CVS starts ...
     Today is 26Feb2009 at 17: 6:59 
 
===== INPUT FILE containing the left lead =====

     GEOMETRY:

     lattice parameter (a_0)   =      12.0000  a.u.
     the volume                =     648.0000 (a.u.)^3
     the cross section         =     144.0000 (a.u.)^2
     l of the unit cell        =       0.3750 (a_0)
     number of atoms/cell      =            1
     number of atomic types    =            1

     crystal axes: (cart. coord. in units of a_0)
               a(1) = (  1.0000  0.0000  0.0000 )  
               a(2) = (  0.0000  1.0000  0.0000 )  
               a(3) = (  0.0000  0.0000  0.3750 )  


   Cartesian axes

     site n.     atom                  positions (a_0 units)
          1           Al  tau(  1)=(  0.0000  0.0000  0.3750  )

     nr1s                      =           30
     nr2s                      =           30
     nr3s                      =           12
     nrx1s                     =           30
     nrx2s                     =           30
     nrx3s                     =           12
     nr1                       =           30
     nr2                       =           30
     nr3                       =           12
     nrx1                      =           30
     nrx2                      =           30
     nrx3                      =           12

 _______________________________
  Radii of nonlocal spheres: 

     type       ibeta     ang. mom.          radius (a_0 units)
          Al      1         0                    0.2260
          Al      2         1                    0.2561
----- General information -----
 
----- Complex band structure calculation -----

     nrx                       =           30
     nry                       =           30
     nz1                       =            3


     energy0               =         7.0E+00
     denergy               =        -2.0E-01
     nenergy               =         71
     ecut2d                =         1.5E+01
     ewind                 =         1.0E+00
     epsproj               =         1.0E-03


     number of k_|| points=    1
                       cart. coord. in units 2pi/a_0
        k(    1) = (   0.0000000   0.0000000), wk =   1.0000000
----- Information about left lead ----- 

     nocros                   =            4
     noins                    =            0
     norb                     =            8
     norbf                    =            8
     nrz                      =           12

      iorb      type   ibeta   ang. mom.   m       position (a_0)
        1        1       1        0        1   taunew(   1)=(  0.0000  0.0000  0.0000)
        2        1       2        1        1   taunew(   2)=(  0.0000  0.0000  0.0000)
        3        1       2        1        2   taunew(   3)=(  0.0000  0.0000  0.0000)
        4        1       2        1        3   taunew(   4)=(  0.0000  0.0000  0.0000)
        5        1       1        0        1   taunew(   5)=(  0.0000  0.0000  0.3750)
        6        1       2        1        1   taunew(   6)=(  0.0000  0.0000  0.3750)
        7        1       2        1        2   taunew(   7)=(  0.0000  0.0000  0.3750)
        8        1       2        1        3   taunew(   8)=(  0.0000  0.0000  0.3750)
    k slab    z(k)  z(k+1)     crossing(iorb=1,norb)
    1   0.0000 0.0312 0.0312   11110000
    2   0.0312 0.0625 0.0312   11110000
    3   0.0625 0.0938 0.0312   11110000
    4   0.0938 0.1250 0.0312   11110111
    5   0.1250 0.1562 0.0312   11111111
    6   0.1562 0.1875 0.0312   11111111
    7   0.1875 0.2188 0.0312   11111111
    8   0.2188 0.2500 0.0312   11111111
    9   0.2500 0.2812 0.0312   01111111
   10   0.2812 0.3125 0.0312   00001111
   11   0.3125 0.3438 0.0312   00001111
   12   0.3438 0.3750 0.0312   00001111

        k(    1) = (   0.0000000   0.0000000), wk =   1.0000000

 ngper, shell number =          177          27
 ngper, n2d =          177          37
 Nchannels of the left tip =            8
 Right moving states:
   k1(2pi/a)   k2(2pi/a)   E-Ef (eV)
   0.0233650   0.0000000   7.0000000
   0.0233650   0.0000000   7.0000000
   0.2298351   0.0000000   7.0000000
  -0.2441587   0.0000000   7.0000000
   0.3495446   0.0000000   7.0000000
   0.4051434   0.0000000   7.0000000
  -0.4503302   0.0000000   7.0000000
  -0.4503302   0.0000000   7.0000000
 Left moving states:
   k1(2pi/a)   k2(2pi/a)   E-Ef (eV)
  -0.0233650   0.0000000   7.0000000
  -0.0233650   0.0000000   7.0000000
  -0.2298351   0.0000000   7.0000000
   0.2441587   0.0000000   7.0000000
  -0.3495446   0.0000000   7.0000000
  -0.4051434   0.0000000   7.0000000
   0.4503302   0.0000000   7.0000000
   0.4503302   0.0000000   7.0000000
 
 Nchannels of the left tip =            6
 Right moving states:
   k1(2pi/a)   k2(2pi/a)   E-Ef (eV)
   0.2125436   0.0000000   6.8000000
  -0.2538214   0.0000000   6.8000000
   0.3384774   0.0000000   6.8000000
   0.3943218   0.0000000   6.8000000
  -0.4580891   0.0000000   6.8000000
  -0.4580891   0.0000000   6.8000000
 Left moving states:
   k1(2pi/a)   k2(2pi/a)   E-Ef (eV)
  -0.2125436   0.0000000   6.8000000
   0.2538214   0.0000000   6.8000000
  -0.3384774   0.0000000   6.8000000
  -0.3943218   0.0000000   6.8000000
   0.4580891   0.0000000   6.8000000
   0.4580891   0.0000000   6.8000000
 
 Nchannels of the left tip =            6
 Right moving states:
   k1(2pi/a)   k2(2pi/a)   E-Ef (eV)
   0.1937305   0.0000000   6.6000000
  -0.2635392   0.0000000   6.6000000
   0.3270446   0.0000000   6.6000000
   0.3828923   0.0000000   6.6000000
  -0.4660944   0.0000000   6.6000000
  -0.4660944   0.0000000   6.6000000
 Left moving states:
   k1(2pi/a)   k2(2pi/a)   E-Ef (eV)
  -0.1937305   0.0000000   6.6000000
   0.2635392   0.0000000   6.6000000
  -0.3270446   0.0000000   6.6000000
  -0.3828923   0.0000000   6.6000000
   0.4660944   0.0000000   6.6000000
   0.4660944   0.0000000   6.6000000
 
 Nchannels of the left tip =            6
 Right moving states:
   k1(2pi/a)   k2(2pi/a)   E-Ef (eV)
   0.1728982   0.0000000   6.4000000
  -0.2737077   0.0000000   6.4000000
   0.3152051   0.0000000   6.4000000
   0.3705538   0.0000000   6.4000000
  -0.4744889   0.0000000   6.4000000
  -0.4744889   0.0000000   6.4000000
 Left moving states:
   k1(2pi/a)   k2(2pi/a)   E-Ef (eV)
  -0.1728982   0.0000000   6.4000000
   0.2737077   0.0000000   6.4000000
  -0.3152051   0.0000000   6.4000000
  -0.3705537   0.0000000   6.4000000
   0.4744889   0.0000000   6.4000000
   0.4744889   0.0000000   6.4000000
 
 Nchannels of the left tip =            6
 Right moving states:
   k1(2pi/a)   k2(2pi/a)   E-Ef (eV)
   0.1492018   0.0000000   6.2000000
  -0.2850715   0.0000000   6.2000000
   0.3029104   0.0000000   6.2000000
   0.3566141   0.0000000   6.2000000
  -0.4837195   0.0000000   6.2000000
  -0.4837195   0.0000000   6.2000000
 Left moving states:
   k1(2pi/a)   k2(2pi/a)   E-Ef (eV)
  -0.1492018   0.0000000   6.2000000
   0.2850715   0.0000000   6.2000000
  -0.3029104   0.0000000   6.2000000
  -0.3566140   0.0000000   6.2000000
   0.4837195   0.0000000   6.2000000
   0.4837195   0.0000000   6.2000000
 
 Nchannels of the left tip =            4
 Right moving states:
   k1(2pi/a)   k2(2pi/a)   E-Ef (eV)
   0.1209676   0.0000000   6.0000000
   0.2901017   0.0000000   6.0000000
  -0.3002886   0.0000000   6.0000000
   0.3384426   0.0000000   6.0000000
 Left moving states:
   k1(2pi/a)   k2(2pi/a)   E-Ef (eV)
  -0.1209676   0.0000000   6.0000000
  -0.2901017   0.0000000   6.0000000
   0.3002886   0.0000000   6.0000000
  -0.3384425   0.0000000   6.0000000
 
 Nchannels of the left tip =            2
 Right moving states:
   k1(2pi/a)   k2(2pi/a)   E-Ef (eV)
   0.0837222   0.0000000   5.8000000
   0.2767068   0.0000000   5.8000000
 Left moving states:
   k1(2pi/a)   k2(2pi/a)   E-Ef (eV)
  -0.0837222   0.0000000   5.8000000
  -0.2767068   0.0000000   5.8000000
 
 Nchannels of the left tip =            1
 Right moving states:
   k1(2pi/a)   k2(2pi/a)   E-Ef (eV)
   0.2626355   0.0000000   5.6000000
 Left moving states:
   k1(2pi/a)   k2(2pi/a)   E-Ef (eV)
  -0.2626355   0.0000000   5.6000000
 
 Nchannels of the left tip =            1
 Right moving states:
   k1(2pi/a)   k2(2pi/a)   E-Ef (eV)
   0.2477719   0.0000000   5.4000000
 Left moving states:
   k1(2pi/a)   k2(2pi/a)   E-Ef (eV)
  -0.2477719   0.0000000   5.4000000
 
 Nchannels of the left tip =            3
 Right moving states:
   k1(2pi/a)   k2(2pi/a)   E-Ef (eV)
   0.2319631   0.0000000   5.2000000
   0.4848368   0.0000000   5.2000000
   0.4848368   0.0000000   5.2000000
 Left moving states:
   k1(2pi/a)   k2(2pi/a)   E-Ef (eV)
  -0.2319631   0.0000000   5.2000000
  -0.4848368   0.0000000   5.2000000
  -0.4848368   0.0000000   5.2000000
 
 Nchannels of the left tip =            3
 Right moving states:
   k1(2pi/a)   k2(2pi/a)   E-Ef (eV)
   0.2150003   0.0000000   5.0000000
   0.4745390   0.0000000   5.0000000
   0.4745390   0.0000000   5.0000000
 Left moving states:
   k1(2pi/a)   k2(2pi/a)   E-Ef (eV)
  -0.2150003   0.0000000   5.0000000
  -0.4745390   0.0000000   5.0000000
  -0.4745390   0.0000000   5.0000000
 
 Nchannels of the left tip =            3
 Right moving states:
   k1(2pi/a)   k2(2pi/a)   E-Ef (eV)
   0.1965845   0.0000000   4.8000000
   0.4649745   0.0000000   4.8000000
   0.4649745   0.0000000   4.8000000
 Left moving states:
   k1(2pi/a)   k2(2pi/a)   E-Ef (eV)
  -0.1965845   0.0000000   4.8000000
  -0.4649745   0.0000000   4.8000000
  -0.4649745   0.0000000   4.8000000
 
 Nchannels of the left tip =            3
 Right moving states:
   k1(2pi/a)   k2(2pi/a)   E-Ef (eV)
   0.1762603   0.0000000   4.6000000
   0.4555604   0.0000000   4.6000000
   0.4555604   0.0000000   4.6000000
 Left moving states:
   k1(2pi/a)   k2(2pi/a)   E-Ef (eV)
  -0.1762603   0.0000000   4.6000000
  -0.4555604   0.0000000   4.6000000
  -0.4555604   0.0000000   4.6000000
 
 Nchannels of the left tip =            3
 Right moving states:
   k1(2pi/a)   k2(2pi/a)   E-Ef (eV)
   0.1532699   0.0000000   4.4000000
   0.4461216   0.0000000   4.4000000
   0.4461216   0.0000000   4.4000000
 Left moving states:
   k1(2pi/a)   k2(2pi/a)   E-Ef (eV)
  -0.1532699   0.0000000   4.4000000
  -0.4461216   0.0000000   4.4000000
  -0.4461216   0.0000000   4.4000000
 
 Nchannels of the left tip =            3
 Right moving states:
   k1(2pi/a)   k2(2pi/a)   E-Ef (eV)
   0.1261636   0.0000000   4.2000000
   0.4365790   0.0000000   4.2000000
   0.4365790   0.0000000   4.2000000
 Left moving states:
   k1(2pi/a)   k2(2pi/a)   E-Ef (eV)
  -0.1261636   0.0000000   4.2000000
  -0.4365790   0.0000000   4.2000000
  -0.4365790   0.0000000   4.2000000
 
 Nchannels of the left tip =            5
 Right moving states:
   k1(2pi/a)   k2(2pi/a)   E-Ef (eV)
   0.0913472   0.0000000   4.0000000
   0.2636777   0.0000000   4.0000000
  -0.3217175   0.0000000   4.0000000
   0.4268865   0.0000000   4.0000000
   0.4268865   0.0000000   4.0000000
 Left moving states:
   k1(2pi/a)   k2(2pi/a)   E-Ef (eV)
  -0.0913472   0.0000000   4.0000000
  -0.2636777   0.0000000   4.0000000
   0.3217175   0.0000000   4.0000000
  -0.4268865   0.0000000   4.0000000
  -0.4268865   0.0000000   4.0000000
 
 Nchannels of the left tip =            5
 Right moving states:
   k1(2pi/a)   k2(2pi/a)   E-Ef (eV)
   0.0277986   0.0000000   3.8000000
   0.2413140   0.0000000   3.8000000
  -0.3351621   0.0000000   3.8000000
   0.4170115   0.0000000   3.8000000
   0.4170115   0.0000000   3.8000000
 Left moving states:
   k1(2pi/a)   k2(2pi/a)   E-Ef (eV)
  -0.0277986   0.0000000   3.8000000
  -0.2413140   0.0000000   3.8000000
   0.3351621   0.0000000   3.8000000
  -0.4170115   0.0000000   3.8000000
  -0.4170115   0.0000000   3.8000000
 
 Nchannels of the left tip =            4
 Right moving states:
   k1(2pi/a)   k2(2pi/a)   E-Ef (eV)
   0.2204563   0.0000000   3.6000000
  -0.3459202   0.0000000   3.6000000
   0.4069271   0.0000000   3.6000000
   0.4069271   0.0000000   3.6000000
 Left moving states:
   k1(2pi/a)   k2(2pi/a)   E-Ef (eV)
  -0.2204563   0.0000000   3.6000000
   0.3459202   0.0000000   3.6000000
  -0.4069271   0.0000000   3.6000000
  -0.4069271   0.0000000   3.6000000
 
 Nchannels of the left tip =            4
 Right moving states:
   k1(2pi/a)   k2(2pi/a)   E-Ef (eV)
   0.1991499   0.0000000   3.4000000
  -0.3556179   0.0000000   3.4000000
   0.3966083   0.0000000   3.4000000
   0.3966083   0.0000000   3.4000000
 Left moving states:
   k1(2pi/a)   k2(2pi/a)   E-Ef (eV)
  -0.1991499   0.0000000   3.4000000
   0.3556180   0.0000000   3.4000000
  -0.3966083   0.0000000   3.4000000
  -0.3966083   0.0000000   3.4000000
 
 Nchannels of the left tip =            4
 Right moving states:
   k1(2pi/a)   k2(2pi/a)   E-Ef (eV)
   0.1763510   0.0000000   3.2000000
  -0.3647830   0.0000000   3.2000000
   0.3860301   0.0000000   3.2000000
   0.3860301   0.0000000   3.2000000
 Left moving states:
   k1(2pi/a)   k2(2pi/a)   E-Ef (eV)
  -0.1763510   0.0000000   3.2000000
   0.3647830   0.0000000   3.2000000
  -0.3860301   0.0000000   3.2000000
  -0.3860301   0.0000000   3.2000000
 
 Nchannels of the left tip =            4
 Right moving states:
   k1(2pi/a)   k2(2pi/a)   E-Ef (eV)
   0.1509204   0.0000000   3.0000000
  -0.3736611   0.0000000   3.0000000
   0.3751663   0.0000000   3.0000000
   0.3751663   0.0000000   3.0000000
 Left moving states:
   k1(2pi/a)   k2(2pi/a)   E-Ef (eV)
  -0.1509204   0.0000000   3.0000000
   0.3736611   0.0000000   3.0000000
  -0.3751663   0.0000000   3.0000000
  -0.3751663   0.0000000   3.0000000
 
 Nchannels of the left tip =            4
 Right moving states:
   k1(2pi/a)   k2(2pi/a)   E-Ef (eV)
   0.1209007   0.0000000   2.8000000
   0.3639880   0.0000000   2.8000000
   0.3639880   0.0000000   2.8000000
  -0.3823919   0.0000000   2.8000000
 Left moving states:
   k1(2pi/a)   k2(2pi/a)   E-Ef (eV)
  -0.1209007   0.0000000   2.8000000
  -0.3639880   0.0000000   2.8000000
  -0.3639880   0.0000000   2.8000000
   0.3823919   0.0000000   2.8000000
 
 Nchannels of the left tip =            4
 Right moving states:
   k1(2pi/a)   k2(2pi/a)   E-Ef (eV)
   0.0810855   0.0000000   2.6000000
   0.3524628   0.0000000   2.6000000
   0.3524628   0.0000000   2.6000000
  -0.3910682   0.0000000   2.6000000
 Left moving states:
   k1(2pi/a)   k2(2pi/a)   E-Ef (eV)
  -0.0810855   0.0000000   2.6000000
  -0.3524628   0.0000000   2.6000000
  -0.3524628   0.0000000   2.6000000
   0.3910682   0.0000000   2.6000000
 
 Nchannels of the left tip =            3
 Right moving states:
   k1(2pi/a)   k2(2pi/a)   E-Ef (eV)
   0.3405536   0.0000000   2.4000000
   0.3405536   0.0000000   2.4000000
  -0.3997616   0.0000000   2.4000000
 Left moving states:
   k1(2pi/a)   k2(2pi/a)   E-Ef (eV)
  -0.3405536   0.0000000   2.4000000
  -0.3405536   0.0000000   2.4000000
   0.3997616   0.0000000   2.4000000
 
 Nchannels of the left tip =            3
 Right moving states:
   k1(2pi/a)   k2(2pi/a)   E-Ef (eV)
   0.3282171   0.0000000   2.2000000
   0.3282171   0.0000000   2.2000000
  -0.4085364   0.0000000   2.2000000
 Left moving states:
   k1(2pi/a)   k2(2pi/a)   E-Ef (eV)
  -0.3282171   0.0000000   2.2000000
  -0.3282171   0.0000000   2.2000000
   0.4085364   0.0000000   2.2000000
 
 Nchannels of the left tip =            3
 Right moving states:
   k1(2pi/a)   k2(2pi/a)   E-Ef (eV)
   0.3154020   0.0000000   2.0000000
   0.3154020   0.0000000   2.0000000
  -0.4174610   0.0000000   2.0000000
 Left moving states:
   k1(2pi/a)   k2(2pi/a)   E-Ef (eV)
  -0.3154020   0.0000000   2.0000000
  -0.3154020   0.0000000   2.0000000
   0.4174610   0.0000000   2.0000000
 
 Nchannels of the left tip =            3
 Right moving states:
   k1(2pi/a)   k2(2pi/a)   E-Ef (eV)
   0.3020462   0.0000000   1.8000000
   0.3020462   0.0000000   1.8000000
  -0.4266196   0.0000000   1.8000000
 Left moving states:
   k1(2pi/a)   k2(2pi/a)   E-Ef (eV)
  -0.3020462   0.0000000   1.8000000
  -0.3020462   0.0000000   1.8000000
   0.4266196   0.0000000   1.8000000
 
 Nchannels of the left tip =            3
 Right moving states:
   k1(2pi/a)   k2(2pi/a)   E-Ef (eV)
   0.2880738   0.0000000   1.6000000
   0.2880738   0.0000000   1.6000000
  -0.4361329   0.0000000   1.6000000
 Left moving states:
   k1(2pi/a)   k2(2pi/a)   E-Ef (eV)
  -0.2880738   0.0000000   1.6000000
  -0.2880738   0.0000000   1.6000000
   0.4361329   0.0000000   1.6000000
 
 Nchannels of the left tip =            3
 Right moving states:
   k1(2pi/a)   k2(2pi/a)   E-Ef (eV)
   0.2733896   0.0000000   1.4000000
   0.2733896   0.0000000   1.4000000
  -0.4461997   0.0000000   1.4000000
 Left moving states:
   k1(2pi/a)   k2(2pi/a)   E-Ef (eV)
  -0.2733896   0.0000000   1.4000000
  -0.2733896   0.0000000   1.4000000
   0.4461997   0.0000000   1.4000000
 
 Nchannels of the left tip =            3
 Right moving states:
   k1(2pi/a)   k2(2pi/a)   E-Ef (eV)
   0.2578713   0.0000000   1.2000000
   0.2578713   0.0000000   1.2000000
  -0.4572113   0.0000000   1.2000000
 Left moving states:
   k1(2pi/a)   k2(2pi/a)   E-Ef (eV)
  -0.2578713   0.0000000   1.2000000
  -0.2578713   0.0000000   1.2000000
   0.4572113   0.0000000   1.2000000
 
 Nchannels of the left tip =            3
 Right moving states:
   k1(2pi/a)   k2(2pi/a)   E-Ef (eV)
   0.2413576   0.0000000   1.0000000
   0.2413576   0.0000000   1.0000000
  -0.4701863   0.0000000   1.0000000
 Left moving states:
   k1(2pi/a)   k2(2pi/a)   E-Ef (eV)
  -0.2413576   0.0000000   1.0000000
  -0.2413576   0.0000000   1.0000000
   0.4701863   0.0000000   1.0000000
 
 Nchannels of the left tip =            3
 Right moving states:
   k1(2pi/a)   k2(2pi/a)   E-Ef (eV)
   0.2236276   0.0000000   0.8000000
   0.2236276   0.0000000   0.8000000
  -0.4916481   0.0000000   0.8000000
 Left moving states:
   k1(2pi/a)   k2(2pi/a)   E-Ef (eV)
  -0.2236276   0.0000000   0.8000000
  -0.2236276   0.0000000   0.8000000
   0.4916481   0.0000000   0.8000000
 
 Nchannels of the left tip =            2
 Right moving states:
   k1(2pi/a)   k2(2pi/a)   E-Ef (eV)
   0.2043646   0.0000000   0.6000000
   0.2043646   0.0000000   0.6000000
 Left moving states:
   k1(2pi/a)   k2(2pi/a)   E-Ef (eV)
  -0.2043646   0.0000000   0.6000000
  -0.2043646   0.0000000   0.6000000
 
 Nchannels of the left tip =            2
 Right moving states:
   k1(2pi/a)   k2(2pi/a)   E-Ef (eV)
   0.1830849   0.0000000   0.4000000
   0.1830849   0.0000000   0.4000000
 Left moving states:
   k1(2pi/a)   k2(2pi/a)   E-Ef (eV)
  -0.1830849   0.0000000   0.4000000
  -0.1830849   0.0000000   0.4000000
 
 Nchannels of the left tip =            2
 Right moving states:
   k1(2pi/a)   k2(2pi/a)   E-Ef (eV)
   0.1589805   0.0000000   0.2000000
   0.1589805   0.0000000   0.2000000
 Left moving states:
   k1(2pi/a)   k2(2pi/a)   E-Ef (eV)
  -0.1589805   0.0000000   0.2000000
  -0.1589805   0.0000000   0.2000000
 
 Nchannels of the left tip =            2
 Right moving states:
   k1(2pi/a)   k2(2pi/a)   E-Ef (eV)
   0.1304949   0.0000000   0.0000000
   0.1304949   0.0000000   0.0000000
 Left moving states:
   k1(2pi/a)   k2(2pi/a)   E-Ef (eV)
  -0.1304949   0.0000000   0.0000000
  -0.1304949   0.0000000   0.0000000
 
 Nchannels of the left tip =            2
 Right moving states:
   k1(2pi/a)   k2(2pi/a)   E-Ef (eV)
   0.0937144   0.0000000  -0.2000000
   0.0937144   0.0000000  -0.2000000
 Left moving states:
   k1(2pi/a)   k2(2pi/a)   E-Ef (eV)
  -0.0937144   0.0000000  -0.2000000
  -0.0937144   0.0000000  -0.2000000
 
 Nchannels of the left tip =            2
 Right moving states:
   k1(2pi/a)   k2(2pi/a)   E-Ef (eV)
   0.0231325   0.0000000  -0.4000000
   0.0231325   0.0000000  -0.4000000
 Left moving states:
   k1(2pi/a)   k2(2pi/a)   E-Ef (eV)
  -0.0231325   0.0000000  -0.4000000
  -0.0231325   0.0000000  -0.4000000
 
 Nchannels of the left tip =            0
 Right moving states:
   k1(2pi/a)   k2(2pi/a)   E-Ef (eV)
 Left moving states:
   k1(2pi/a)   k2(2pi/a)   E-Ef (eV)
 
 Nchannels of the left tip =            0
 Right moving states:
   k1(2pi/a)   k2(2pi/a)   E-Ef (eV)
 Left moving states:
   k1(2pi/a)   k2(2pi/a)   E-Ef (eV)
 
 Nchannels of the left tip =            0
 Right moving states:
   k1(2pi/a)   k2(2pi/a)   E-Ef (eV)
 Left moving states:
   k1(2pi/a)   k2(2pi/a)   E-Ef (eV)
 
 Nchannels of the left tip =            0
 Right moving states:
   k1(2pi/a)   k2(2pi/a)   E-Ef (eV)
 Left moving states:
   k1(2pi/a)   k2(2pi/a)   E-Ef (eV)
 
 Nchannels of the left tip =            1
 Right moving states:
   k1(2pi/a)   k2(2pi/a)   E-Ef (eV)
   0.4901283   0.0000000  -1.4000000
 Left moving states:
   k1(2pi/a)   k2(2pi/a)   E-Ef (eV)
  -0.4901283   0.0000000  -1.4000000
 
 Nchannels of the left tip =            1
 Right moving states:
   k1(2pi/a)   k2(2pi/a)   E-Ef (eV)
   0.4675094   0.0000000  -1.6000000
 Left moving states:
   k1(2pi/a)   k2(2pi/a)   E-Ef (eV)
  -0.4675094   0.0000000  -1.6000000
 
 Nchannels of the left tip =            1
 Right moving states:
   k1(2pi/a)   k2(2pi/a)   E-Ef (eV)
   0.4530385   0.0000000  -1.8000000
 Left moving states:
   k1(2pi/a)   k2(2pi/a)   E-Ef (eV)
  -0.4530385   0.0000000  -1.8000000
 
 Nchannels of the left tip =            1
 Right moving states:
   k1(2pi/a)   k2(2pi/a)   E-Ef (eV)
   0.4403579   0.0000000  -2.0000000
 Left moving states:
   k1(2pi/a)   k2(2pi/a)   E-Ef (eV)
  -0.4403579   0.0000000  -2.0000000
 
 Nchannels of the left tip =            1
 Right moving states:
   k1(2pi/a)   k2(2pi/a)   E-Ef (eV)
   0.4284266   0.0000000  -2.2000000
 Left moving states:
   k1(2pi/a)   k2(2pi/a)   E-Ef (eV)
  -0.4284266   0.0000000  -2.2000000
 
 Nchannels of the left tip =            1
 Right moving states:
   k1(2pi/a)   k2(2pi/a)   E-Ef (eV)
   0.4168421   0.0000000  -2.4000000
 Left moving states:
   k1(2pi/a)   k2(2pi/a)   E-Ef (eV)
  -0.4168421   0.0000000  -2.4000000
 
 Nchannels of the left tip =            1
 Right moving states:
   k1(2pi/a)   k2(2pi/a)   E-Ef (eV)
   0.4053987   0.0000000  -2.6000000
 Left moving states:
   k1(2pi/a)   k2(2pi/a)   E-Ef (eV)
  -0.4053987   0.0000000  -2.6000000
 
 Nchannels of the left tip =            1
 Right moving states:
   k1(2pi/a)   k2(2pi/a)   E-Ef (eV)
   0.3939718   0.0000000  -2.8000000
 Left moving states:
   k1(2pi/a)   k2(2pi/a)   E-Ef (eV)
  -0.3939718   0.0000000  -2.8000000
 
 Nchannels of the left tip =            1
 Right moving states:
   k1(2pi/a)   k2(2pi/a)   E-Ef (eV)
   0.3824758   0.0000000  -3.0000000
 Left moving states:
   k1(2pi/a)   k2(2pi/a)   E-Ef (eV)
  -0.3824757   0.0000000  -3.0000000
 
 Nchannels of the left tip =            1
 Right moving states:
   k1(2pi/a)   k2(2pi/a)   E-Ef (eV)
   0.3708448   0.0000000  -3.2000000
 Left moving states:
   k1(2pi/a)   k2(2pi/a)   E-Ef (eV)
  -0.3708448   0.0000000  -3.2000000
 
 Nchannels of the left tip =            1
 Right moving states:
   k1(2pi/a)   k2(2pi/a)   E-Ef (eV)
   0.3590236   0.0000000  -3.4000000
 Left moving states:
   k1(2pi/a)   k2(2pi/a)   E-Ef (eV)
  -0.3590235   0.0000000  -3.4000000
 
 Nchannels of the left tip =            1
 Right moving states:
   k1(2pi/a)   k2(2pi/a)   E-Ef (eV)
   0.3469612   0.0000000  -3.6000000
 Left moving states:
   k1(2pi/a)   k2(2pi/a)   E-Ef (eV)
  -0.3469611   0.0000000  -3.6000000
 
 Nchannels of the left tip =            1
 Right moving states:
   k1(2pi/a)   k2(2pi/a)   E-Ef (eV)
   0.3346074   0.0000000  -3.8000000
 Left moving states:
   k1(2pi/a)   k2(2pi/a)   E-Ef (eV)
  -0.3346073   0.0000000  -3.8000000
 
 Nchannels of the left tip =            1
 Right moving states:
   k1(2pi/a)   k2(2pi/a)   E-Ef (eV)
   0.3219097   0.0000000  -4.0000000
 Left moving states:
   k1(2pi/a)   k2(2pi/a)   E-Ef (eV)
  -0.3219097   0.0000000  -4.0000000
 
 Nchannels of the left tip =            1
 Right moving states:
   k1(2pi/a)   k2(2pi/a)   E-Ef (eV)
   0.3088104   0.0000000  -4.2000000
 Left moving states:
   k1(2pi/a)   k2(2pi/a)   E-Ef (eV)
  -0.3088103   0.0000000  -4.2000000
 
 Nchannels of the left tip =            1
 Right moving states:
   k1(2pi/a)   k2(2pi/a)   E-Ef (eV)
   0.2952433   0.0000000  -4.4000000
 Left moving states:
   k1(2pi/a)   k2(2pi/a)   E-Ef (eV)
  -0.2952433   0.0000000  -4.4000000
 
 Nchannels of the left tip =            1
 Right moving states:
   k1(2pi/a)   k2(2pi/a)   E-Ef (eV)
   0.2811302   0.0000000  -4.6000000
 Left moving states:
   k1(2pi/a)   k2(2pi/a)   E-Ef (eV)
  -0.2811301   0.0000000  -4.6000000
 
 Nchannels of the left tip =            1
 Right moving states:
   k1(2pi/a)   k2(2pi/a)   E-Ef (eV)
   0.2663751   0.0000000  -4.8000000
 Left moving states:
   k1(2pi/a)   k2(2pi/a)   E-Ef (eV)
  -0.2663751   0.0000000  -4.8000000
 
 Nchannels of the left tip =            1
 Right moving states:
   k1(2pi/a)   k2(2pi/a)   E-Ef (eV)
   0.2508570   0.0000000  -5.0000000
 Left moving states:
   k1(2pi/a)   k2(2pi/a)   E-Ef (eV)
  -0.2508570   0.0000000  -5.0000000
 
 Nchannels of the left tip =            1
 Right moving states:
   k1(2pi/a)   k2(2pi/a)   E-Ef (eV)
   0.2344174   0.0000000  -5.2000000
 Left moving states:
   k1(2pi/a)   k2(2pi/a)   E-Ef (eV)
  -0.2344174   0.0000000  -5.2000000
 
 Nchannels of the left tip =            1
 Right moving states:
   k1(2pi/a)   k2(2pi/a)   E-Ef (eV)
   0.2168405   0.0000000  -5.4000000
 Left moving states:
   k1(2pi/a)   k2(2pi/a)   E-Ef (eV)
  -0.2168404   0.0000000  -5.4000000
 
 Nchannels of the left tip =            1
 Right moving states:
   k1(2pi/a)   k2(2pi/a)   E-Ef (eV)
   0.1978175   0.0000000  -5.6000000
 Left moving states:
   k1(2pi/a)   k2(2pi/a)   E-Ef (eV)
  -0.1978174   0.0000000  -5.6000000
 
 Nchannels of the left tip =            1
 Right moving states:
   k1(2pi/a)   k2(2pi/a)   E-Ef (eV)
   0.1768769   0.0000000  -5.8000000
 Left moving states:
   k1(2pi/a)   k2(2pi/a)   E-Ef (eV)
  -0.1768769   0.0000000  -5.8000000
 
 Nchannels of the left tip =            1
 Right moving states:
   k1(2pi/a)   k2(2pi/a)   E-Ef (eV)
   0.1532294   0.0000000  -6.0000000
 Left moving states:
   k1(2pi/a)   k2(2pi/a)   E-Ef (eV)
  -0.1532294   0.0000000  -6.0000000
 
 Nchannels of the left tip =            1
 Right moving states:
   k1(2pi/a)   k2(2pi/a)   E-Ef (eV)
   0.1253464   0.0000000  -6.2000000
 Left moving states:
   k1(2pi/a)   k2(2pi/a)   E-Ef (eV)
  -0.1253463   0.0000000  -6.2000000
 
 Nchannels of the left tip =            1
 Right moving states:
   k1(2pi/a)   k2(2pi/a)   E-Ef (eV)
   0.0893401   0.0000000  -6.4000000
 Left moving states:
   k1(2pi/a)   k2(2pi/a)   E-Ef (eV)
  -0.0893400   0.0000000  -6.4000000
 
 Nchannels of the left tip =            1
 Right moving states:
   k1(2pi/a)   k2(2pi/a)   E-Ef (eV)
   0.0169702   0.0000000  -6.6000000
 Left moving states:
   k1(2pi/a)   k2(2pi/a)   E-Ef (eV)
  -0.0169702   0.0000000  -6.6000000
 
 Nchannels of the left tip =            0
 Right moving states:
   k1(2pi/a)   k2(2pi/a)   E-Ef (eV)
 Left moving states:
   k1(2pi/a)   k2(2pi/a)   E-Ef (eV)
 
 Nchannels of the left tip =            0
 Right moving states:
   k1(2pi/a)   k2(2pi/a)   E-Ef (eV)
 Left moving states:
   k1(2pi/a)   k2(2pi/a)   E-Ef (eV)
 
 
     PWCOND       :    17.03s CPU time,   17.23s wall time

     init         :     0.36s CPU
     poten        :     0.00s CPU
     local        :     0.74s CPU
 
     scatter_forw :    11.27s CPU (      71 calls,   0.159 s avg)
 
     compbs       :     4.62s CPU (      71 calls,   0.065 s avg)
     compbs_2     :     4.04s CPU (      71 calls,   0.057 s avg)
 
