 ANIMSTEPS   8
 CRYSTAL 
 PRIMVEC 
  6.3501265296  0.0000000000  0.0000000000
  0.0000000000  2.6458860540  0.0000000000
  0.0000000000  0.0000000000  2.6458860540
 PRIMCOORD   1
    3  1
 H   -2.4165936162    0.0000000000    0.0000000000   -0.0003710346    0.0000000000    0.0000000000
 H    0.0000000000    0.0000000000    0.0000000000    0.0000000000    0.0000000000    0.0000000000
 H    0.8243346691    0.0000000000    0.0000000000    0.0001122209    0.0000000000    0.0000000000
 PRIMCOORD   2
    3  1
 H   -2.0131419220    0.0000000000    0.0000000000   -0.0031549264    0.0000000000    0.0000000000
 H    0.0000000000    0.0000000000    0.0000000000    0.0000000000    0.0000000000    0.0000000000
 H    0.8297336578    0.0000000000    0.0000000000   -0.0001285438    0.0000000000    0.0000000000
 PRIMCOORD   3
    3  1
 H   -1.6372908347    0.0000000000    0.0000000000   -0.0079098851    0.0000000000    0.0000000000
 H    0.0000000000    0.0000000000    0.0000000000    0.0000000000    0.0000000000    0.0000000000
 H    0.8472604357    0.0000000000    0.0000000000   -0.0013067726    0.0000000000    0.0000000000
 PRIMCOORD   4
    3  1
 H   -1.3238978290    0.0000000000    0.0000000000   -0.0083585651    0.0000000000    0.0000000000
 H    0.0000000000    0.0000000000    0.0000000000    0.0000000000    0.0000000000    0.0000000000
 H    0.9000904424    0.0000000000    0.0000000000   -0.0048239804    0.0000000000    0.0000000000
 PRIMCOORD   5
    3  1
 H   -1.0748934187    0.0000000000    0.0000000000   -0.0007580798    0.0000000000    0.0000000000
 H    0.0000000000    0.0000000000    0.0000000000    0.0000000000    0.0000000000    0.0000000000
 H    1.0305003439    0.0000000000    0.0000000000   -0.0015428971    0.0000000000    0.0000000000
 PRIMCOORD   6
    3  1
 H   -0.8858899594    0.0000000000    0.0000000000    0.0043774428    0.0000000000    0.0000000000
 H    0.0000000000    0.0000000000    0.0000000000    0.0000000000    0.0000000000    0.0000000000
 H    1.3785091364    0.0000000000    0.0000000000    0.0087985609    0.0000000000    0.0000000000
 PRIMCOORD   7
    3  1
 H   -0.8347868920    0.0000000000    0.0000000000    0.0004648185    0.0000000000    0.0000000000
 H    0.0000000000    0.0000000000    0.0000000000    0.0000000000    0.0000000000    0.0000000000
 H    1.8502270743    0.0000000000    0.0000000000    0.0051125786    0.0000000000    0.0000000000
 PRIMCOORD   8
    3  1
 H   -0.8243346691    0.0000000000    0.0000000000   -0.0001122105    0.0000000000    0.0000000000
 H    0.0000000000    0.0000000000    0.0000000000    0.0000000000    0.0000000000    0.0000000000
 H    2.4165936162    0.0000000000    0.0000000000    0.0003710296    0.0000000000    0.0000000000
