 ANIMSTEPS   8
 CRYSTAL 
 PRIMVEC 
  6.3501240000  0.0000000000  0.0000000000
  0.0000000000  2.6458850000  0.0000000000
  0.0000000000  0.0000000000  2.6458850000
 PRIMCOORD   1
    3  1
 H   -2.4165926535    0.0000000000    0.0000000000   -0.0006807877    0.0000000000    0.0000000000
 H    0.0000000000    0.0000000000    0.0000000000    0.0000000000    0.0000000000    0.0000000000
 H    0.8243343408    0.0000000000    0.0000000000    0.0002405730    0.0000000000    0.0000000000
 PRIMCOORD   2
    3  1
 H   -1.9799051911    0.0000000000    0.0000000000   -0.0003900882    0.0000000000    0.0000000000
 H    0.0000000000    0.0000000000    0.0000000000    0.0000000000    0.0000000000    0.0000000000
 H    0.8307419818    0.0000000000    0.0000000000   -0.0001379126    0.0000000000    0.0000000000
 PRIMCOORD   3
    3  1
 H   -1.6045438915    0.0000000000    0.0000000000   -0.0007352042    0.0000000000    0.0000000000
 H    0.0000000000    0.0000000000    0.0000000000    0.0000000000    0.0000000000    0.0000000000
 H    0.8505079879    0.0000000000    0.0000000000   -0.0003453625    0.0000000000    0.0000000000
 PRIMCOORD   4
    3  1
 H   -1.2934650235    0.0000000000    0.0000000000   -0.0003064939    0.0000000000    0.0000000000
 H    0.0000000000    0.0000000000    0.0000000000    0.0000000000    0.0000000000    0.0000000000
 H    0.9103002578    0.0000000000    0.0000000000   -0.0005868632    0.0000000000    0.0000000000
 PRIMCOORD   5
    3  1
 H   -1.0223337538    0.0000000000    0.0000000000   -0.0014135898    0.0000000000    0.0000000000
 H    0.0000000000    0.0000000000    0.0000000000    0.0000000000    0.0000000000    0.0000000000
 H    1.0822625123    0.0000000000    0.0000000000   -0.0015636299    0.0000000000    0.0000000000
 PRIMCOORD   6
    3  1
 H   -0.8707526538    0.0000000000    0.0000000000    0.0011268188    0.0000000000    0.0000000000
 H    0.0000000000    0.0000000000    0.0000000000    0.0000000000    0.0000000000    0.0000000000
 H    1.4621861901    0.0000000000    0.0000000000    0.0006968261    0.0000000000    0.0000000000
 PRIMCOORD   7
    3  1
 H   -0.8334590257    0.0000000000    0.0000000000    0.0001852138    0.0000000000    0.0000000000
 H    0.0000000000    0.0000000000    0.0000000000    0.0000000000    0.0000000000    0.0000000000
 H    1.9010318722    0.0000000000    0.0000000000   -0.0018013142    0.0000000000    0.0000000000
 PRIMCOORD   8
    3  1
 H   -0.8243343408    0.0000000000    0.0000000000   -0.0002402437    0.0000000000    0.0000000000
 H    0.0000000000    0.0000000000    0.0000000000    0.0000000000    0.0000000000    0.0000000000
 H    2.4165926535    0.0000000000    0.0000000000    0.0006801911    0.0000000000    0.0000000000
