 ANIMSTEPS   8
 CRYSTAL 
 PRIMVEC 
  6.3501240000  0.0000000000  0.0000000000
  0.0000000000  2.6458850000  0.0000000000
  0.0000000000  0.0000000000  2.6458850000
 PRIMCOORD   1
    3  1
 H   -2.4165926535    0.0000000000    0.0000000000   -0.0006803675    0.0000000000    0.0000000000
 H    0.0000000000    0.0000000000    0.0000000000    0.0000000000    0.0000000000    0.0000000000
 H    0.8243343408    0.0000000000    0.0000000000    0.0002646127    0.0000000000    0.0000000000
 PRIMCOORD   2
    3  1
 H   -1.9867779912    0.0000000000    0.0000000000   -0.0033776458    0.0000000000    0.0000000000
 H    0.0000000000    0.0000000000    0.0000000000    0.0000000000    0.0000000000    0.0000000000
 H    0.8304527306    0.0000000000    0.0000000000   -0.0001997516    0.0000000000    0.0000000000
 PRIMCOORD   3
    3  1
 H   -1.5946356590    0.0000000000    0.0000000000   -0.0083364245    0.0000000000    0.0000000000
 H    0.0000000000    0.0000000000    0.0000000000    0.0000000000    0.0000000000    0.0000000000
 H    0.8509835253    0.0000000000    0.0000000000   -0.0015267946    0.0000000000    0.0000000000
 PRIMCOORD   4
    3  1
 H   -1.2736918812    0.0000000000    0.0000000000   -0.0077822734    0.0000000000    0.0000000000
 H    0.0000000000    0.0000000000    0.0000000000    0.0000000000    0.0000000000    0.0000000000
 H    0.9151163207    0.0000000000    0.0000000000   -0.0045006487    0.0000000000    0.0000000000
 PRIMCOORD   5
    3  1
 H   -1.0308131189    0.0000000000    0.0000000000    0.0009473176    0.0000000000    0.0000000000
 H    0.0000000000    0.0000000000    0.0000000000    0.0000000000    0.0000000000    0.0000000000
 H    1.0717427347    0.0000000000    0.0000000000    0.0011155104    0.0000000000    0.0000000000
 PRIMCOORD   6
    3  1
 H   -0.8765910634    0.0000000000    0.0000000000    0.0043023901    0.0000000000    0.0000000000
 H    0.0000000000    0.0000000000    0.0000000000    0.0000000000    0.0000000000    0.0000000000
 H    1.4259561287    0.0000000000    0.0000000000    0.0089058186    0.0000000000    0.0000000000
 PRIMCOORD   7
    3  1
 H   -0.8338427473    0.0000000000    0.0000000000    0.0005752815    0.0000000000    0.0000000000
 H    0.0000000000    0.0000000000    0.0000000000    0.0000000000    0.0000000000    0.0000000000
 H    1.8832253747    0.0000000000    0.0000000000    0.0046676537    0.0000000000    0.0000000000
 PRIMCOORD   8
    3  1
 H   -0.8243343408    0.0000000000    0.0000000000   -0.0002646127    0.0000000000    0.0000000000
 H    0.0000000000    0.0000000000    0.0000000000    0.0000000000    0.0000000000    0.0000000000
 H    2.4165926535    0.0000000000    0.0000000000    0.0006803675    0.0000000000    0.0000000000
