 ANIMSTEPS   8
 CRYSTAL 
 PRIMVEC 
  6.3501240000  0.0000000000  0.0000000000
  0.0000000000  2.6458850000  0.0000000000
  0.0000000000  0.0000000000  2.6458850000
 PRIMCOORD   1
    3  1
 H   -2.4165926535    0.0000000000    0.0000000000   -0.0006804514    0.0000000000    0.0000000000
 H    0.0000000000    0.0000000000    0.0000000000    0.0000000000    0.0000000000    0.0000000000
 H    0.8243343408    0.0000000000    0.0000000000    0.0002646548    0.0000000000    0.0000000000
 PRIMCOORD   2
    3  1
 H   -1.9654884618    0.0000000000    0.0000000000   -0.0035811502    0.0000000000    0.0000000000
 H    0.0000000000    0.0000000000    0.0000000000    0.0000000000    0.0000000000    0.0000000000
 H    0.8309783601    0.0000000000    0.0000000000   -0.0001955899    0.0000000000    0.0000000000
 PRIMCOORD   3
    3  1
 H   -1.5663109250    0.0000000000    0.0000000000   -0.0085476175    0.0000000000    0.0000000000
 H    0.0000000000    0.0000000000    0.0000000000    0.0000000000    0.0000000000    0.0000000000
 H    0.8539515830    0.0000000000    0.0000000000   -0.0017665652    0.0000000000    0.0000000000
 PRIMCOORD   4
    3  1
 H   -1.2578587100    0.0000000000    0.0000000000   -0.0074178855    0.0000000000    0.0000000000
 H    0.0000000000    0.0000000000    0.0000000000    0.0000000000    0.0000000000    0.0000000000
 H    0.9210274998    0.0000000000    0.0000000000   -0.0045398547    0.0000000000    0.0000000000
 PRIMCOORD   5
    3  1
 H   -1.0358102801    0.0000000000    0.0000000000    0.0008075351    0.0000000000    0.0000000000
 H    0.0000000000    0.0000000000    0.0000000000    0.0000000000    0.0000000000    0.0000000000
 H    1.0666664450    0.0000000000    0.0000000000    0.0007818485    0.0000000000    0.0000000000
 PRIMCOORD   6
    3  1
 H   -0.8727888483    0.0000000000    0.0000000000    0.0042867022    0.0000000000    0.0000000000
 H    0.0000000000    0.0000000000    0.0000000000    0.0000000000    0.0000000000    0.0000000000
 H    1.4481315380    0.0000000000    0.0000000000    0.0089147447    0.0000000000    0.0000000000
 PRIMCOORD   7
    3  1
 H   -0.8328174711    0.0000000000    0.0000000000    0.0004586479    0.0000000000    0.0000000000
 H    0.0000000000    0.0000000000    0.0000000000    0.0000000000    0.0000000000    0.0000000000
 H    1.9122340836    0.0000000000    0.0000000000    0.0042926231    0.0000000000    0.0000000000
 PRIMCOORD   8
    3  1
 H   -0.8243343408    0.0000000000    0.0000000000   -0.0002646736    0.0000000000    0.0000000000
 H    0.0000000000    0.0000000000    0.0000000000    0.0000000000    0.0000000000    0.0000000000
 H    2.4165926535    0.0000000000    0.0000000000    0.0006804543    0.0000000000    0.0000000000
