 ANIMSTEPS   8
 CRYSTAL 
 PRIMVEC 
  6.3501240000  0.0000000000  0.0000000000
  0.0000000000  2.6458850000  0.0000000000
  0.0000000000  0.0000000000  2.6458850000
 PRIMCOORD   1
    3  1
 H   -2.4165926535    0.0000000000    0.0000000000   -0.0006804385    0.0000000000    0.0000000000
 H    0.0000000000    0.0000000000    0.0000000000    0.0000000000    0.0000000000    0.0000000000
 H    0.8243343408    0.0000000000    0.0000000000    0.0002646494    0.0000000000    0.0000000000
 PRIMCOORD   2
    3  1
 H   -2.0129207505    0.0000000000    0.0000000000   -0.0031579658    0.0000000000    0.0000000000
 H    0.0000000000    0.0000000000    0.0000000000    0.0000000000    0.0000000000    0.0000000000
 H    0.8297337566    0.0000000000    0.0000000000   -0.0001237629    0.0000000000    0.0000000000
 PRIMCOORD   3
    3  1
 H   -1.6369371143    0.0000000000    0.0000000000   -0.0079139681    0.0000000000    0.0000000000
 H    0.0000000000    0.0000000000    0.0000000000    0.0000000000    0.0000000000    0.0000000000
 H    0.8472878627    0.0000000000    0.0000000000   -0.0013068951    0.0000000000    0.0000000000
 PRIMCOORD   4
    3  1
 H   -1.3235175768    0.0000000000    0.0000000000   -0.0083536239    0.0000000000    0.0000000000
 H    0.0000000000    0.0000000000    0.0000000000    0.0000000000    0.0000000000    0.0000000000
 H    0.9001952816    0.0000000000    0.0000000000   -0.0048228503    0.0000000000    0.0000000000
 PRIMCOORD   5
    3  1
 H   -1.0745658197    0.0000000000    0.0000000000   -0.0007479132    0.0000000000    0.0000000000
 H    0.0000000000    0.0000000000    0.0000000000    0.0000000000    0.0000000000    0.0000000000
 H    1.0307697931    0.0000000000    0.0000000000   -0.0015229222    0.0000000000    0.0000000000
 PRIMCOORD   6
    3  1
 H   -0.8858434209    0.0000000000    0.0000000000    0.0043935862    0.0000000000    0.0000000000
 H    0.0000000000    0.0000000000    0.0000000000    0.0000000000    0.0000000000    0.0000000000
 H    1.3788395524    0.0000000000    0.0000000000    0.0087923129    0.0000000000    0.0000000000
 PRIMCOORD   7
    3  1
 H   -0.8347781335    0.0000000000    0.0000000000    0.0004657236    0.0000000000    0.0000000000
 H    0.0000000000    0.0000000000    0.0000000000    0.0000000000    0.0000000000    0.0000000000
 H    1.8504577751    0.0000000000    0.0000000000    0.0051074823    0.0000000000    0.0000000000
 PRIMCOORD   8
    3  1
 H   -0.8243343408    0.0000000000    0.0000000000   -0.0002646391    0.0000000000    0.0000000000
 H    0.0000000000    0.0000000000    0.0000000000    0.0000000000    0.0000000000    0.0000000000
 H    2.4165926535    0.0000000000    0.0000000000    0.0006804320    0.0000000000    0.0000000000
