 ANIMSTEPS   8
 CRYSTAL 
 PRIMVEC 
  6.3501240000  0.0000000000  0.0000000000
  0.0000000000  2.6458850000  0.0000000000
  0.0000000000  0.0000000000  2.6458850000
 PRIMCOORD   1
    3  1
 H   -2.4165926535    0.0000000000    0.0000000000   -0.0006804385    0.0000000000    0.0000000000
 H    0.0000000000    0.0000000000    0.0000000000    0.0000000000    0.0000000000    0.0000000000
 H    0.8243343408    0.0000000000    0.0000000000    0.0002646494    0.0000000000    0.0000000000
 PRIMCOORD   2
    3  1
 H   -2.0129352875    0.0000000000    0.0000000000   -0.0031576702    0.0000000000    0.0000000000
 H    0.0000000000    0.0000000000    0.0000000000    0.0000000000    0.0000000000    0.0000000000
 H    0.8297346002    0.0000000000    0.0000000000   -0.0001248146    0.0000000000    0.0000000000
 PRIMCOORD   3
    3  1
 H   -1.6369598218    0.0000000000    0.0000000000   -0.0079137448    0.0000000000    0.0000000000
 H    0.0000000000    0.0000000000    0.0000000000    0.0000000000    0.0000000000    0.0000000000
 H    0.8472861905    0.0000000000    0.0000000000   -0.0013068951    0.0000000000    0.0000000000
 PRIMCOORD   4
    3  1
 H   -1.3235422230    0.0000000000    0.0000000000   -0.0083538797    0.0000000000    0.0000000000
 H    0.0000000000    0.0000000000    0.0000000000    0.0000000000    0.0000000000    0.0000000000
 H    0.9001885260    0.0000000000    0.0000000000   -0.0048228997    0.0000000000    0.0000000000
 PRIMCOORD   5
    3  1
 H   -1.0745866171    0.0000000000    0.0000000000   -0.0007483366    0.0000000000    0.0000000000
 H    0.0000000000    0.0000000000    0.0000000000    0.0000000000    0.0000000000    0.0000000000
 H    1.0307525987    0.0000000000    0.0000000000   -0.0015242518    0.0000000000    0.0000000000
 PRIMCOORD   6
    3  1
 H   -0.8858480242    0.0000000000    0.0000000000    0.0043936902    0.0000000000    0.0000000000
 H    0.0000000000    0.0000000000    0.0000000000    0.0000000000    0.0000000000    0.0000000000
 H    1.3788190061    0.0000000000    0.0000000000    0.0087922883    0.0000000000    0.0000000000
 PRIMCOORD   7
    3  1
 H   -0.8347786428    0.0000000000    0.0000000000    0.0004657299    0.0000000000    0.0000000000
 H    0.0000000000    0.0000000000    0.0000000000    0.0000000000    0.0000000000    0.0000000000
 H    1.8504435855    0.0000000000    0.0000000000    0.0051079454    0.0000000000    0.0000000000
 PRIMCOORD   8
    3  1
 H   -0.8243343408    0.0000000000    0.0000000000   -0.0002646391    0.0000000000    0.0000000000
 H    0.0000000000    0.0000000000    0.0000000000    0.0000000000    0.0000000000    0.0000000000
 H    2.4165926535    0.0000000000    0.0000000000    0.0006804320    0.0000000000    0.0000000000
