 ANIMSTEPS   8
 CRYSTAL 
 PRIMVEC 
  6.3501265296  0.0000000000  0.0000000000
  0.0000000000  2.6458860540  0.0000000000
  0.0000000000  0.0000000000  2.6458860540
 PRIMCOORD   1
    3  1
 H   -2.4165936162    0.0000000000    0.0000000000   -0.0003710346    0.0000000000    0.0000000000
 H    0.0000000000    0.0000000000    0.0000000000    0.0000000000    0.0000000000    0.0000000000
 H    0.8243346691    0.0000000000    0.0000000000    0.0001122209    0.0000000000    0.0000000000
 PRIMCOORD   2
    3  1
 H   -2.0131296422    0.0000000000    0.0000000000   -0.0031558706    0.0000000000    0.0000000000
 H    0.0000000000    0.0000000000    0.0000000000    0.0000000000    0.0000000000    0.0000000000
 H    0.8297332311    0.0000000000    0.0000000000   -0.0001275062    0.0000000000    0.0000000000
 PRIMCOORD   3
    3  1
 H   -1.6372710326    0.0000000000    0.0000000000   -0.0079101563    0.0000000000    0.0000000000
 H    0.0000000000    0.0000000000    0.0000000000    0.0000000000    0.0000000000    0.0000000000
 H    0.8472617443    0.0000000000    0.0000000000   -0.0013066093    0.0000000000    0.0000000000
 PRIMCOORD   4
    3  1
 H   -1.3238753786    0.0000000000    0.0000000000   -0.0083579375    0.0000000000    0.0000000000
 H    0.0000000000    0.0000000000    0.0000000000    0.0000000000    0.0000000000    0.0000000000
 H    0.9000970728    0.0000000000    0.0000000000   -0.0048240865    0.0000000000    0.0000000000
 PRIMCOORD   5
    3  1
 H   -1.0748734317    0.0000000000    0.0000000000   -0.0007566531    0.0000000000    0.0000000000
 H    0.0000000000    0.0000000000    0.0000000000    0.0000000000    0.0000000000    0.0000000000
 H    1.0305158986    0.0000000000    0.0000000000   -0.0015420660    0.0000000000    0.0000000000
 PRIMCOORD   6
    3  1
 H   -0.8858857171    0.0000000000    0.0000000000    0.0043773591    0.0000000000    0.0000000000
 H    0.0000000000    0.0000000000    0.0000000000    0.0000000000    0.0000000000    0.0000000000
 H    1.3785279016    0.0000000000    0.0000000000    0.0087987218    0.0000000000    0.0000000000
 PRIMCOORD   7
    3  1
 H   -0.8347868556    0.0000000000    0.0000000000    0.0004654843    0.0000000000    0.0000000000
 H    0.0000000000    0.0000000000    0.0000000000    0.0000000000    0.0000000000    0.0000000000
 H    1.8502400499    0.0000000000    0.0000000000    0.0051110036    0.0000000000    0.0000000000
 PRIMCOORD   8
    3  1
 H   -0.8243346691    0.0000000000    0.0000000000   -0.0001122105    0.0000000000    0.0000000000
 H    0.0000000000    0.0000000000    0.0000000000    0.0000000000    0.0000000000    0.0000000000
 H    2.4165936162    0.0000000000    0.0000000000    0.0003710296    0.0000000000    0.0000000000
