 ANIMSTEPS   8
 CRYSTAL 
 PRIMVEC 
  6.3501265031  0.0000000000  0.0000000000
  0.0000000000  2.6458860429  0.0000000000
  0.0000000000  0.0000000000  2.6458860429
 PRIMCOORD   1
    3  1
 H   -2.4165936061    0.0000000000    0.0000000000   -0.0003710347    0.0000000000    0.0000000000
 H    0.0000000000    0.0000000000    0.0000000000    0.0000000000    0.0000000000    0.0000000000
 H    0.8243346657    0.0000000000    0.0000000000    0.0001122209    0.0000000000    0.0000000000
 PRIMCOORD   2
    3  1
 H   -2.0131348464    0.0000000000    0.0000000000   -0.0031551452    0.0000000000    0.0000000000
 H    0.0000000000    0.0000000000    0.0000000000    0.0000000000    0.0000000000    0.0000000000
 H    0.8297340455    0.0000000000    0.0000000000   -0.0001286373    0.0000000000    0.0000000000
 PRIMCOORD   3
    3  1
 H   -1.6372800206    0.0000000000    0.0000000000   -0.0079100579    0.0000000000    0.0000000000
 H    0.0000000000    0.0000000000    0.0000000000    0.0000000000    0.0000000000    0.0000000000
 H    0.8472607656    0.0000000000    0.0000000000   -0.0013063660    0.0000000000    0.0000000000
 PRIMCOORD   4
    3  1
 H   -1.3238851688    0.0000000000    0.0000000000   -0.0083579355    0.0000000000    0.0000000000
 H    0.0000000000    0.0000000000    0.0000000000    0.0000000000    0.0000000000    0.0000000000
 H    0.9000945015    0.0000000000    0.0000000000   -0.0048241411    0.0000000000    0.0000000000
 PRIMCOORD   5
    3  1
 H   -1.0748823172    0.0000000000    0.0000000000   -0.0007571792    0.0000000000    0.0000000000
 H    0.0000000000    0.0000000000    0.0000000000    0.0000000000    0.0000000000    0.0000000000
 H    1.0305089178    0.0000000000    0.0000000000   -0.0015425516    0.0000000000    0.0000000000
 PRIMCOORD   6
    3  1
 H   -0.8858875397    0.0000000000    0.0000000000    0.0043770960    0.0000000000    0.0000000000
 H    0.0000000000    0.0000000000    0.0000000000    0.0000000000    0.0000000000    0.0000000000
 H    1.3785193956    0.0000000000    0.0000000000    0.0087989005    0.0000000000    0.0000000000
 PRIMCOORD   7
    3  1
 H   -0.8347866509    0.0000000000    0.0000000000    0.0004648000    0.0000000000    0.0000000000
 H    0.0000000000    0.0000000000    0.0000000000    0.0000000000    0.0000000000    0.0000000000
 H    1.8502339974    0.0000000000    0.0000000000    0.0051124854    0.0000000000    0.0000000000
 PRIMCOORD   8
    3  1
 H   -0.8243346657    0.0000000000    0.0000000000   -0.0001122105    0.0000000000    0.0000000000
 H    0.0000000000    0.0000000000    0.0000000000    0.0000000000    0.0000000000    0.0000000000
 H    2.4165936061    0.0000000000    0.0000000000    0.0003710294    0.0000000000    0.0000000000
