 ANIMSTEPS   8
 CRYSTAL 
 PRIMVEC 
  6.3501265296  0.0000000000  0.0000000000
  0.0000000000  2.6458860540  0.0000000000
  0.0000000000  0.0000000000  2.6458860540
 PRIMCOORD   1
    3  1
 H   -2.4165936162    0.0000000000    0.0000000000   -0.0003710346    0.0000000000    0.0000000000
 H    0.0000000000    0.0000000000    0.0000000000    0.0000000000    0.0000000000    0.0000000000
 H    0.8243346691    0.0000000000    0.0000000000    0.0001122209    0.0000000000    0.0000000000
 PRIMCOORD   2
    3  1
 H   -2.0130480895    0.0000000000    0.0000000000   -0.0031396524    0.0000000000    0.0000000000
 H    0.0000000000    0.0000000000    0.0000000000    0.0000000000    0.0000000000    0.0000000000
 H    0.8297458573    0.0000000000    0.0000000000   -0.0001421624    0.0000000000    0.0000000000
 PRIMCOORD   3
    3  1
 H   -1.6371376111    0.0000000000    0.0000000000   -0.0079084209    0.0000000000    0.0000000000
 H    0.0000000000    0.0000000000    0.0000000000    0.0000000000    0.0000000000    0.0000000000
 H    0.8472694578    0.0000000000    0.0000000000   -0.0013056560    0.0000000000    0.0000000000
 PRIMCOORD   4
    3  1
 H   -1.3237243387    0.0000000000    0.0000000000   -0.0083532660    0.0000000000    0.0000000000
 H    0.0000000000    0.0000000000    0.0000000000    0.0000000000    0.0000000000    0.0000000000
 H    0.9001145648    0.0000000000    0.0000000000   -0.0048086515    0.0000000000    0.0000000000
 PRIMCOORD   5
    3  1
 H   -1.0747474601    0.0000000000    0.0000000000   -0.0007380766    0.0000000000    0.0000000000
 H    0.0000000000    0.0000000000    0.0000000000    0.0000000000    0.0000000000    0.0000000000
 H    1.0306146733    0.0000000000    0.0000000000   -0.0015437976    0.0000000000    0.0000000000
 PRIMCOORD   6
    3  1
 H   -0.8858618690    0.0000000000    0.0000000000    0.0043709212    0.0000000000    0.0000000000
 H    0.0000000000    0.0000000000    0.0000000000    0.0000000000    0.0000000000    0.0000000000
 H    1.3786490672    0.0000000000    0.0000000000    0.0087553819    0.0000000000    0.0000000000
 PRIMCOORD   7
    3  1
 H   -0.8347832245    0.0000000000    0.0000000000    0.0004037658    0.0000000000    0.0000000000
 H    0.0000000000    0.0000000000    0.0000000000    0.0000000000    0.0000000000    0.0000000000
 H    1.8503221304    0.0000000000    0.0000000000    0.0051797029    0.0000000000    0.0000000000
 PRIMCOORD   8
    3  1
 H   -0.8243346691    0.0000000000    0.0000000000   -0.0001122105    0.0000000000    0.0000000000
 H    0.0000000000    0.0000000000    0.0000000000    0.0000000000    0.0000000000    0.0000000000
 H    2.4165936162    0.0000000000    0.0000000000    0.0003710296    0.0000000000    0.0000000000
