 ANIMSTEPS   8
 CRYSTAL 
 PRIMVEC 
  6.3501240000  0.0000000000  0.0000000000
  0.0000000000  2.6458850000  0.0000000000
  0.0000000000  0.0000000000  2.6458850000
 PRIMCOORD   1
    3  1
 H   -2.4165926535    0.0000000000    0.0000000000   -0.0006804385    0.0000000000    0.0000000000
 H    0.0000000000    0.0000000000    0.0000000000    0.0000000000    0.0000000000    0.0000000000
 H    0.8243343408    0.0000000000    0.0000000000    0.0002646494    0.0000000000    0.0000000000
 PRIMCOORD   2
    3  1
 H   -1.9654985365    0.0000000000    0.0000000000   -0.0035901570    0.0000000000    0.0000000000
 H    0.0000000000    0.0000000000    0.0000000000    0.0000000000    0.0000000000    0.0000000000
 H    0.8309804701    0.0000000000    0.0000000000   -0.0001890466    0.0000000000    0.0000000000
 PRIMCOORD   3
    3  1
 H   -1.5663312657    0.0000000000    0.0000000000   -0.0085807862    0.0000000000    0.0000000000
 H    0.0000000000    0.0000000000    0.0000000000    0.0000000000    0.0000000000    0.0000000000
 H    0.8539388553    0.0000000000    0.0000000000   -0.0017605458    0.0000000000    0.0000000000
 PRIMCOORD   4
    3  1
 H   -1.2578645905    0.0000000000    0.0000000000   -0.0074171973    0.0000000000    0.0000000000
 H    0.0000000000    0.0000000000    0.0000000000    0.0000000000    0.0000000000    0.0000000000
 H    0.9210247878    0.0000000000    0.0000000000   -0.0045384948    0.0000000000    0.0000000000
 PRIMCOORD   5
    3  1
 H   -1.0358106902    0.0000000000    0.0000000000    0.0008075181    0.0000000000    0.0000000000
 H    0.0000000000    0.0000000000    0.0000000000    0.0000000000    0.0000000000    0.0000000000
 H    1.0666659671    0.0000000000    0.0000000000    0.0007818538    0.0000000000    0.0000000000
 PRIMCOORD   6
    3  1
 H   -0.8727889743    0.0000000000    0.0000000000    0.0042867225    0.0000000000    0.0000000000
 H    0.0000000000    0.0000000000    0.0000000000    0.0000000000    0.0000000000    0.0000000000
 H    1.4481309367    0.0000000000    0.0000000000    0.0089147381    0.0000000000    0.0000000000
 PRIMCOORD   7
    3  1
 H   -0.8328174861    0.0000000000    0.0000000000    0.0004586490    0.0000000000    0.0000000000
 H    0.0000000000    0.0000000000    0.0000000000    0.0000000000    0.0000000000    0.0000000000
 H    1.9122336303    0.0000000000    0.0000000000    0.0042926293    0.0000000000    0.0000000000
 PRIMCOORD   8
    3  1
 H   -0.8243343408    0.0000000000    0.0000000000   -0.0002646391    0.0000000000    0.0000000000
 H    0.0000000000    0.0000000000    0.0000000000    0.0000000000    0.0000000000    0.0000000000
 H    2.4165926535    0.0000000000    0.0000000000    0.0006804320    0.0000000000    0.0000000000
