 ANIMSTEPS   8
 CRYSTAL 
 PRIMVEC 
  6.3501240000  0.0000000000  0.0000000000
  0.0000000000  2.6458850000  0.0000000000
  0.0000000000  0.0000000000  2.6458850000
 PRIMCOORD   1
    3  1
 H   -2.4165926535    0.0000000000    0.0000000000   -0.0006804514    0.0000000000    0.0000000000
 H    0.0000000000    0.0000000000    0.0000000000    0.0000000000    0.0000000000    0.0000000000
 H    0.8243343408    0.0000000000    0.0000000000    0.0002646548    0.0000000000    0.0000000000
 PRIMCOORD   2
    3  1
 H   -1.9883680917    0.0000000000    0.0000000000   -0.0033221086    0.0000000000    0.0000000000
 H    0.0000000000    0.0000000000    0.0000000000    0.0000000000    0.0000000000    0.0000000000
 H    0.8322341626    0.0000000000    0.0000000000   -0.0016695817    0.0000000000    0.0000000000
 PRIMCOORD   3
    3  1
 H   -1.5962891657    0.0000000000    0.0000000000   -0.0083190449    0.0000000000    0.0000000000
 H    0.0000000000    0.0000000000    0.0000000000    0.0000000000    0.0000000000    0.0000000000
 H    0.8505576252    0.0000000000    0.0000000000   -0.0013070183    0.0000000000    0.0000000000
 PRIMCOORD   4
    3  1
 H   -1.2769483354    0.0000000000    0.0000000000   -0.0076722662    0.0000000000    0.0000000000
 H    0.0000000000    0.0000000000    0.0000000000    0.0000000000    0.0000000000    0.0000000000
 H    0.9148713425    0.0000000000    0.0000000000   -0.0048916846    0.0000000000    0.0000000000
 PRIMCOORD   5
    3  1
 H   -1.0328593865    0.0000000000    0.0000000000    0.0011703876    0.0000000000    0.0000000000
 H    0.0000000000    0.0000000000    0.0000000000    0.0000000000    0.0000000000    0.0000000000
 H    1.0710556552    0.0000000000    0.0000000000    0.0007719997    0.0000000000    0.0000000000
 PRIMCOORD   6
    3  1
 H   -0.8776150492    0.0000000000    0.0000000000    0.0045738396    0.0000000000    0.0000000000
 H    0.0000000000    0.0000000000    0.0000000000    0.0000000000    0.0000000000    0.0000000000
 H    1.4226459663    0.0000000000    0.0000000000    0.0088422541    0.0000000000    0.0000000000
 PRIMCOORD   7
    3  1
 H   -0.8360656017    0.0000000000    0.0000000000    0.0022547008    0.0000000000    0.0000000000
 H    0.0000000000    0.0000000000    0.0000000000    0.0000000000    0.0000000000    0.0000000000
 H    1.8802068452    0.0000000000    0.0000000000    0.0046621462    0.0000000000    0.0000000000
 PRIMCOORD   8
    3  1
 H   -0.8243343408    0.0000000000    0.0000000000   -0.0002646736    0.0000000000    0.0000000000
 H    0.0000000000    0.0000000000    0.0000000000    0.0000000000    0.0000000000    0.0000000000
 H    2.4165926535    0.0000000000    0.0000000000    0.0006804543    0.0000000000    0.0000000000
