 ANIMSTEPS   8
 CRYSTAL 
 PRIMVEC 
  6.3501240000  0.0000000000  0.0000000000
  0.0000000000  2.6458850000  0.0000000000
  0.0000000000  0.0000000000  2.6458850000
 PRIMCOORD   1
    3  1
 H   -2.4165926535    0.0000000000    0.0000000000   -0.0006439793    0.0000000000    0.0000000000
 H    0.0000000000    0.0000000000    0.0000000000    0.0000000000    0.0000000000    0.0000000000
 H    0.8243343408    0.0000000000    0.0000000000    0.0002283953    0.0000000000    0.0000000000
 PRIMCOORD   2
    3  1
 H   -1.9827692728    0.0000000000    0.0000000000   -0.0034221773    0.0000000000    0.0000000000
 H    0.0000000000    0.0000000000    0.0000000000    0.0000000000    0.0000000000    0.0000000000
 H    0.8303854178    0.0000000000    0.0000000000   -0.0000577349    0.0000000000    0.0000000000
 PRIMCOORD   3
    3  1
 H   -1.6044390778    0.0000000000    0.0000000000   -0.0082830911    0.0000000000    0.0000000000
 H    0.0000000000    0.0000000000    0.0000000000    0.0000000000    0.0000000000    0.0000000000
 H    0.8497406692    0.0000000000    0.0000000000   -0.0012376255    0.0000000000    0.0000000000
 PRIMCOORD   4
    3  1
 H   -1.2918450755    0.0000000000    0.0000000000   -0.0080044496    0.0000000000    0.0000000000
 H    0.0000000000    0.0000000000    0.0000000000    0.0000000000    0.0000000000    0.0000000000
 H    0.9092009560    0.0000000000    0.0000000000   -0.0045942699    0.0000000000    0.0000000000
 PRIMCOORD   5
    3  1
 H   -1.0222935799    0.0000000000    0.0000000000    0.0015603888    0.0000000000    0.0000000000
 H    0.0000000000    0.0000000000    0.0000000000    0.0000000000    0.0000000000    0.0000000000
 H    1.0825411646    0.0000000000    0.0000000000    0.0014265831    0.0000000000    0.0000000000
 PRIMCOORD   6
    3  1
 H   -0.8705878521    0.0000000000    0.0000000000    0.0040368351    0.0000000000    0.0000000000
 H    0.0000000000    0.0000000000    0.0000000000    0.0000000000    0.0000000000    0.0000000000
 H    1.4595085782    0.0000000000    0.0000000000    0.0089205007    0.0000000000    0.0000000000
 PRIMCOORD   7
    3  1
 H   -0.8333186223    0.0000000000    0.0000000000    0.0003500492    0.0000000000    0.0000000000
 H    0.0000000000    0.0000000000    0.0000000000    0.0000000000    0.0000000000    0.0000000000
 H    1.8909747751    0.0000000000    0.0000000000    0.0045756856    0.0000000000    0.0000000000
 PRIMCOORD   8
    3  1
 H   -0.8243343408    0.0000000000    0.0000000000   -0.0002377349    0.0000000000    0.0000000000
 H    0.0000000000    0.0000000000    0.0000000000    0.0000000000    0.0000000000    0.0000000000
 H    2.4165926535    0.0000000000    0.0000000000    0.0006794519    0.0000000000    0.0000000000
