 ANIMSTEPS   8
 CRYSTAL 
 PRIMVEC 
  6.3501240000  0.0000000000  0.0000000000
  0.0000000000  2.6458850000  0.0000000000
  0.0000000000  0.0000000000  2.6458850000
 PRIMCOORD   1
    3  1
 H   -2.4553173117    0.0000000000    0.0000000000   -0.0007178734    0.0000000000    0.0000000000
 H    0.0000000000    0.0000000000    0.0000000000    0.0000000000    0.0000000000    0.0000000000
 H    0.7166711098    0.0000000000    0.0000000000   -0.0027853853    0.0000000000    0.0000000000
 PRIMCOORD   2
    3  1
 H   -2.0380309725    0.0000000000    0.0000000000   -0.0029123112    0.0000000000    0.0000000000
 H    0.0000000000    0.0000000000    0.0000000000    0.0000000000    0.0000000000    0.0000000000
 H    0.8292165215    0.0000000000    0.0000000000   -0.0001699680    0.0000000000    0.0000000000
 PRIMCOORD   3
    3  1
 H   -1.6344872207    0.0000000000    0.0000000000   -0.0079309616    0.0000000000    0.0000000000
 H    0.0000000000    0.0000000000    0.0000000000    0.0000000000    0.0000000000    0.0000000000
 H    0.8473959494    0.0000000000    0.0000000000   -0.0012694776    0.0000000000    0.0000000000
 PRIMCOORD   4
    3  1
 H   -1.3027655537    0.0000000000    0.0000000000   -0.0081977756    0.0000000000    0.0000000000
 H    0.0000000000    0.0000000000    0.0000000000    0.0000000000    0.0000000000    0.0000000000
 H    0.9054217211    0.0000000000    0.0000000000   -0.0044147459    0.0000000000    0.0000000000
 PRIMCOORD   5
    3  1
 H   -1.0472595979    0.0000000000    0.0000000000    0.0005544765    0.0000000000    0.0000000000
 H    0.0000000000    0.0000000000    0.0000000000    0.0000000000    0.0000000000    0.0000000000
 H    1.0563435401    0.0000000000    0.0000000000   -0.0001166365    0.0000000000    0.0000000000
 PRIMCOORD   6
    3  1
 H   -0.8777996346    0.0000000000    0.0000000000    0.0040600103    0.0000000000    0.0000000000
 H    0.0000000000    0.0000000000    0.0000000000    0.0000000000    0.0000000000    0.0000000000
 H    1.4169223036    0.0000000000    0.0000000000    0.0089260276    0.0000000000    0.0000000000
 PRIMCOORD   7
    3  1
 H   -0.8330786262    0.0000000000    0.0000000000    0.0002595177    0.0000000000    0.0000000000
 H    0.0000000000    0.0000000000    0.0000000000    0.0000000000    0.0000000000    0.0000000000
 H    1.8957090781    0.0000000000    0.0000000000    0.0045318891    0.0000000000    0.0000000000
 PRIMCOORD   8
    3  1
 H   -0.7195519701    0.0000000000    0.0000000000    0.0027110635    0.0000000000    0.0000000000
 H    0.0000000000    0.0000000000    0.0000000000    0.0000000000    0.0000000000    0.0000000000
 H    2.4551995022    0.0000000000    0.0000000000    0.0007193854    0.0000000000    0.0000000000
