 ANIMSTEPS   8
 CRYSTAL 
 PRIMVEC 
  6.3501240000  0.0000000000  0.0000000000
  0.0000000000  2.6458850000  0.0000000000
  0.0000000000  0.0000000000  2.6458850000
 PRIMCOORD   1
    3  1
 H   -2.4165926535    0.0000000000    0.0000000000   -0.0006804391    0.0000000000    0.0000000000
 H    0.0000000000    0.0000000000    0.0000000000    0.0000000000    0.0000000000    0.0000000000
 H    0.8243343408    0.0000000000    0.0000000000    0.0002646440    0.0000000000    0.0000000000
 PRIMCOORD   2
    3  1
 H   -1.9883589958    0.0000000000    0.0000000000   -0.0033242094    0.0000000000    0.0000000000
 H    0.0000000000    0.0000000000    0.0000000000    0.0000000000    0.0000000000    0.0000000000
 H    0.8322182352    0.0000000000    0.0000000000   -0.0016552127    0.0000000000    0.0000000000
 PRIMCOORD   3
    3  1
 H   -1.5962765374    0.0000000000    0.0000000000   -0.0083192268    0.0000000000    0.0000000000
 H    0.0000000000    0.0000000000    0.0000000000    0.0000000000    0.0000000000    0.0000000000
 H    0.8505594240    0.0000000000    0.0000000000   -0.0013075094    0.0000000000    0.0000000000
 PRIMCOORD   4
    3  1
 H   -1.2769341265    0.0000000000    0.0000000000   -0.0076718492    0.0000000000    0.0000000000
 H    0.0000000000    0.0000000000    0.0000000000    0.0000000000    0.0000000000    0.0000000000
 H    0.9148770519    0.0000000000    0.0000000000   -0.0048921822    0.0000000000    0.0000000000
 PRIMCOORD   5
    3  1
 H   -1.0328467012    0.0000000000    0.0000000000    0.0011707183    0.0000000000    0.0000000000
 H    0.0000000000    0.0000000000    0.0000000000    0.0000000000    0.0000000000    0.0000000000
 H    1.0710686593    0.0000000000    0.0000000000    0.0007727164    0.0000000000    0.0000000000
 PRIMCOORD   6
    3  1
 H   -0.8776119894    0.0000000000    0.0000000000    0.0045733864    0.0000000000    0.0000000000
 H    0.0000000000    0.0000000000    0.0000000000    0.0000000000    0.0000000000    0.0000000000
 H    1.4226594608    0.0000000000    0.0000000000    0.0088426077    0.0000000000    0.0000000000
 PRIMCOORD   7
    3  1
 H   -0.8360622288    0.0000000000    0.0000000000    0.0022522238    0.0000000000    0.0000000000
 H    0.0000000000    0.0000000000    0.0000000000    0.0000000000    0.0000000000    0.0000000000
 H    1.8802147453    0.0000000000    0.0000000000    0.0046621280    0.0000000000    0.0000000000
 PRIMCOORD   8
    3  1
 H   -0.8243343408    0.0000000000    0.0000000000   -0.0002646762    0.0000000000    0.0000000000
 H    0.0000000000    0.0000000000    0.0000000000    0.0000000000    0.0000000000    0.0000000000
 H    2.4165926535    0.0000000000    0.0000000000    0.0006804576    0.0000000000    0.0000000000
