 ANIMSTEPS   8
 CRYSTAL 
 PRIMVEC 
  6.3501240000  0.0000000000  0.0000000000
  0.0000000000  2.6458850000  0.0000000000
  0.0000000000  0.0000000000  2.6458850000
 PRIMCOORD   1
    3  1
 H   -2.4165926535    0.0000000000    0.0000000000   -0.0006725372    0.0000000000    0.0000000000
 H    0.0000000000    0.0000000000    0.0000000000    0.0000000000    0.0000000000    0.0000000000
 H    0.8243343408    0.0000000000    0.0000000000    0.0002419528    0.0000000000    0.0000000000
 PRIMCOORD   2
    3  1
 H   -2.0043652301    0.0000000000    0.0000000000   -0.0013134480    0.0000000000    0.0000000000
 H    0.0000000000    0.0000000000    0.0000000000    0.0000000000    0.0000000000    0.0000000000
 H    0.8301477352    0.0000000000    0.0000000000   -0.0002154351    0.0000000000    0.0000000000
 PRIMCOORD   3
    3  1
 H   -1.6233318264    0.0000000000    0.0000000000    0.0068168098    0.0000000000    0.0000000000
 H    0.0000000000    0.0000000000    0.0000000000    0.0000000000    0.0000000000    0.0000000000
 H    0.8510927415    0.0000000000    0.0000000000   -0.0008389384    0.0000000000    0.0000000000
 PRIMCOORD   4
    3  1
 H   -1.3054782057    0.0000000000    0.0000000000    0.0030567030    0.0000000000    0.0000000000
 H    0.0000000000    0.0000000000    0.0000000000    0.0000000000    0.0000000000    0.0000000000
 H    0.9037035440    0.0000000000    0.0000000000    0.0025038319    0.0000000000    0.0000000000
 PRIMCOORD   5
    3  1
 H   -1.0565966503    0.0000000000    0.0000000000    0.0003281653    0.0000000000    0.0000000000
 H    0.0000000000    0.0000000000    0.0000000000    0.0000000000    0.0000000000    0.0000000000
 H    1.0454035467    0.0000000000    0.0000000000    0.0002635103    0.0000000000    0.0000000000
 PRIMCOORD   6
    3  1
 H   -0.8858822143    0.0000000000    0.0000000000    0.0022796166    0.0000000000    0.0000000000
 H    0.0000000000    0.0000000000    0.0000000000    0.0000000000    0.0000000000    0.0000000000
 H    1.3977129689    0.0000000000    0.0000000000   -0.0003845470    0.0000000000    0.0000000000
 PRIMCOORD   7
    3  1
 H   -0.8349285149    0.0000000000    0.0000000000    0.0005626876    0.0000000000    0.0000000000
 H    0.0000000000    0.0000000000    0.0000000000    0.0000000000    0.0000000000    0.0000000000
 H    1.8628172375    0.0000000000    0.0000000000    0.0018492366    0.0000000000    0.0000000000
 PRIMCOORD   8
    3  1
 H   -0.8243343408    0.0000000000    0.0000000000   -0.0002418000    0.0000000000    0.0000000000
 H    0.0000000000    0.0000000000    0.0000000000    0.0000000000    0.0000000000    0.0000000000
 H    2.4165926535    0.0000000000    0.0000000000    0.0006724266    0.0000000000    0.0000000000
