 ANIMSTEPS   8
 CRYSTAL 
 PRIMVEC 
  6.3501240000  0.0000000000  0.0000000000
  0.0000000000  2.6458850000  0.0000000000
  0.0000000000  0.0000000000  2.6458850000
 PRIMCOORD   1
    3  1
 H   -2.4165926535    0.0000000000    0.0000000000   -0.0006804385    0.0000000000    0.0000000000
 H    0.0000000000    0.0000000000    0.0000000000    0.0000000000    0.0000000000    0.0000000000
 H    0.8243343408    0.0000000000    0.0000000000    0.0002646494    0.0000000000    0.0000000000
 PRIMCOORD   2
    3  1
 H   -1.9866180042    0.0000000000    0.0000000000   -0.0033790220    0.0000000000    0.0000000000
 H    0.0000000000    0.0000000000    0.0000000000    0.0000000000    0.0000000000    0.0000000000
 H    0.8304574601    0.0000000000    0.0000000000   -0.0002004263    0.0000000000    0.0000000000
 PRIMCOORD   3
    3  1
 H   -1.5943959885    0.0000000000    0.0000000000   -0.0083384718    0.0000000000    0.0000000000
 H    0.0000000000    0.0000000000    0.0000000000    0.0000000000    0.0000000000    0.0000000000
 H    0.8510071303    0.0000000000    0.0000000000   -0.0015286063    0.0000000000    0.0000000000
 PRIMCOORD   4
    3  1
 H   -1.2734301332    0.0000000000    0.0000000000   -0.0077746495    0.0000000000    0.0000000000
 H    0.0000000000    0.0000000000    0.0000000000    0.0000000000    0.0000000000    0.0000000000
 H    0.9152280636    0.0000000000    0.0000000000   -0.0045094518    0.0000000000    0.0000000000
 PRIMCOORD   5
    3  1
 H   -1.0306195278    0.0000000000    0.0000000000    0.0009673152    0.0000000000    0.0000000000
 H    0.0000000000    0.0000000000    0.0000000000    0.0000000000    0.0000000000    0.0000000000
 H    1.0720106539    0.0000000000    0.0000000000    0.0011180243    0.0000000000    0.0000000000
 PRIMCOORD   6
    3  1
 H   -0.8765416804    0.0000000000    0.0000000000    0.0042994994    0.0000000000    0.0000000000
 H    0.0000000000    0.0000000000    0.0000000000    0.0000000000    0.0000000000    0.0000000000
 H    1.4262097176    0.0000000000    0.0000000000    0.0089065999    0.0000000000    0.0000000000
 PRIMCOORD   7
    3  1
 H   -0.8338365310    0.0000000000    0.0000000000    0.0005742369    0.0000000000    0.0000000000
 H    0.0000000000    0.0000000000    0.0000000000    0.0000000000    0.0000000000    0.0000000000
 H    1.8833836939    0.0000000000    0.0000000000    0.0046656655    0.0000000000    0.0000000000
 PRIMCOORD   8
    3  1
 H   -0.8243343408    0.0000000000    0.0000000000   -0.0002646391    0.0000000000    0.0000000000
 H    0.0000000000    0.0000000000    0.0000000000    0.0000000000    0.0000000000    0.0000000000
 H    2.4165926535    0.0000000000    0.0000000000    0.0006804320    0.0000000000    0.0000000000
