 ANIMSTEPS   8
 CRYSTAL 
 PRIMVEC 
  6.3501240000  0.0000000000  0.0000000000
  0.0000000000  2.6458850000  0.0000000000
  0.0000000000  0.0000000000  2.6458850000
 PRIMCOORD   1
    3  1
 H   -2.4165926535    0.0000000000    0.0000000000   -0.0006807877    0.0000000000    0.0000000000
 H    0.0000000000    0.0000000000    0.0000000000    0.0000000000    0.0000000000    0.0000000000
 H    0.8243343408    0.0000000000    0.0000000000    0.0002405730    0.0000000000    0.0000000000
 PRIMCOORD   2
    3  1
 H   -1.9746357242    0.0000000000    0.0000000000   -0.0034692358    0.0000000000    0.0000000000
 H    0.0000000000    0.0000000000    0.0000000000    0.0000000000    0.0000000000    0.0000000000
 H    0.8303363107    0.0000000000    0.0000000000    0.0001280341    0.0000000000    0.0000000000
 PRIMCOORD   3
    3  1
 H   -1.6007956205    0.0000000000    0.0000000000   -0.0082904783    0.0000000000    0.0000000000
 H    0.0000000000    0.0000000000    0.0000000000    0.0000000000    0.0000000000    0.0000000000
 H    0.8501658200    0.0000000000    0.0000000000   -0.0013369188    0.0000000000    0.0000000000
 PRIMCOORD   4
    3  1
 H   -1.2920182753    0.0000000000    0.0000000000   -0.0080913110    0.0000000000    0.0000000000
 H    0.0000000000    0.0000000000    0.0000000000    0.0000000000    0.0000000000    0.0000000000
 H    0.9085294037    0.0000000000    0.0000000000   -0.0042918461    0.0000000000    0.0000000000
 PRIMCOORD   5
    3  1
 H   -1.0247640974    0.0000000000    0.0000000000    0.0014786605    0.0000000000    0.0000000000
 H    0.0000000000    0.0000000000    0.0000000000    0.0000000000    0.0000000000    0.0000000000
 H    1.0797982480    0.0000000000    0.0000000000    0.0012882251    0.0000000000    0.0000000000
 PRIMCOORD   6
    3  1
 H   -0.8698908960    0.0000000000    0.0000000000    0.0041884089    0.0000000000    0.0000000000
 H    0.0000000000    0.0000000000    0.0000000000    0.0000000000    0.0000000000    0.0000000000
 H    1.4658224953    0.0000000000    0.0000000000    0.0088662813    0.0000000000    0.0000000000
 PRIMCOORD   7
    3  1
 H   -0.8332225221    0.0000000000    0.0000000000    0.0005473377    0.0000000000    0.0000000000
 H    0.0000000000    0.0000000000    0.0000000000    0.0000000000    0.0000000000    0.0000000000
 H    1.9026359423    0.0000000000    0.0000000000    0.0044225138    0.0000000000    0.0000000000
 PRIMCOORD   8
    3  1
 H   -0.8243343408    0.0000000000    0.0000000000   -0.0002402437    0.0000000000    0.0000000000
 H    0.0000000000    0.0000000000    0.0000000000    0.0000000000    0.0000000000    0.0000000000
 H    2.4165926535    0.0000000000    0.0000000000    0.0006801911    0.0000000000    0.0000000000
