 ANIMSTEPS   8
 CRYSTAL 
 PRIMVEC 
  6.3501240000  0.0000000000  0.0000000000
  0.0000000000  2.6458850000  0.0000000000
  0.0000000000  0.0000000000  2.6458850000
 PRIMCOORD   1
    3  1
 H   -2.4165926535    0.0000000000    0.0000000000   -0.0006804514    0.0000000000    0.0000000000
 H    0.0000000000    0.0000000000    0.0000000000    0.0000000000    0.0000000000    0.0000000000
 H    0.8243343408    0.0000000000    0.0000000000    0.0002646548    0.0000000000    0.0000000000
 PRIMCOORD   2
    3  1
 H   -2.0001860808    0.0000000000    0.0000000000   -0.0032550779    0.0000000000    0.0000000000
 H    0.0000000000    0.0000000000    0.0000000000    0.0000000000    0.0000000000    0.0000000000
 H    0.8283254908    0.0000000000    0.0000000000    0.0012463137    0.0000000000    0.0000000000
 PRIMCOORD   3
    3  1
 H   -1.6125826295    0.0000000000    0.0000000000   -0.0081392915    0.0000000000    0.0000000000
 H    0.0000000000    0.0000000000    0.0000000000    0.0000000000    0.0000000000    0.0000000000
 H    0.8492750682    0.0000000000    0.0000000000   -0.0013864789    0.0000000000    0.0000000000
 PRIMCOORD   4
    3  1
 H   -1.2927633815    0.0000000000    0.0000000000   -0.0079473691    0.0000000000    0.0000000000
 H    0.0000000000    0.0000000000    0.0000000000    0.0000000000    0.0000000000    0.0000000000
 H    0.9094723442    0.0000000000    0.0000000000   -0.0048370965    0.0000000000    0.0000000000
 PRIMCOORD   5
    3  1
 H   -1.0438972774    0.0000000000    0.0000000000    0.0005549392    0.0000000000    0.0000000000
 H    0.0000000000    0.0000000000    0.0000000000    0.0000000000    0.0000000000    0.0000000000
 H    1.0589431563    0.0000000000    0.0000000000    0.0002009717    0.0000000000    0.0000000000
 PRIMCOORD   6
    3  1
 H   -0.8789369985    0.0000000000    0.0000000000    0.0041951485    0.0000000000    0.0000000000
 H    0.0000000000    0.0000000000    0.0000000000    0.0000000000    0.0000000000    0.0000000000
 H    1.4117748128    0.0000000000    0.0000000000    0.0089012388    0.0000000000    0.0000000000
 PRIMCOORD   7
    3  1
 H   -0.8327751783    0.0000000000    0.0000000000   -0.0005106123    0.0000000000    0.0000000000
 H    0.0000000000    0.0000000000    0.0000000000    0.0000000000    0.0000000000    0.0000000000
 H    1.8733651732    0.0000000000    0.0000000000    0.0048233435    0.0000000000    0.0000000000
 PRIMCOORD   8
    3  1
 H   -0.8243343408    0.0000000000    0.0000000000   -0.0002646736    0.0000000000    0.0000000000
 H    0.0000000000    0.0000000000    0.0000000000    0.0000000000    0.0000000000    0.0000000000
 H    2.4165926535    0.0000000000    0.0000000000    0.0006804543    0.0000000000    0.0000000000
