 ANIMSTEPS   7
 CRYSTAL 
 PRIMVEC 
  6.3501240000  0.0000000000  0.0000000000
  0.0000000000  2.6458850000  0.0000000000
  0.0000000000  0.0000000000  2.6458850000
 PRIMCOORD   1
    3  1
 H   -2.4165926535    0.0000000000    0.0000000000   -0.0006811599    0.0000000000    0.0000000000
 H    0.0000000000    0.0000000000    0.0000000000    0.0000000000    0.0000000000    0.0000000000
 H    0.8243343408    0.0000000000    0.0000000000    0.0002656877    0.0000000000    0.0000000000
 PRIMCOORD   2
    3  1
 H   -1.8713888045    0.0000000000    0.0000000000   -0.0048279662    0.0000000000    0.0000000000
 H    0.0000000000    0.0000000000    0.0000000000    0.0000000000    0.0000000000    0.0000000000
 H    0.8349250460    0.0000000000    0.0000000000   -0.0011171105    0.0000000000    0.0000000000
 PRIMCOORD   3
    3  1
 H   -1.4065329055    0.0000000000    0.0000000000   -0.0086938012    0.0000000000    0.0000000000
 H    0.0000000000    0.0000000000    0.0000000000    0.0000000000    0.0000000000    0.0000000000
 H    0.8817999060    0.0000000000    0.0000000000   -0.0052414324    0.0000000000    0.0000000000
 PRIMCOORD   4
    3  1
 H   -1.0523725513    0.0000000000    0.0000000000    0.0005508681    0.0000000000    0.0000000000
 H    0.0000000000    0.0000000000    0.0000000000    0.0000000000    0.0000000000    0.0000000000
 H    1.0523718565    0.0000000000    0.0000000000   -0.0005508681    0.0000000000    0.0000000000
 PRIMCOORD   5
    3  1
 H   -0.8818000607    0.0000000000    0.0000000000    0.0052414446    0.0000000000    0.0000000000
 H    0.0000000000    0.0000000000    0.0000000000    0.0000000000    0.0000000000    0.0000000000
 H    1.4065322116    0.0000000000    0.0000000000    0.0086937976    0.0000000000    0.0000000000
 PRIMCOORD   6
    3  1
 H   -0.8349250622    0.0000000000    0.0000000000    0.0011171116    0.0000000000    0.0000000000
 H    0.0000000000    0.0000000000    0.0000000000    0.0000000000    0.0000000000    0.0000000000
 H    1.8713883561    0.0000000000    0.0000000000    0.0048279724    0.0000000000    0.0000000000
 PRIMCOORD   7
    3  1
 H   -0.8243343408    0.0000000000    0.0000000000   -0.0002655058    0.0000000000    0.0000000000
 H    0.0000000000    0.0000000000    0.0000000000    0.0000000000    0.0000000000    0.0000000000
 H    2.4165926535    0.0000000000    0.0000000000    0.0006816013    0.0000000000    0.0000000000
