 ANIMSTEPS   7
 CRYSTAL 
 PRIMVEC 
  6.3501265296  0.0000000000  0.0000000000
  0.0000000000  2.6458860540  0.0000000000
  0.0000000000  0.0000000000  2.6458860540
 PRIMCOORD   1
    3  1
 H   -2.4165936162    0.0000000000    0.0000000000   -0.0003707419    0.0000000000    0.0000000000
 H    0.0000000000    0.0000000000    0.0000000000    0.0000000000    0.0000000000    0.0000000000
 H    0.8243346691    0.0000000000    0.0000000000    0.0001126309    0.0000000000    0.0000000000
 PRIMCOORD   2
    3  1
 H   -1.8714193622    0.0000000000    0.0000000000   -0.0048328100    0.0000000000    0.0000000000
 H    0.0000000000    0.0000000000    0.0000000000    0.0000000000    0.0000000000    0.0000000000
 H    0.8349176584    0.0000000000    0.0000000000   -0.0011100847    0.0000000000    0.0000000000
 PRIMCOORD   3
    3  1
 H   -1.4065807475    0.0000000000    0.0000000000   -0.0087021988    0.0000000000    0.0000000000
 H    0.0000000000    0.0000000000    0.0000000000    0.0000000000    0.0000000000    0.0000000000
 H    0.8818314631    0.0000000000    0.0000000000   -0.0052611388    0.0000000000    0.0000000000
 PRIMCOORD   4
    3  1
 H   -1.0524520046    0.0000000000    0.0000000000    0.0005797131    0.0000000000    0.0000000000
 H    0.0000000000    0.0000000000    0.0000000000    0.0000000000    0.0000000000    0.0000000000
 H    1.0524513524    0.0000000000    0.0000000000   -0.0005797131    0.0000000000    0.0000000000
 PRIMCOORD   5
    3  1
 H   -0.8818316084    0.0000000000    0.0000000000    0.0052611504    0.0000000000    0.0000000000
 H    0.0000000000    0.0000000000    0.0000000000    0.0000000000    0.0000000000    0.0000000000
 H    1.4065800960    0.0000000000    0.0000000000    0.0087021953    0.0000000000    0.0000000000
 PRIMCOORD   6
    3  1
 H   -0.8349176741    0.0000000000    0.0000000000    0.0011100861    0.0000000000    0.0000000000
 H    0.0000000000    0.0000000000    0.0000000000    0.0000000000    0.0000000000    0.0000000000
 H    1.8714189417    0.0000000000    0.0000000000    0.0048328158    0.0000000000    0.0000000000
 PRIMCOORD   7
    3  1
 H   -0.8243346691    0.0000000000    0.0000000000   -0.0001127386    0.0000000000    0.0000000000
 H    0.0000000000    0.0000000000    0.0000000000    0.0000000000    0.0000000000    0.0000000000
 H    2.4165936162    0.0000000000    0.0000000000    0.0003713966    0.0000000000    0.0000000000
