 ANIMSTEPS   7
 CRYSTAL 
 PRIMVEC 
  6.3501240000  0.0000000000  0.0000000000
  0.0000000000  2.6458850000  0.0000000000
  0.0000000000  0.0000000000  2.6458850000
 PRIMCOORD   1
    3  1
 H   -2.4271258781    0.0000000000    0.0000000000   -0.0007511133    0.0000000000    0.0000000000
 H    0.0000000000    0.0000000000    0.0000000000    0.0000000000    0.0000000000    0.0000000000
 H    0.8280833215    0.0000000000    0.0000000000    0.0002673359    0.0000000000    0.0000000000
 PRIMCOORD   2
    3  1
 H   -1.8641344942    0.0000000000    0.0000000000   -0.0048726294    0.0000000000    0.0000000000
 H    0.0000000000    0.0000000000    0.0000000000    0.0000000000    0.0000000000    0.0000000000
 H    0.8354166583    0.0000000000    0.0000000000   -0.0013409159    0.0000000000    0.0000000000
 PRIMCOORD   3
    3  1
 H   -1.4012524600    0.0000000000    0.0000000000   -0.0091122490    0.0000000000    0.0000000000
 H    0.0000000000    0.0000000000    0.0000000000    0.0000000000    0.0000000000    0.0000000000
 H    0.8788474833    0.0000000000    0.0000000000   -0.0030247483    0.0000000000    0.0000000000
 PRIMCOORD   4
    3  1
 H   -1.0511870125    0.0000000000    0.0000000000    0.0001023660    0.0000000000    0.0000000000
 H    0.0000000000    0.0000000000    0.0000000000    0.0000000000    0.0000000000    0.0000000000
 H    1.0511608939    0.0000000000    0.0000000000   -0.0001023660    0.0000000000    0.0000000000
 PRIMCOORD   5
    3  1
 H   -0.8788665293    0.0000000000    0.0000000000    0.0030286731    0.0000000000    0.0000000000
 H    0.0000000000    0.0000000000    0.0000000000    0.0000000000    0.0000000000    0.0000000000
 H    1.4011887098    0.0000000000    0.0000000000    0.0091115012    0.0000000000    0.0000000000
 PRIMCOORD   6
    3  1
 H   -0.8354278899    0.0000000000    0.0000000000    0.0013447077    0.0000000000    0.0000000000
 H    0.0000000000    0.0000000000    0.0000000000    0.0000000000    0.0000000000    0.0000000000
 H    1.8639629654    0.0000000000    0.0000000000    0.0048753989    0.0000000000    0.0000000000
 PRIMCOORD   7
    3  1
 H   -0.8279182041    0.0000000000    0.0000000000   -0.0002555616    0.0000000000    0.0000000000
 H    0.0000000000    0.0000000000    0.0000000000    0.0000000000    0.0000000000    0.0000000000
 H    2.4267290048    0.0000000000    0.0000000000    0.0007228127    0.0000000000    0.0000000000
