 ANIMSTEPS   7
 CRYSTAL 
 PRIMVEC 
  6.3501240000  0.0000000000  0.0000000000
  0.0000000000  2.6458850000  0.0000000000
  0.0000000000  0.0000000000  2.6458850000
 PRIMCOORD   1
    3  1
 H   -2.4165926535    0.0000000000    0.0000000000   -0.0006807877    0.0000000000    0.0000000000
 H    0.0000000000    0.0000000000    0.0000000000    0.0000000000    0.0000000000    0.0000000000
 H    0.8243343408    0.0000000000    0.0000000000    0.0002405730    0.0000000000    0.0000000000
 PRIMCOORD   2
    3  1
 H   -1.8724314047    0.0000000000    0.0000000000   -0.0048285346    0.0000000000    0.0000000000
 H    0.0000000000    0.0000000000    0.0000000000    0.0000000000    0.0000000000    0.0000000000
 H    0.8333940227    0.0000000000    0.0000000000    0.0000530714    0.0000000000    0.0000000000
 PRIMCOORD   3
    3  1
 H   -1.4258735766    0.0000000000    0.0000000000   -0.0088336356    0.0000000000    0.0000000000
 H    0.0000000000    0.0000000000    0.0000000000    0.0000000000    0.0000000000    0.0000000000
 H    0.8768392226    0.0000000000    0.0000000000   -0.0044553513    0.0000000000    0.0000000000
 PRIMCOORD   4
    3  1
 H   -1.0554678153    0.0000000000    0.0000000000    0.0016614596    0.0000000000    0.0000000000
 H    0.0000000000    0.0000000000    0.0000000000    0.0000000000    0.0000000000    0.0000000000
 H    1.0554637332    0.0000000000    0.0000000000   -0.0016614596    0.0000000000    0.0000000000
 PRIMCOORD   5
    3  1
 H   -0.8768586041    0.0000000000    0.0000000000    0.0044699478    0.0000000000    0.0000000000
 H    0.0000000000    0.0000000000    0.0000000000    0.0000000000    0.0000000000    0.0000000000
 H    1.4258704338    0.0000000000    0.0000000000    0.0088288469    0.0000000000    0.0000000000
 PRIMCOORD   6
    3  1
 H   -0.8333943718    0.0000000000    0.0000000000   -0.0000528972    0.0000000000    0.0000000000
 H    0.0000000000    0.0000000000    0.0000000000    0.0000000000    0.0000000000    0.0000000000
 H    1.8724274699    0.0000000000    0.0000000000    0.0048285867    0.0000000000    0.0000000000
 PRIMCOORD   7
    3  1
 H   -0.8243343408    0.0000000000    0.0000000000   -0.0002399109    0.0000000000    0.0000000000
 H    0.0000000000    0.0000000000    0.0000000000    0.0000000000    0.0000000000    0.0000000000
 H    2.4165926535    0.0000000000    0.0000000000    0.0006795339    0.0000000000    0.0000000000
