 ANIMSTEPS   7
 CRYSTAL 
 PRIMVEC 
  6.3501240000  0.0000000000  0.0000000000
  0.0000000000  2.6458850000  0.0000000000
  0.0000000000  0.0000000000  2.6458850000
 PRIMCOORD   1
    3  1
 H   -2.4165926535    0.0000000000    0.0000000000   -0.0003957521    0.0000000000    0.0000000000
 H    0.0000000000    0.0000000000    0.0000000000    0.0000000000    0.0000000000    0.0000000000
 H    0.8243343408    0.0000000000    0.0000000000    0.0001472440    0.0000000000    0.0000000000
 PRIMCOORD   2
    3  1
 H   -1.8711254369    0.0000000000    0.0000000000   -0.0046418989    0.0000000000    0.0000000000
 H    0.0000000000    0.0000000000    0.0000000000    0.0000000000    0.0000000000    0.0000000000
 H    0.8329776260    0.0000000000    0.0000000000    0.0003556981    0.0000000000    0.0000000000
 PRIMCOORD   3
    3  1
 H   -1.4026525296    0.0000000000    0.0000000000   -0.0099741894    0.0000000000    0.0000000000
 H    0.0000000000    0.0000000000    0.0000000000    0.0000000000    0.0000000000    0.0000000000
 H    0.8815560605    0.0000000000    0.0000000000   -0.0040689839    0.0000000000    0.0000000000
 PRIMCOORD   4
    3  1
 H   -1.0484785582    0.0000000000    0.0000000000   -0.0001740556    0.0000000000    0.0000000000
 H    0.0000000000    0.0000000000    0.0000000000    0.0000000000    0.0000000000    0.0000000000
 H    1.0480147373    0.0000000000    0.0000000000    0.0001561120    0.0000000000    0.0000000000
 PRIMCOORD   5
    3  1
 H   -0.8817228110    0.0000000000    0.0000000000    0.0040985987    0.0000000000    0.0000000000
 H    0.0000000000    0.0000000000    0.0000000000    0.0000000000    0.0000000000    0.0000000000
 H    1.4020877926    0.0000000000    0.0000000000    0.0099686723    0.0000000000    0.0000000000
 PRIMCOORD   6
    3  1
 H   -0.8329778110    0.0000000000    0.0000000000   -0.0003621977    0.0000000000    0.0000000000
 H    0.0000000000    0.0000000000    0.0000000000    0.0000000000    0.0000000000    0.0000000000
 H    1.8708109324    0.0000000000    0.0000000000    0.0046536023    0.0000000000    0.0000000000
 PRIMCOORD   7
    3  1
 H   -0.8243343408    0.0000000000    0.0000000000    0.0001336157    0.0000000000    0.0000000000
 H    0.0000000000    0.0000000000    0.0000000000    0.0000000000    0.0000000000    0.0000000000
 H    2.4165926535    0.0000000000    0.0000000000    0.0004170272    0.0000000000    0.0000000000
