 ANIMSTEPS   7
 CRYSTAL 
 PRIMVEC 
  6.3501240000  0.0000000000  0.0000000000
  0.0000000000  2.6458850000  0.0000000000
  0.0000000000  0.0000000000  2.6458850000
 PRIMCOORD   1
    3  1
 H   -2.4165926535    0.0000000000    0.0000000000   -0.0006811599    0.0000000000    0.0000000000
 H    0.0000000000    0.0000000000    0.0000000000    0.0000000000    0.0000000000    0.0000000000
 H    0.8243343408    0.0000000000    0.0000000000    0.0002656877    0.0000000000    0.0000000000
 PRIMCOORD   2
    3  1
 H   -1.8740224970    0.0000000000    0.0000000000   -0.0047930861    0.0000000000    0.0000000000
 H    0.0000000000    0.0000000000    0.0000000000    0.0000000000    0.0000000000    0.0000000000
 H    0.8343149648    0.0000000000    0.0000000000   -0.0007154650    0.0000000000    0.0000000000
 PRIMCOORD   3
    3  1
 H   -1.4096976022    0.0000000000    0.0000000000   -0.0085870170    0.0000000000    0.0000000000
 H    0.0000000000    0.0000000000    0.0000000000    0.0000000000    0.0000000000    0.0000000000
 H    0.8820765250    0.0000000000    0.0000000000   -0.0057585451    0.0000000000    0.0000000000
 PRIMCOORD   4
    3  1
 H   -1.0571190099    0.0000000000    0.0000000000    0.0022406679    0.0000000000    0.0000000000
 H    0.0000000000    0.0000000000    0.0000000000    0.0000000000    0.0000000000    0.0000000000
 H    1.0571189544    0.0000000000    0.0000000000   -0.0022406679    0.0000000000    0.0000000000
 PRIMCOORD   5
    3  1
 H   -0.8820765287    0.0000000000    0.0000000000    0.0057585410    0.0000000000    0.0000000000
 H    0.0000000000    0.0000000000    0.0000000000    0.0000000000    0.0000000000    0.0000000000
 H    1.4096975455    0.0000000000    0.0000000000    0.0085870177    0.0000000000    0.0000000000
 PRIMCOORD   6
    3  1
 H   -0.8343149668    0.0000000000    0.0000000000    0.0007154652    0.0000000000    0.0000000000
 H    0.0000000000    0.0000000000    0.0000000000    0.0000000000    0.0000000000    0.0000000000
 H    1.8740224421    0.0000000000    0.0000000000    0.0047930868    0.0000000000    0.0000000000
 PRIMCOORD   7
    3  1
 H   -0.8243343408    0.0000000000    0.0000000000   -0.0002655058    0.0000000000    0.0000000000
 H    0.0000000000    0.0000000000    0.0000000000    0.0000000000    0.0000000000    0.0000000000
 H    2.4165926535    0.0000000000    0.0000000000    0.0006816013    0.0000000000    0.0000000000
