 ANIMSTEPS   7
 CRYSTAL 
 PRIMVEC 
  6.3501265296  0.0000000000  0.0000000000
  0.0000000000  2.6458860540  0.0000000000
  0.0000000000  0.0000000000  2.6458860540
 PRIMCOORD   1
    3  1
 H   -2.4165936162    0.0000000000    0.0000000000   -0.0003707419    0.0000000000    0.0000000000
 H    0.0000000000    0.0000000000    0.0000000000    0.0000000000    0.0000000000    0.0000000000
 H    0.8243346691    0.0000000000    0.0000000000    0.0001126309    0.0000000000    0.0000000000
 PRIMCOORD   2
    3  1
 H   -1.8714177912    0.0000000000    0.0000000000   -0.0048328254    0.0000000000    0.0000000000
 H    0.0000000000    0.0000000000    0.0000000000    0.0000000000    0.0000000000    0.0000000000
 H    0.8349177858    0.0000000000    0.0000000000   -0.0011101481    0.0000000000    0.0000000000
 PRIMCOORD   3
    3  1
 H   -1.4065789227    0.0000000000    0.0000000000   -0.0087023575    0.0000000000    0.0000000000
 H    0.0000000000    0.0000000000    0.0000000000    0.0000000000    0.0000000000    0.0000000000
 H    0.8818303034    0.0000000000    0.0000000000   -0.0052603034    0.0000000000    0.0000000000
 PRIMCOORD   4
    3  1
 H   -1.0524496480    0.0000000000    0.0000000000    0.0005788627    0.0000000000    0.0000000000
 H    0.0000000000    0.0000000000    0.0000000000    0.0000000000    0.0000000000    0.0000000000
 H    1.0524489959    0.0000000000    0.0000000000   -0.0005788627    0.0000000000    0.0000000000
 PRIMCOORD   5
    3  1
 H   -0.8818304487    0.0000000000    0.0000000000    0.0052603149    0.0000000000    0.0000000000
 H    0.0000000000    0.0000000000    0.0000000000    0.0000000000    0.0000000000    0.0000000000
 H    1.4065782712    0.0000000000    0.0000000000    0.0087023541    0.0000000000    0.0000000000
 PRIMCOORD   6
    3  1
 H   -0.8349178015    0.0000000000    0.0000000000    0.0011101495    0.0000000000    0.0000000000
 H    0.0000000000    0.0000000000    0.0000000000    0.0000000000    0.0000000000    0.0000000000
 H    1.8714173707    0.0000000000    0.0000000000    0.0048328312    0.0000000000    0.0000000000
 PRIMCOORD   7
    3  1
 H   -0.8243346691    0.0000000000    0.0000000000   -0.0001127386    0.0000000000    0.0000000000
 H    0.0000000000    0.0000000000    0.0000000000    0.0000000000    0.0000000000    0.0000000000
 H    2.4165936162    0.0000000000    0.0000000000    0.0003713966    0.0000000000    0.0000000000
