 ANIMSTEPS   7
 CRYSTAL 
 PRIMVEC 
  6.3501240000  0.0000000000  0.0000000000
  0.0000000000  2.6458850000  0.0000000000
  0.0000000000  0.0000000000  2.6458850000
 PRIMCOORD   1
    3  1
 H   -2.4165926535    0.0000000000    0.0000000000   -0.0006812278    0.0000000000    0.0000000000
 H    0.0000000000    0.0000000000    0.0000000000    0.0000000000    0.0000000000    0.0000000000
 H    0.8243343408    0.0000000000    0.0000000000    0.0002656959    0.0000000000    0.0000000000
 PRIMCOORD   2
    3  1
 H   -1.8607311268    0.0000000000    0.0000000000   -0.0050329003    0.0000000000    0.0000000000
 H    0.0000000000    0.0000000000    0.0000000000    0.0000000000    0.0000000000    0.0000000000
 H    0.8332849091    0.0000000000    0.0000000000    0.0004612322    0.0000000000    0.0000000000
 PRIMCOORD   3
    3  1
 H   -1.3982891419    0.0000000000    0.0000000000   -0.0085427283    0.0000000000    0.0000000000
 H    0.0000000000    0.0000000000    0.0000000000    0.0000000000    0.0000000000    0.0000000000
 H    0.8847281510    0.0000000000    0.0000000000   -0.0059595566    0.0000000000    0.0000000000
 PRIMCOORD   4
    3  1
 H   -1.0537666648    0.0000000000    0.0000000000    0.0010475017    0.0000000000    0.0000000000
 H    0.0000000000    0.0000000000    0.0000000000    0.0000000000    0.0000000000    0.0000000000
 H    1.0537666702    0.0000000000    0.0000000000   -0.0010475017    0.0000000000    0.0000000000
 PRIMCOORD   5
    3  1
 H   -0.8847281506    0.0000000000    0.0000000000    0.0059595571    0.0000000000    0.0000000000
 H    0.0000000000    0.0000000000    0.0000000000    0.0000000000    0.0000000000    0.0000000000
 H    1.3982891488    0.0000000000    0.0000000000    0.0085427284    0.0000000000    0.0000000000
 PRIMCOORD   6
    3  1
 H   -0.8332849236    0.0000000000    0.0000000000   -0.0004612206    0.0000000000    0.0000000000
 H    0.0000000000    0.0000000000    0.0000000000    0.0000000000    0.0000000000    0.0000000000
 H    1.8607311356    0.0000000000    0.0000000000    0.0050329000    0.0000000000    0.0000000000
 PRIMCOORD   7
    3  1
 H   -0.8243343408    0.0000000000    0.0000000000   -0.0002654673    0.0000000000    0.0000000000
 H    0.0000000000    0.0000000000    0.0000000000    0.0000000000    0.0000000000    0.0000000000
 H    2.4165926535    0.0000000000    0.0000000000    0.0006816882    0.0000000000    0.0000000000
