 ANIMSTEPS   7
 CRYSTAL 
 PRIMVEC 
  6.3501240000  0.0000000000  0.0000000000
  0.0000000000  2.6458850000  0.0000000000
  0.0000000000  0.0000000000  2.6458850000
 PRIMCOORD   1
    3  1
 H   -2.4165926535    0.0000000000    0.0000000000   -0.0006812278    0.0000000000    0.0000000000
 H    0.0000000000    0.0000000000    0.0000000000    0.0000000000    0.0000000000    0.0000000000
 H    0.8243343408    0.0000000000    0.0000000000    0.0002656959    0.0000000000    0.0000000000
 PRIMCOORD   2
    3  1
 H   -1.8697869951    0.0000000000    0.0000000000   -0.0048670670    0.0000000000    0.0000000000
 H    0.0000000000    0.0000000000    0.0000000000    0.0000000000    0.0000000000    0.0000000000
 H    0.8338362478    0.0000000000    0.0000000000   -0.0002313510    0.0000000000    0.0000000000
 PRIMCOORD   3
    3  1
 H   -1.4065713627    0.0000000000    0.0000000000   -0.0087193633    0.0000000000    0.0000000000
 H    0.0000000000    0.0000000000    0.0000000000    0.0000000000    0.0000000000    0.0000000000
 H    0.8817330686    0.0000000000    0.0000000000   -0.0052016304    0.0000000000    0.0000000000
 PRIMCOORD   4
    3  1
 H   -1.0563312149    0.0000000000    0.0000000000    0.0019696309    0.0000000000    0.0000000000
 H    0.0000000000    0.0000000000    0.0000000000    0.0000000000    0.0000000000    0.0000000000
 H    1.0563312153    0.0000000000    0.0000000000   -0.0019696309    0.0000000000    0.0000000000
 PRIMCOORD   5
    3  1
 H   -0.8817330690    0.0000000000    0.0000000000    0.0052016308    0.0000000000    0.0000000000
 H    0.0000000000    0.0000000000    0.0000000000    0.0000000000    0.0000000000    0.0000000000
 H    1.4065713643    0.0000000000    0.0000000000    0.0087193633    0.0000000000    0.0000000000
 PRIMCOORD   6
    3  1
 H   -0.8338362472    0.0000000000    0.0000000000    0.0002313501    0.0000000000    0.0000000000
 H    0.0000000000    0.0000000000    0.0000000000    0.0000000000    0.0000000000    0.0000000000
 H    1.8697869975    0.0000000000    0.0000000000    0.0048670674    0.0000000000    0.0000000000
 PRIMCOORD   7
    3  1
 H   -0.8243343408    0.0000000000    0.0000000000   -0.0002654673    0.0000000000    0.0000000000
 H    0.0000000000    0.0000000000    0.0000000000    0.0000000000    0.0000000000    0.0000000000
 H    2.4165926535    0.0000000000    0.0000000000    0.0006816882    0.0000000000    0.0000000000
