 ANIMSTEPS   7
 CRYSTAL 
 PRIMVEC 
  6.3501240000  0.0000000000  0.0000000000
  0.0000000000  2.6458850000  0.0000000000
  0.0000000000  0.0000000000  2.6458850000
 PRIMCOORD   1
    3  1
 H   -2.4165926535    0.0000000000    0.0000000000   -0.0006798257    0.0000000000    0.0000000000
 H    0.0000000000    0.0000000000    0.0000000000    0.0000000000    0.0000000000    0.0000000000
 H    0.8243343408    0.0000000000    0.0000000000    0.0002636933    0.0000000000    0.0000000000
 PRIMCOORD   2
    3  1
 H   -1.8740211351    0.0000000000    0.0000000000   -0.0047931329    0.0000000000    0.0000000000
 H    0.0000000000    0.0000000000    0.0000000000    0.0000000000    0.0000000000    0.0000000000
 H    0.8343149830    0.0000000000    0.0000000000   -0.0007154297    0.0000000000    0.0000000000
 PRIMCOORD   3
    3  1
 H   -1.4096960814    0.0000000000    0.0000000000   -0.0085870568    0.0000000000    0.0000000000
 H    0.0000000000    0.0000000000    0.0000000000    0.0000000000    0.0000000000    0.0000000000
 H    0.8820764368    0.0000000000    0.0000000000   -0.0057583329    0.0000000000    0.0000000000
 PRIMCOORD   4
    3  1
 H   -1.0571170175    0.0000000000    0.0000000000    0.0022399775    0.0000000000    0.0000000000
 H    0.0000000000    0.0000000000    0.0000000000    0.0000000000    0.0000000000    0.0000000000
 H    1.0571170175    0.0000000000    0.0000000000   -0.0022399775    0.0000000000    0.0000000000
 PRIMCOORD   5
    3  1
 H   -0.8820764368    0.0000000000    0.0000000000    0.0057583329    0.0000000000    0.0000000000
 H    0.0000000000    0.0000000000    0.0000000000    0.0000000000    0.0000000000    0.0000000000
 H    1.4096960814    0.0000000000    0.0000000000    0.0085870568    0.0000000000    0.0000000000
 PRIMCOORD   6
    3  1
 H   -0.8343149830    0.0000000000    0.0000000000    0.0007154297    0.0000000000    0.0000000000
 H    0.0000000000    0.0000000000    0.0000000000    0.0000000000    0.0000000000    0.0000000000
 H    1.8740211351    0.0000000000    0.0000000000    0.0047931329    0.0000000000    0.0000000000
 PRIMCOORD   7
    3  1
 H   -0.8243343408    0.0000000000    0.0000000000   -0.0002636933    0.0000000000    0.0000000000
 H    0.0000000000    0.0000000000    0.0000000000    0.0000000000    0.0000000000    0.0000000000
 H    2.4165926535    0.0000000000    0.0000000000    0.0006798257    0.0000000000    0.0000000000
