 ANIMSTEPS   7
 CRYSTAL 
 PRIMVEC 
  6.3501265296  0.0000000000  0.0000000000
  0.0000000000  2.6458860540  0.0000000000
  0.0000000000  0.0000000000  2.6458860540
 PRIMCOORD   1
    3  1
 H   -2.4165936162    0.0000000000    0.0000000000   -0.0005169395    0.0000000000    0.0000000000
 H    0.0000000000    0.0000000000    0.0000000000    0.0000000000    0.0000000000    0.0000000000
 H    0.8243346691    0.0000000000    0.0000000000    0.0001316343    0.0000000000    0.0000000000
 PRIMCOORD   2
    3  1
 H   -1.8712339573    0.0000000000    0.0000000000   -0.0046554587    0.0000000000    0.0000000000
 H    0.0000000000    0.0000000000    0.0000000000    0.0000000000    0.0000000000    0.0000000000
 H    0.8331715733    0.0000000000    0.0000000000    0.0001864796    0.0000000000    0.0000000000
 PRIMCOORD   3
    3  1
 H   -1.4029100412    0.0000000000    0.0000000000   -0.0098567331    0.0000000000    0.0000000000
 H    0.0000000000    0.0000000000    0.0000000000    0.0000000000    0.0000000000    0.0000000000
 H    0.8817719045    0.0000000000    0.0000000000   -0.0042655138    0.0000000000    0.0000000000
 PRIMCOORD   4
    3  1
 H   -1.0492122997    0.0000000000    0.0000000000   -0.0005448531    0.0000000000    0.0000000000
 H    0.0000000000    0.0000000000    0.0000000000    0.0000000000    0.0000000000    0.0000000000
 H    1.0492528043    0.0000000000    0.0000000000    0.0005525958    0.0000000000    0.0000000000
 PRIMCOORD   5
    3  1
 H   -0.8817649388    0.0000000000    0.0000000000    0.0042658322    0.0000000000    0.0000000000
 H    0.0000000000    0.0000000000    0.0000000000    0.0000000000    0.0000000000    0.0000000000
 H    1.4029733599    0.0000000000    0.0000000000    0.0098675290    0.0000000000    0.0000000000
 PRIMCOORD   6
    3  1
 H   -0.8331675346    0.0000000000    0.0000000000   -0.0001869844    0.0000000000    0.0000000000
 H    0.0000000000    0.0000000000    0.0000000000    0.0000000000    0.0000000000    0.0000000000
 H    1.8713046573    0.0000000000    0.0000000000    0.0046539011    0.0000000000    0.0000000000
 PRIMCOORD   7
    3  1
 H   -0.8243346691    0.0000000000    0.0000000000   -0.0000058881    0.0000000000    0.0000000000
 H    0.0000000000    0.0000000000    0.0000000000    0.0000000000    0.0000000000    0.0000000000
 H    2.4165936162    0.0000000000    0.0000000000    0.0006807497    0.0000000000    0.0000000000
