 ANIMSTEPS   7
 CRYSTAL 
 PRIMVEC 
  6.3501240000  0.0000000000  0.0000000000
  0.0000000000  2.6458850000  0.0000000000
  0.0000000000  0.0000000000  2.6458850000
 PRIMCOORD   1
    3  1
 H   -2.4165926535    0.0000000000    0.0000000000   -0.0006811599    0.0000000000    0.0000000000
 H    0.0000000000    0.0000000000    0.0000000000    0.0000000000    0.0000000000    0.0000000000
 H    0.8243343408    0.0000000000    0.0000000000    0.0002656877    0.0000000000    0.0000000000
 PRIMCOORD   2
    3  1
 H   -1.8714185765    0.0000000000    0.0000000000   -0.0048278542    0.0000000000    0.0000000000
 H    0.0000000000    0.0000000000    0.0000000000    0.0000000000    0.0000000000    0.0000000000
 H    0.8349215382    0.0000000000    0.0000000000   -0.0011148741    0.0000000000    0.0000000000
 PRIMCOORD   3
    3  1
 H   -1.4065715545    0.0000000000    0.0000000000   -0.0086892012    0.0000000000    0.0000000000
 H    0.0000000000    0.0000000000    0.0000000000    0.0000000000    0.0000000000    0.0000000000
 H    0.8818341507    0.0000000000    0.0000000000   -0.0052647721    0.0000000000    0.0000000000
 PRIMCOORD   4
    3  1
 H   -1.0524403769    0.0000000000    0.0000000000    0.0005755015    0.0000000000    0.0000000000
 H    0.0000000000    0.0000000000    0.0000000000    0.0000000000    0.0000000000    0.0000000000
 H    1.0524403360    0.0000000000    0.0000000000   -0.0005755015    0.0000000000    0.0000000000
 PRIMCOORD   5
    3  1
 H   -0.8818341589    0.0000000000    0.0000000000    0.0052647720    0.0000000000    0.0000000000
 H    0.0000000000    0.0000000000    0.0000000000    0.0000000000    0.0000000000    0.0000000000
 H    1.4065715086    0.0000000000    0.0000000000    0.0086892009    0.0000000000    0.0000000000
 PRIMCOORD   6
    3  1
 H   -0.8349215401    0.0000000000    0.0000000000    0.0011148746    0.0000000000    0.0000000000
 H    0.0000000000    0.0000000000    0.0000000000    0.0000000000    0.0000000000    0.0000000000
 H    1.8714185372    0.0000000000    0.0000000000    0.0048278546    0.0000000000    0.0000000000
 PRIMCOORD   7
    3  1
 H   -0.8243343408    0.0000000000    0.0000000000   -0.0002655058    0.0000000000    0.0000000000
 H    0.0000000000    0.0000000000    0.0000000000    0.0000000000    0.0000000000    0.0000000000
 H    2.4165926535    0.0000000000    0.0000000000    0.0006816013    0.0000000000    0.0000000000
