 ANIMSTEPS   7
 CRYSTAL 
 PRIMVEC 
  6.3501240000  0.0000000000  0.0000000000
  0.0000000000  2.6458850000  0.0000000000
  0.0000000000  0.0000000000  2.6458850000
 PRIMCOORD   1
    3  1
 H   -2.4165926535    0.0000000000    0.0000000000   -0.0006811599    0.0000000000    0.0000000000
 H    0.0000000000    0.0000000000    0.0000000000    0.0000000000    0.0000000000    0.0000000000
 H    0.8243343408    0.0000000000    0.0000000000    0.0002656877    0.0000000000    0.0000000000
 PRIMCOORD   2
    3  1
 H   -1.9068119576    0.0000000000    0.0000000000   -0.0043353329    0.0000000000    0.0000000000
 H    0.0000000000    0.0000000000    0.0000000000    0.0000000000    0.0000000000    0.0000000000
 H    0.8331942315    0.0000000000    0.0000000000   -0.0006447899    0.0000000000    0.0000000000
 PRIMCOORD   3
    3  1
 H   -1.4251949213    0.0000000000    0.0000000000   -0.0086955660    0.0000000000    0.0000000000
 H    0.0000000000    0.0000000000    0.0000000000    0.0000000000    0.0000000000    0.0000000000
 H    0.8785522724    0.0000000000    0.0000000000   -0.0053423109    0.0000000000    0.0000000000
 PRIMCOORD   4
    3  1
 H   -1.0610594841    0.0000000000    0.0000000000    0.0036273926    0.0000000000    0.0000000000
 H    0.0000000000    0.0000000000    0.0000000000    0.0000000000    0.0000000000    0.0000000000
 H    1.0610592797    0.0000000000    0.0000000000   -0.0036273926    0.0000000000    0.0000000000
 PRIMCOORD   5
    3  1
 H   -0.8785523187    0.0000000000    0.0000000000    0.0053423124    0.0000000000    0.0000000000
 H    0.0000000000    0.0000000000    0.0000000000    0.0000000000    0.0000000000    0.0000000000
 H    1.4251946851    0.0000000000    0.0000000000    0.0086955660    0.0000000000    0.0000000000
 PRIMCOORD   6
    3  1
 H   -0.8331942343    0.0000000000    0.0000000000    0.0006447909    0.0000000000    0.0000000000
 H    0.0000000000    0.0000000000    0.0000000000    0.0000000000    0.0000000000    0.0000000000
 H    1.9068119172    0.0000000000    0.0000000000    0.0043353337    0.0000000000    0.0000000000
 PRIMCOORD   7
    3  1
 H   -0.8243343408    0.0000000000    0.0000000000   -0.0002655058    0.0000000000    0.0000000000
 H    0.0000000000    0.0000000000    0.0000000000    0.0000000000    0.0000000000    0.0000000000
 H    2.4165926535    0.0000000000    0.0000000000    0.0006816013    0.0000000000    0.0000000000
