 ANIMSTEPS   7
 CRYSTAL 
 PRIMVEC 
  6.3501240000  0.0000000000  0.0000000000
  0.0000000000  2.6458850000  0.0000000000
  0.0000000000  0.0000000000  2.6458850000
 PRIMCOORD   1
    3  1
 H   -2.4165926535    0.0000000000    0.0000000000   -0.0006725372    0.0000000000    0.0000000000
 H    0.0000000000    0.0000000000    0.0000000000    0.0000000000    0.0000000000    0.0000000000
 H    0.8243343408    0.0000000000    0.0000000000    0.0002419528    0.0000000000    0.0000000000
 PRIMCOORD   2
    3  1
 H   -1.8657976424    0.0000000000    0.0000000000   -0.0031299334    0.0000000000    0.0000000000
 H    0.0000000000    0.0000000000    0.0000000000    0.0000000000    0.0000000000    0.0000000000
 H    0.8345685135    0.0000000000    0.0000000000   -0.0005231083    0.0000000000    0.0000000000
 PRIMCOORD   3
    3  1
 H   -1.4027621797    0.0000000000    0.0000000000    0.0008498887    0.0000000000    0.0000000000
 H    0.0000000000    0.0000000000    0.0000000000    0.0000000000    0.0000000000    0.0000000000
 H    0.8836448342    0.0000000000    0.0000000000   -0.0013920147    0.0000000000    0.0000000000
 PRIMCOORD   4
    3  1
 H   -1.0508413375    0.0000000000    0.0000000000   -0.0002320955    0.0000000000    0.0000000000
 H    0.0000000000    0.0000000000    0.0000000000    0.0000000000    0.0000000000    0.0000000000
 H    1.0510955702    0.0000000000    0.0000000000   -0.0003250192    0.0000000000    0.0000000000
 PRIMCOORD   5
    3  1
 H   -0.8850513867    0.0000000000    0.0000000000    0.0025432250    0.0000000000    0.0000000000
 H    0.0000000000    0.0000000000    0.0000000000    0.0000000000    0.0000000000    0.0000000000
 H    1.4035595665    0.0000000000    0.0000000000   -0.0004925235    0.0000000000    0.0000000000
 PRIMCOORD   6
    3  1
 H   -0.8343240303    0.0000000000    0.0000000000    0.0001549334    0.0000000000    0.0000000000
 H    0.0000000000    0.0000000000    0.0000000000    0.0000000000    0.0000000000    0.0000000000
 H    1.8666660378    0.0000000000    0.0000000000    0.0013898704    0.0000000000    0.0000000000
 PRIMCOORD   7
    3  1
 H   -0.8243343408    0.0000000000    0.0000000000   -0.0002418977    0.0000000000    0.0000000000
 H    0.0000000000    0.0000000000    0.0000000000    0.0000000000    0.0000000000    0.0000000000
 H    2.4165926535    0.0000000000    0.0000000000    0.0006724523    0.0000000000    0.0000000000
