 ANIMSTEPS   7
 CRYSTAL 
 PRIMVEC 
  6.3501265296  0.0000000000  0.0000000000
  0.0000000000  2.6458860540  0.0000000000
  0.0000000000  0.0000000000  2.6458860540
 PRIMCOORD   1
    3  1
 H   -2.4165936162    0.0000000000    0.0000000000   -0.0005169395    0.0000000000    0.0000000000
 H    0.0000000000    0.0000000000    0.0000000000    0.0000000000    0.0000000000    0.0000000000
 H    0.8243346691    0.0000000000    0.0000000000    0.0001316343    0.0000000000    0.0000000000
 PRIMCOORD   2
    3  1
 H   -1.8712339566    0.0000000000    0.0000000000   -0.0046554588    0.0000000000    0.0000000000
 H    0.0000000000    0.0000000000    0.0000000000    0.0000000000    0.0000000000    0.0000000000
 H    0.8331715727    0.0000000000    0.0000000000    0.0001864805    0.0000000000    0.0000000000
 PRIMCOORD   3
    3  1
 H   -1.4029100401    0.0000000000    0.0000000000   -0.0098567333    0.0000000000    0.0000000000
 H    0.0000000000    0.0000000000    0.0000000000    0.0000000000    0.0000000000    0.0000000000
 H    0.8817719041    0.0000000000    0.0000000000   -0.0042655134    0.0000000000    0.0000000000
 PRIMCOORD   4
    3  1
 H   -1.0492122977    0.0000000000    0.0000000000   -0.0005448540    0.0000000000    0.0000000000
 H    0.0000000000    0.0000000000    0.0000000000    0.0000000000    0.0000000000    0.0000000000
 H    1.0492528017    0.0000000000    0.0000000000    0.0005525967    0.0000000000    0.0000000000
 PRIMCOORD   5
    3  1
 H   -0.8817649384    0.0000000000    0.0000000000    0.0042658317    0.0000000000    0.0000000000
 H    0.0000000000    0.0000000000    0.0000000000    0.0000000000    0.0000000000    0.0000000000
 H    1.4029733581    0.0000000000    0.0000000000    0.0098675293    0.0000000000    0.0000000000
 PRIMCOORD   6
    3  1
 H   -0.8331675340    0.0000000000    0.0000000000   -0.0001869850    0.0000000000    0.0000000000
 H    0.0000000000    0.0000000000    0.0000000000    0.0000000000    0.0000000000    0.0000000000
 H    1.8713046562    0.0000000000    0.0000000000    0.0046539011    0.0000000000    0.0000000000
 PRIMCOORD   7
    3  1
 H   -0.8243346691    0.0000000000    0.0000000000   -0.0000058881    0.0000000000    0.0000000000
 H    0.0000000000    0.0000000000    0.0000000000    0.0000000000    0.0000000000    0.0000000000
 H    2.4165936162    0.0000000000    0.0000000000    0.0006807497    0.0000000000    0.0000000000
