 ANIMSTEPS   7
 CRYSTAL 
 PRIMVEC 
  6.3501265296  0.0000000000  0.0000000000
  0.0000000000  2.6458860540  0.0000000000
  0.0000000000  0.0000000000  2.6458860540
 PRIMCOORD   1
    3  1
 H   -2.4165936162    0.0000000000    0.0000000000   -0.0003707419    0.0000000000    0.0000000000
 H    0.0000000000    0.0000000000    0.0000000000    0.0000000000    0.0000000000    0.0000000000
 H    0.8243346691    0.0000000000    0.0000000000    0.0001126309    0.0000000000    0.0000000000
 PRIMCOORD   2
    3  1
 H   -1.8714275168    0.0000000000    0.0000000000   -0.0048262060    0.0000000000    0.0000000000
 H    0.0000000000    0.0000000000    0.0000000000    0.0000000000    0.0000000000    0.0000000000
 H    0.8349216760    0.0000000000    0.0000000000   -0.0011170659    0.0000000000    0.0000000000
 PRIMCOORD   3
    3  1
 H   -1.4065850663    0.0000000000    0.0000000000   -0.0086895963    0.0000000000    0.0000000000
 H    0.0000000000    0.0000000000    0.0000000000    0.0000000000    0.0000000000    0.0000000000
 H    0.8818375069    0.0000000000    0.0000000000   -0.0052673232    0.0000000000    0.0000000000
 PRIMCOORD   4
    3  1
 H   -1.0524636032    0.0000000000    0.0000000000    0.0005834106    0.0000000000    0.0000000000
 H    0.0000000000    0.0000000000    0.0000000000    0.0000000000    0.0000000000    0.0000000000
 H    1.0524629391    0.0000000000    0.0000000000   -0.0005834106    0.0000000000    0.0000000000
 PRIMCOORD   5
    3  1
 H   -0.8818376548    0.0000000000    0.0000000000    0.0052673348    0.0000000000    0.0000000000
 H    0.0000000000    0.0000000000    0.0000000000    0.0000000000    0.0000000000    0.0000000000
 H    1.4065844028    0.0000000000    0.0000000000    0.0086895929    0.0000000000    0.0000000000
 PRIMCOORD   6
    3  1
 H   -0.8349216923    0.0000000000    0.0000000000    0.0011170674    0.0000000000    0.0000000000
 H    0.0000000000    0.0000000000    0.0000000000    0.0000000000    0.0000000000    0.0000000000
 H    1.8714270885    0.0000000000    0.0000000000    0.0048262122    0.0000000000    0.0000000000
 PRIMCOORD   7
    3  1
 H   -0.8243346691    0.0000000000    0.0000000000   -0.0001127386    0.0000000000    0.0000000000
 H    0.0000000000    0.0000000000    0.0000000000    0.0000000000    0.0000000000    0.0000000000
 H    2.4165936162    0.0000000000    0.0000000000    0.0003713966    0.0000000000    0.0000000000
