 ANIMSTEPS   7
 CRYSTAL 
 PRIMVEC 
  6.3501240000  0.0000000000  0.0000000000
  0.0000000000  2.6458850000  0.0000000000
  0.0000000000  0.0000000000  2.6458850000
 PRIMCOORD   1
    3  1
 H   -2.4165926535    0.0000000000    0.0000000000   -0.0006811599    0.0000000000    0.0000000000
 H    0.0000000000    0.0000000000    0.0000000000    0.0000000000    0.0000000000    0.0000000000
 H    0.8243343408    0.0000000000    0.0000000000    0.0002656877    0.0000000000    0.0000000000
 PRIMCOORD   2
    3  1
 H   -1.8713891113    0.0000000000    0.0000000000   -0.0048274602    0.0000000000    0.0000000000
 H    0.0000000000    0.0000000000    0.0000000000    0.0000000000    0.0000000000    0.0000000000
 H    0.8349241934    0.0000000000    0.0000000000   -0.0011169309    0.0000000000    0.0000000000
 PRIMCOORD   3
    3  1
 H   -1.4065340332    0.0000000000    0.0000000000   -0.0086996879    0.0000000000    0.0000000000
 H    0.0000000000    0.0000000000    0.0000000000    0.0000000000    0.0000000000    0.0000000000
 H    0.8818008742    0.0000000000    0.0000000000   -0.0052445672    0.0000000000    0.0000000000
 PRIMCOORD   4
    3  1
 H   -1.0523759732    0.0000000000    0.0000000000    0.0005519950    0.0000000000    0.0000000000
 H    0.0000000000    0.0000000000    0.0000000000    0.0000000000    0.0000000000    0.0000000000
 H    1.0523752787    0.0000000000    0.0000000000   -0.0005519950    0.0000000000    0.0000000000
 PRIMCOORD   5
    3  1
 H   -0.8818010289    0.0000000000    0.0000000000    0.0052445794    0.0000000000    0.0000000000
 H    0.0000000000    0.0000000000    0.0000000000    0.0000000000    0.0000000000    0.0000000000
 H    1.4065333394    0.0000000000    0.0000000000    0.0086996844    0.0000000000    0.0000000000
 PRIMCOORD   6
    3  1
 H   -0.8349242101    0.0000000000    0.0000000000    0.0011169322    0.0000000000    0.0000000000
 H    0.0000000000    0.0000000000    0.0000000000    0.0000000000    0.0000000000    0.0000000000
 H    1.8713886630    0.0000000000    0.0000000000    0.0048274665    0.0000000000    0.0000000000
 PRIMCOORD   7
    3  1
 H   -0.8243343408    0.0000000000    0.0000000000   -0.0002655058    0.0000000000    0.0000000000
 H    0.0000000000    0.0000000000    0.0000000000    0.0000000000    0.0000000000    0.0000000000
 H    2.4165926535    0.0000000000    0.0000000000    0.0006816013    0.0000000000    0.0000000000
