 ANIMSTEPS   7
 CRYSTAL 
 PRIMVEC 
  6.3501240000  0.0000000000  0.0000000000
  0.0000000000  2.6458850000  0.0000000000
  0.0000000000  0.0000000000  2.6458850000
 PRIMCOORD   1
    3  1
 H   -2.4165926535    0.0000000000    0.0000000000   -0.0006812278    0.0000000000    0.0000000000
 H    0.0000000000    0.0000000000    0.0000000000    0.0000000000    0.0000000000    0.0000000000
 H    0.8243343408    0.0000000000    0.0000000000    0.0002656959    0.0000000000    0.0000000000
 PRIMCOORD   2
    3  1
 H   -1.9068115547    0.0000000000    0.0000000000   -0.0043353350    0.0000000000    0.0000000000
 H    0.0000000000    0.0000000000    0.0000000000    0.0000000000    0.0000000000    0.0000000000
 H    0.8331942651    0.0000000000    0.0000000000   -0.0006448089    0.0000000000    0.0000000000
 PRIMCOORD   3
    3  1
 H   -1.4251930183    0.0000000000    0.0000000000   -0.0086955809    0.0000000000    0.0000000000
 H    0.0000000000    0.0000000000    0.0000000000    0.0000000000    0.0000000000    0.0000000000
 H    0.8785526886    0.0000000000    0.0000000000   -0.0053423247    0.0000000000    0.0000000000
 PRIMCOORD   4
    3  1
 H   -1.0610602453    0.0000000000    0.0000000000    0.0036276838    0.0000000000    0.0000000000
 H    0.0000000000    0.0000000000    0.0000000000    0.0000000000    0.0000000000    0.0000000000
 H    1.0610601969    0.0000000000    0.0000000000   -0.0036276838    0.0000000000    0.0000000000
 PRIMCOORD   5
    3  1
 H   -0.8785526943    0.0000000000    0.0000000000    0.0053423244    0.0000000000    0.0000000000
 H    0.0000000000    0.0000000000    0.0000000000    0.0000000000    0.0000000000    0.0000000000
 H    1.4251929852    0.0000000000    0.0000000000    0.0086955810    0.0000000000    0.0000000000
 PRIMCOORD   6
    3  1
 H   -0.8331942639    0.0000000000    0.0000000000    0.0006448091    0.0000000000    0.0000000000
 H    0.0000000000    0.0000000000    0.0000000000    0.0000000000    0.0000000000    0.0000000000
 H    1.9068116118    0.0000000000    0.0000000000    0.0043353344    0.0000000000    0.0000000000
 PRIMCOORD   7
    3  1
 H   -0.8243343408    0.0000000000    0.0000000000   -0.0002654673    0.0000000000    0.0000000000
 H    0.0000000000    0.0000000000    0.0000000000    0.0000000000    0.0000000000    0.0000000000
 H    2.4165926535    0.0000000000    0.0000000000    0.0006816882    0.0000000000    0.0000000000
