 ANIMSTEPS   7
 CRYSTAL 
 PRIMVEC 
  6.3501240000  0.0000000000  0.0000000000
  0.0000000000  2.6458850000  0.0000000000
  0.0000000000  0.0000000000  2.6458850000
 PRIMCOORD   1
    3  1
 H   -2.4165926535    0.0000000000    0.0000000000   -0.0006812250    0.0000000000    0.0000000000
 H    0.0000000000    0.0000000000    0.0000000000    0.0000000000    0.0000000000    0.0000000000
 H    0.8243343408    0.0000000000    0.0000000000    0.0002656994    0.0000000000    0.0000000000
 PRIMCOORD   2
    3  1
 H   -1.8697865761    0.0000000000    0.0000000000   -0.0048671017    0.0000000000    0.0000000000
 H    0.0000000000    0.0000000000    0.0000000000    0.0000000000    0.0000000000    0.0000000000
 H    0.8338364519    0.0000000000    0.0000000000   -0.0002314605    0.0000000000    0.0000000000
 PRIMCOORD   3
    3  1
 H   -1.4065704633    0.0000000000    0.0000000000   -0.0087195460    0.0000000000    0.0000000000
 H    0.0000000000    0.0000000000    0.0000000000    0.0000000000    0.0000000000    0.0000000000
 H    0.8817320444    0.0000000000    0.0000000000   -0.0052008973    0.0000000000    0.0000000000
 PRIMCOORD   4
    3  1
 H   -1.0563400472    0.0000000000    0.0000000000    0.0019666329    0.0000000000    0.0000000000
 H    0.0000000000    0.0000000000    0.0000000000    0.0000000000    0.0000000000    0.0000000000
 H    1.0563404660    0.0000000000    0.0000000000   -0.0019666329    0.0000000000    0.0000000000
 PRIMCOORD   5
    3  1
 H   -0.8817318548    0.0000000000    0.0000000000    0.0052008048    0.0000000000    0.0000000000
 H    0.0000000000    0.0000000000    0.0000000000    0.0000000000    0.0000000000    0.0000000000
 H    1.4065708349    0.0000000000    0.0000000000    0.0087195900    0.0000000000    0.0000000000
 PRIMCOORD   6
    3  1
 H   -0.8338364438    0.0000000000    0.0000000000    0.0002313945    0.0000000000    0.0000000000
 H    0.0000000000    0.0000000000    0.0000000000    0.0000000000    0.0000000000    0.0000000000
 H    1.8697864304    0.0000000000    0.0000000000    0.0048671446    0.0000000000    0.0000000000
 PRIMCOORD   7
    3  1
 H   -0.8243343408    0.0000000000    0.0000000000   -0.0002654650    0.0000000000    0.0000000000
 H    0.0000000000    0.0000000000    0.0000000000    0.0000000000    0.0000000000    0.0000000000
 H    2.4165926535    0.0000000000    0.0000000000    0.0006816858    0.0000000000    0.0000000000
