 ANIMSTEPS   7
 CRYSTAL 
 PRIMVEC 
  6.3501265296  0.0000000000  0.0000000000
  0.0000000000  2.6458860540  0.0000000000
  0.0000000000  0.0000000000  2.6458860540
 PRIMCOORD   1
    3  1
 H   -2.4165936162    0.0000000000    0.0000000000   -0.0005169424    0.0000000000    0.0000000000
 H    0.0000000000    0.0000000000    0.0000000000    0.0000000000    0.0000000000    0.0000000000
 H    0.8243346691    0.0000000000    0.0000000000    0.0001316314    0.0000000000    0.0000000000
 PRIMCOORD   2
    3  1
 H   -1.8712339477    0.0000000000    0.0000000000   -0.0046554616    0.0000000000    0.0000000000
 H    0.0000000000    0.0000000000    0.0000000000    0.0000000000    0.0000000000    0.0000000000
 H    0.8331715703    0.0000000000    0.0000000000    0.0001864795    0.0000000000    0.0000000000
 PRIMCOORD   3
    3  1
 H   -1.4029100257    0.0000000000    0.0000000000   -0.0098567360    0.0000000000    0.0000000000
 H    0.0000000000    0.0000000000    0.0000000000    0.0000000000    0.0000000000    0.0000000000
 H    0.8817719064    0.0000000000    0.0000000000   -0.0042655157    0.0000000000    0.0000000000
 PRIMCOORD   4
    3  1
 H   -1.0492122820    0.0000000000    0.0000000000   -0.0005448541    0.0000000000    0.0000000000
 H    0.0000000000    0.0000000000    0.0000000000    0.0000000000    0.0000000000    0.0000000000
 H    1.0492528220    0.0000000000    0.0000000000    0.0005525949    0.0000000000    0.0000000000
 PRIMCOORD   5
    3  1
 H   -0.8817649369    0.0000000000    0.0000000000    0.0042658303    0.0000000000    0.0000000000
 H    0.0000000000    0.0000000000    0.0000000000    0.0000000000    0.0000000000    0.0000000000
 H    1.4029733755    0.0000000000    0.0000000000    0.0098675261    0.0000000000    0.0000000000
 PRIMCOORD   6
    3  1
 H   -0.8331675375    0.0000000000    0.0000000000   -0.0001869846    0.0000000000    0.0000000000
 H    0.0000000000    0.0000000000    0.0000000000    0.0000000000    0.0000000000    0.0000000000
 H    1.8713046670    0.0000000000    0.0000000000    0.0046538981    0.0000000000    0.0000000000
 PRIMCOORD   7
    3  1
 H   -0.8243346691    0.0000000000    0.0000000000   -0.0000058910    0.0000000000    0.0000000000
 H    0.0000000000    0.0000000000    0.0000000000    0.0000000000    0.0000000000    0.0000000000
 H    2.4165936162    0.0000000000    0.0000000000    0.0006807468    0.0000000000    0.0000000000
