 ANIMSTEPS   7
 CRYSTAL 
 PRIMVEC 
  6.3501240000  0.0000000000  0.0000000000
  0.0000000000  2.6458850000  0.0000000000
  0.0000000000  0.0000000000  2.6458850000
 PRIMCOORD   1
    3  1
 H   -2.4165926535    0.0000000000    0.0000000000   -0.0006807877    0.0000000000    0.0000000000
 H    0.0000000000    0.0000000000    0.0000000000    0.0000000000    0.0000000000    0.0000000000
 H    0.8243343408    0.0000000000    0.0000000000    0.0002405730    0.0000000000    0.0000000000
 PRIMCOORD   2
    3  1
 H   -1.8817360334    0.0000000000    0.0000000000    0.0012297663    0.0000000000    0.0000000000
 H    0.0000000000    0.0000000000    0.0000000000    0.0000000000    0.0000000000    0.0000000000
 H    0.8348924040    0.0000000000    0.0000000000   -0.0008071994    0.0000000000    0.0000000000
 PRIMCOORD   3
    3  1
 H   -1.4319509742    0.0000000000    0.0000000000   -0.0015122570    0.0000000000    0.0000000000
 H    0.0000000000    0.0000000000    0.0000000000    0.0000000000    0.0000000000    0.0000000000
 H    0.8776306926    0.0000000000    0.0000000000   -0.0021494408    0.0000000000    0.0000000000
 PRIMCOORD   4
    3  1
 H   -1.0554634374    0.0000000000    0.0000000000    0.0016605679    0.0000000000    0.0000000000
 H    0.0000000000    0.0000000000    0.0000000000    0.0000000000    0.0000000000    0.0000000000
 H    1.0554681114    0.0000000000    0.0000000000   -0.0016623515    0.0000000000    0.0000000000
 PRIMCOORD   5
    3  1
 H   -0.8776306226    0.0000000000    0.0000000000    0.0021501196    0.0000000000    0.0000000000
 H    0.0000000000    0.0000000000    0.0000000000    0.0000000000    0.0000000000    0.0000000000
 H    1.4319520848    0.0000000000    0.0000000000    0.0015134048    0.0000000000    0.0000000000
 PRIMCOORD   6
    3  1
 H   -0.8348913602    0.0000000000    0.0000000000    0.0008063309    0.0000000000    0.0000000000
 H    0.0000000000    0.0000000000    0.0000000000    0.0000000000    0.0000000000    0.0000000000
 H    1.8817389391    0.0000000000    0.0000000000   -0.0012307115    0.0000000000    0.0000000000
 PRIMCOORD   7
    3  1
 H   -0.8243343408    0.0000000000    0.0000000000   -0.0002399109    0.0000000000    0.0000000000
 H    0.0000000000    0.0000000000    0.0000000000    0.0000000000    0.0000000000    0.0000000000
 H    2.4165926535    0.0000000000    0.0000000000    0.0006795339    0.0000000000    0.0000000000
