 ANIMSTEPS   7
 CRYSTAL 
 PRIMVEC 
  6.3501265296  0.0000000000  0.0000000000
  0.0000000000  2.6458860540  0.0000000000
  0.0000000000  0.0000000000  2.6458860540
 PRIMCOORD   1
    3  1
 H   -2.4165936162    0.0000000000    0.0000000000   -0.0003707419    0.0000000000    0.0000000000
 H    0.0000000000    0.0000000000    0.0000000000    0.0000000000    0.0000000000    0.0000000000
 H    0.8243346691    0.0000000000    0.0000000000    0.0001126309    0.0000000000    0.0000000000
 PRIMCOORD   2
    3  1
 H   -1.8714249750    0.0000000000    0.0000000000   -0.0048264614    0.0000000000    0.0000000000
 H    0.0000000000    0.0000000000    0.0000000000    0.0000000000    0.0000000000    0.0000000000
 H    0.8349208389    0.0000000000    0.0000000000   -0.0011162129    0.0000000000    0.0000000000
 PRIMCOORD   3
    3  1
 H   -1.4065822260    0.0000000000    0.0000000000   -0.0086892467    0.0000000000    0.0000000000
 H    0.0000000000    0.0000000000    0.0000000000    0.0000000000    0.0000000000    0.0000000000
 H    0.8818363311    0.0000000000    0.0000000000   -0.0052668160    0.0000000000    0.0000000000
 PRIMCOORD   4
    3  1
 H   -1.0524590232    0.0000000000    0.0000000000    0.0005822530    0.0000000000    0.0000000000
 H    0.0000000000    0.0000000000    0.0000000000    0.0000000000    0.0000000000    0.0000000000
 H    1.0524583581    0.0000000000    0.0000000000   -0.0005822530    0.0000000000    0.0000000000
 PRIMCOORD   5
    3  1
 H   -0.8818364793    0.0000000000    0.0000000000    0.0052668278    0.0000000000    0.0000000000
 H    0.0000000000    0.0000000000    0.0000000000    0.0000000000    0.0000000000    0.0000000000
 H    1.4065815615    0.0000000000    0.0000000000    0.0086892432    0.0000000000    0.0000000000
 PRIMCOORD   6
    3  1
 H   -0.8349208548    0.0000000000    0.0000000000    0.0011162141    0.0000000000    0.0000000000
 H    0.0000000000    0.0000000000    0.0000000000    0.0000000000    0.0000000000    0.0000000000
 H    1.8714245459    0.0000000000    0.0000000000    0.0048264674    0.0000000000    0.0000000000
 PRIMCOORD   7
    3  1
 H   -0.8243346691    0.0000000000    0.0000000000   -0.0001127386    0.0000000000    0.0000000000
 H    0.0000000000    0.0000000000    0.0000000000    0.0000000000    0.0000000000    0.0000000000
 H    2.4165936162    0.0000000000    0.0000000000    0.0003713966    0.0000000000    0.0000000000
