 ANIMSTEPS   7
 CRYSTAL 
 PRIMVEC 
  6.3501240000  0.0000000000  0.0000000000
  0.0000000000  2.6458850000  0.0000000000
  0.0000000000  0.0000000000  2.6458850000
 PRIMCOORD   1
    3  1
 H   -2.4165926535    0.0000000000    0.0000000000   -0.0006812278    0.0000000000    0.0000000000
 H    0.0000000000    0.0000000000    0.0000000000    0.0000000000    0.0000000000    0.0000000000
 H    0.8243343408    0.0000000000    0.0000000000    0.0002656959    0.0000000000    0.0000000000
 PRIMCOORD   2
    3  1
 H   -1.9068115554    0.0000000000    0.0000000000   -0.0043353349    0.0000000000    0.0000000000
 H    0.0000000000    0.0000000000    0.0000000000    0.0000000000    0.0000000000    0.0000000000
 H    0.8331942651    0.0000000000    0.0000000000   -0.0006448089    0.0000000000    0.0000000000
 PRIMCOORD   3
    3  1
 H   -1.4251930187    0.0000000000    0.0000000000   -0.0086955809    0.0000000000    0.0000000000
 H    0.0000000000    0.0000000000    0.0000000000    0.0000000000    0.0000000000    0.0000000000
 H    0.8785526887    0.0000000000    0.0000000000   -0.0053423248    0.0000000000    0.0000000000
 PRIMCOORD   4
    3  1
 H   -1.0610602461    0.0000000000    0.0000000000    0.0036276841    0.0000000000    0.0000000000
 H    0.0000000000    0.0000000000    0.0000000000    0.0000000000    0.0000000000    0.0000000000
 H    1.0610601977    0.0000000000    0.0000000000   -0.0036276841    0.0000000000    0.0000000000
 PRIMCOORD   5
    3  1
 H   -0.8785526943    0.0000000000    0.0000000000    0.0053423245    0.0000000000    0.0000000000
 H    0.0000000000    0.0000000000    0.0000000000    0.0000000000    0.0000000000    0.0000000000
 H    1.4251929856    0.0000000000    0.0000000000    0.0086955810    0.0000000000    0.0000000000
 PRIMCOORD   6
    3  1
 H   -0.8331942639    0.0000000000    0.0000000000    0.0006448091    0.0000000000    0.0000000000
 H    0.0000000000    0.0000000000    0.0000000000    0.0000000000    0.0000000000    0.0000000000
 H    1.9068116126    0.0000000000    0.0000000000    0.0043353344    0.0000000000    0.0000000000
 PRIMCOORD   7
    3  1
 H   -0.8243343408    0.0000000000    0.0000000000   -0.0002654673    0.0000000000    0.0000000000
 H    0.0000000000    0.0000000000    0.0000000000    0.0000000000    0.0000000000    0.0000000000
 H    2.4165926535    0.0000000000    0.0000000000    0.0006816882    0.0000000000    0.0000000000
