 ANIMSTEPS   8
 CRYSTAL 
 PRIMVEC 
  6.3501240000  0.0000000000  0.0000000000
  0.0000000000  2.6458850000  0.0000000000
  0.0000000000  0.0000000000  2.6458850000
 PRIMCOORD   1
    3  1
 H   -2.4165926535    0.0000000000    0.0000000000   -0.0006807877    0.0000000000    0.0000000000
 H    0.0000000000    0.0000000000    0.0000000000    0.0000000000    0.0000000000    0.0000000000
 H    0.8243343408    0.0000000000    0.0000000000    0.0002405730    0.0000000000    0.0000000000
 PRIMCOORD   2
    3  1
 H   -1.9441858340    0.0000000000    0.0000000000   -0.0038694424    0.0000000000    0.0000000000
 H    0.0000000000    0.0000000000    0.0000000000    0.0000000000    0.0000000000    0.0000000000
 H    0.8302044340    0.0000000000    0.0000000000    0.0008964171    0.0000000000    0.0000000000
 PRIMCOORD   3
    3  1
 H   -1.5418934870    0.0000000000    0.0000000000   -0.0087922667    0.0000000000    0.0000000000
 H    0.0000000000    0.0000000000    0.0000000000    0.0000000000    0.0000000000    0.0000000000
 H    0.8567038203    0.0000000000    0.0000000000   -0.0019486846    0.0000000000    0.0000000000
 PRIMCOORD   4
    3  1
 H   -1.1944910792    0.0000000000    0.0000000000   -0.0040022021    0.0000000000    0.0000000000
 H    0.0000000000    0.0000000000    0.0000000000    0.0000000000    0.0000000000    0.0000000000
 H    0.9594262051    0.0000000000    0.0000000000   -0.0077154018    0.0000000000    0.0000000000
 PRIMCOORD   5
    3  1
 H   -0.9595241828    0.0000000000    0.0000000000    0.0077354092    0.0000000000    0.0000000000
 H    0.0000000000    0.0000000000    0.0000000000    0.0000000000    0.0000000000    0.0000000000
 H    1.1944472137    0.0000000000    0.0000000000    0.0039891150    0.0000000000    0.0000000000
 PRIMCOORD   6
    3  1
 H   -0.8567123558    0.0000000000    0.0000000000    0.0019644962    0.0000000000    0.0000000000
 H    0.0000000000    0.0000000000    0.0000000000    0.0000000000    0.0000000000    0.0000000000
 H    1.5420180706    0.0000000000    0.0000000000    0.0087884603    0.0000000000    0.0000000000
 PRIMCOORD   7
    3  1
 H   -0.8301904526    0.0000000000    0.0000000000   -0.0009052097    0.0000000000    0.0000000000
 H    0.0000000000    0.0000000000    0.0000000000    0.0000000000    0.0000000000    0.0000000000
 H    1.9442980936    0.0000000000    0.0000000000    0.0038680969    0.0000000000    0.0000000000
 PRIMCOORD   8
    3  1
 H   -0.8243343408    0.0000000000    0.0000000000   -0.0002402437    0.0000000000    0.0000000000
 H    0.0000000000    0.0000000000    0.0000000000    0.0000000000    0.0000000000    0.0000000000
 H    2.4165926535    0.0000000000    0.0000000000    0.0006801911    0.0000000000    0.0000000000
