 ANIMSTEPS   8
 CRYSTAL 
 PRIMVEC 
  6.3501265296  0.0000000000  0.0000000000
  0.0000000000  2.6458860540  0.0000000000
  0.0000000000  0.0000000000  2.6458860540
 PRIMCOORD   1
    3  1
 H   -2.4165936162    0.0000000000    0.0000000000   -0.0003707419    0.0000000000    0.0000000000
 H    0.0000000000    0.0000000000    0.0000000000    0.0000000000    0.0000000000    0.0000000000
 H    0.8243346691    0.0000000000    0.0000000000    0.0001126309    0.0000000000    0.0000000000
 PRIMCOORD   2
    3  1
 H   -1.9466099703    0.0000000000    0.0000000000   -0.0038290273    0.0000000000    0.0000000000
 H    0.0000000000    0.0000000000    0.0000000000    0.0000000000    0.0000000000    0.0000000000
 H    0.8313655199    0.0000000000    0.0000000000   -0.0000865156    0.0000000000    0.0000000000
 PRIMCOORD   3
    3  1
 H   -1.5246335373    0.0000000000    0.0000000000   -0.0086290623    0.0000000000    0.0000000000
 H    0.0000000000    0.0000000000    0.0000000000    0.0000000000    0.0000000000    0.0000000000
 H    0.8621580722    0.0000000000    0.0000000000   -0.0042439820    0.0000000000    0.0000000000
 PRIMCOORD   4
    3  1
 H   -1.1901299823    0.0000000000    0.0000000000   -0.0042168059    0.0000000000    0.0000000000
 H    0.0000000000    0.0000000000    0.0000000000    0.0000000000    0.0000000000    0.0000000000
 H    0.9598539109    0.0000000000    0.0000000000   -0.0070554512    0.0000000000    0.0000000000
 PRIMCOORD   5
    3  1
 H   -0.9598539328    0.0000000000    0.0000000000    0.0070554482    0.0000000000    0.0000000000
 H    0.0000000000    0.0000000000    0.0000000000    0.0000000000    0.0000000000    0.0000000000
 H    1.1901299271    0.0000000000    0.0000000000    0.0042168049    0.0000000000    0.0000000000
 PRIMCOORD   6
    3  1
 H   -0.8621580746    0.0000000000    0.0000000000    0.0042439799    0.0000000000    0.0000000000
 H    0.0000000000    0.0000000000    0.0000000000    0.0000000000    0.0000000000    0.0000000000
 H    1.5246334895    0.0000000000    0.0000000000    0.0086290628    0.0000000000    0.0000000000
 PRIMCOORD   7
    3  1
 H   -0.8313655302    0.0000000000    0.0000000000    0.0000865228    0.0000000000    0.0000000000
 H    0.0000000000    0.0000000000    0.0000000000    0.0000000000    0.0000000000    0.0000000000
 H    1.9466099387    0.0000000000    0.0000000000    0.0038290280    0.0000000000    0.0000000000
 PRIMCOORD   8
    3  1
 H   -0.8243346691    0.0000000000    0.0000000000   -0.0001126620    0.0000000000    0.0000000000
 H    0.0000000000    0.0000000000    0.0000000000    0.0000000000    0.0000000000    0.0000000000
 H    2.4165936162    0.0000000000    0.0000000000    0.0003709060    0.0000000000    0.0000000000
