 ANIMSTEPS   8
 CRYSTAL 
 PRIMVEC 
  6.3501240000  0.0000000000  0.0000000000
  0.0000000000  2.6458850000  0.0000000000
  0.0000000000  0.0000000000  2.6458850000
 PRIMCOORD   1
    3  1
 H   -2.4258057844    0.0000000000    0.0000000000   -0.0007511133    0.0000000000    0.0000000000
 H    0.0000000000    0.0000000000    0.0000000000    0.0000000000    0.0000000000    0.0000000000
 H    0.8276134744    0.0000000000    0.0000000000    0.0002673359    0.0000000000    0.0000000000
 PRIMCOORD   2
    3  1
 H   -1.9470307093    0.0000000000    0.0000000000   -0.0037977311    0.0000000000    0.0000000000
 H    0.0000000000    0.0000000000    0.0000000000    0.0000000000    0.0000000000    0.0000000000
 H    0.8313844088    0.0000000000    0.0000000000   -0.0001350078    0.0000000000    0.0000000000
 PRIMCOORD   3
    3  1
 H   -1.5262481275    0.0000000000    0.0000000000   -0.0087184897    0.0000000000    0.0000000000
 H    0.0000000000    0.0000000000    0.0000000000    0.0000000000    0.0000000000    0.0000000000
 H    0.8608797038    0.0000000000    0.0000000000   -0.0035347784    0.0000000000    0.0000000000
 PRIMCOORD   4
    3  1
 H   -1.1897380308    0.0000000000    0.0000000000   -0.0041690129    0.0000000000    0.0000000000
 H    0.0000000000    0.0000000000    0.0000000000    0.0000000000    0.0000000000    0.0000000000
 H    0.9600971222    0.0000000000    0.0000000000   -0.0070736512    0.0000000000    0.0000000000
 PRIMCOORD   5
    3  1
 H   -0.9601264912    0.0000000000    0.0000000000    0.0070828199    0.0000000000    0.0000000000
 H    0.0000000000    0.0000000000    0.0000000000    0.0000000000    0.0000000000    0.0000000000
 H    1.1897473087    0.0000000000    0.0000000000    0.0041645096    0.0000000000    0.0000000000
 PRIMCOORD   6
    3  1
 H   -0.8608833149    0.0000000000    0.0000000000    0.0035355997    0.0000000000    0.0000000000
 H    0.0000000000    0.0000000000    0.0000000000    0.0000000000    0.0000000000    0.0000000000
 H    1.5262280950    0.0000000000    0.0000000000    0.0087185033    0.0000000000    0.0000000000
 PRIMCOORD   7
    3  1
 H   -0.8313869474    0.0000000000    0.0000000000    0.0001354697    0.0000000000    0.0000000000
 H    0.0000000000    0.0000000000    0.0000000000    0.0000000000    0.0000000000    0.0000000000
 H    1.9469610308    0.0000000000    0.0000000000    0.0037986773    0.0000000000    0.0000000000
 PRIMCOORD   8
    3  1
 H   -0.8275334068    0.0000000000    0.0000000000   -0.0002608083    0.0000000000    0.0000000000
 H    0.0000000000    0.0000000000    0.0000000000    0.0000000000    0.0000000000    0.0000000000
 H    2.4256425029    0.0000000000    0.0000000000    0.0007378016    0.0000000000    0.0000000000
