 ANIMSTEPS   8
 CRYSTAL 
 PRIMVEC 
  6.3501240000  0.0000000000  0.0000000000
  0.0000000000  2.6458850000  0.0000000000
  0.0000000000  0.0000000000  2.6458850000
 PRIMCOORD   1
    3  1
 H   -2.4165926535    0.0000000000    0.0000000000   -0.0006811599    0.0000000000    0.0000000000
 H    0.0000000000    0.0000000000    0.0000000000    0.0000000000    0.0000000000    0.0000000000
 H    0.8243343408    0.0000000000    0.0000000000    0.0002656877    0.0000000000    0.0000000000
 PRIMCOORD   2
    3  1
 H   -1.9466503823    0.0000000000    0.0000000000   -0.0038313982    0.0000000000    0.0000000000
 H    0.0000000000    0.0000000000    0.0000000000    0.0000000000    0.0000000000    0.0000000000
 H    0.8313516864    0.0000000000    0.0000000000   -0.0000760444    0.0000000000    0.0000000000
 PRIMCOORD   3
    3  1
 H   -1.5246532745    0.0000000000    0.0000000000   -0.0086290445    0.0000000000    0.0000000000
 H    0.0000000000    0.0000000000    0.0000000000    0.0000000000    0.0000000000    0.0000000000
 H    0.8621591813    0.0000000000    0.0000000000   -0.0042468975    0.0000000000    0.0000000000
 PRIMCOORD   4
    3  1
 H   -1.1901972540    0.0000000000    0.0000000000   -0.0041979712    0.0000000000    0.0000000000
 H    0.0000000000    0.0000000000    0.0000000000    0.0000000000    0.0000000000    0.0000000000
 H    0.9599168300    0.0000000000    0.0000000000   -0.0070881498    0.0000000000    0.0000000000
 PRIMCOORD   5
    3  1
 H   -0.9599171429    0.0000000000    0.0000000000    0.0070881115    0.0000000000    0.0000000000
 H    0.0000000000    0.0000000000    0.0000000000    0.0000000000    0.0000000000    0.0000000000
 H    1.1901964935    0.0000000000    0.0000000000    0.0041979561    0.0000000000    0.0000000000
 PRIMCOORD   6
    3  1
 H   -0.8621592266    0.0000000000    0.0000000000    0.0042468744    0.0000000000    0.0000000000
 H    0.0000000000    0.0000000000    0.0000000000    0.0000000000    0.0000000000    0.0000000000
 H    1.5246525963    0.0000000000    0.0000000000    0.0086290509    0.0000000000    0.0000000000
 PRIMCOORD   7
    3  1
 H   -0.8313516399    0.0000000000    0.0000000000    0.0000759942    0.0000000000    0.0000000000
 H    0.0000000000    0.0000000000    0.0000000000    0.0000000000    0.0000000000    0.0000000000
 H    1.9466499500    0.0000000000    0.0000000000    0.0038314091    0.0000000000    0.0000000000
 PRIMCOORD   8
    3  1
 H   -0.8243343408    0.0000000000    0.0000000000   -0.0002657122    0.0000000000    0.0000000000
 H    0.0000000000    0.0000000000    0.0000000000    0.0000000000    0.0000000000    0.0000000000
 H    2.4165926535    0.0000000000    0.0000000000    0.0006813143    0.0000000000    0.0000000000
