 ANIMSTEPS   8
 CRYSTAL 
 PRIMVEC 
  6.3501265296  0.0000000000  0.0000000000
  0.0000000000  2.6458860540  0.0000000000
  0.0000000000  0.0000000000  2.6458860540
 PRIMCOORD   1
    3  1
 H   -2.4165936162    0.0000000000    0.0000000000   -0.0003707419    0.0000000000    0.0000000000
 H    0.0000000000    0.0000000000    0.0000000000    0.0000000000    0.0000000000    0.0000000000
 H    0.8243346691    0.0000000000    0.0000000000    0.0001126309    0.0000000000    0.0000000000
 PRIMCOORD   2
    3  1
 H   -1.9466132769    0.0000000000    0.0000000000   -0.0038288009    0.0000000000    0.0000000000
 H    0.0000000000    0.0000000000    0.0000000000    0.0000000000    0.0000000000    0.0000000000
 H    0.8313678495    0.0000000000    0.0000000000   -0.0000885760    0.0000000000    0.0000000000
 PRIMCOORD   3
    3  1
 H   -1.5246351124    0.0000000000    0.0000000000   -0.0086290260    0.0000000000    0.0000000000
 H    0.0000000000    0.0000000000    0.0000000000    0.0000000000    0.0000000000    0.0000000000
 H    0.8621583050    0.0000000000    0.0000000000   -0.0042442449    0.0000000000    0.0000000000
 PRIMCOORD   4
    3  1
 H   -1.1901340945    0.0000000000    0.0000000000   -0.0042160293    0.0000000000    0.0000000000
 H    0.0000000000    0.0000000000    0.0000000000    0.0000000000    0.0000000000    0.0000000000
 H    0.9598571127    0.0000000000    0.0000000000   -0.0070571503    0.0000000000    0.0000000000
 PRIMCOORD   5
    3  1
 H   -0.9598571361    0.0000000000    0.0000000000    0.0070571470    0.0000000000    0.0000000000
 H    0.0000000000    0.0000000000    0.0000000000    0.0000000000    0.0000000000    0.0000000000
 H    1.1901340360    0.0000000000    0.0000000000    0.0042160284    0.0000000000    0.0000000000
 PRIMCOORD   6
    3  1
 H   -0.8621583079    0.0000000000    0.0000000000    0.0042442428    0.0000000000    0.0000000000
 H    0.0000000000    0.0000000000    0.0000000000    0.0000000000    0.0000000000    0.0000000000
 H    1.5246350607    0.0000000000    0.0000000000    0.0086290265    0.0000000000    0.0000000000
 PRIMCOORD   7
    3  1
 H   -0.8313678608    0.0000000000    0.0000000000    0.0000885839    0.0000000000    0.0000000000
 H    0.0000000000    0.0000000000    0.0000000000    0.0000000000    0.0000000000    0.0000000000
 H    1.9466132421    0.0000000000    0.0000000000    0.0038288016    0.0000000000    0.0000000000
 PRIMCOORD   8
    3  1
 H   -0.8243346691    0.0000000000    0.0000000000   -0.0001126620    0.0000000000    0.0000000000
 H    0.0000000000    0.0000000000    0.0000000000    0.0000000000    0.0000000000    0.0000000000
 H    2.4165936162    0.0000000000    0.0000000000    0.0003709060    0.0000000000    0.0000000000
