 ANIMSTEPS   8
 CRYSTAL 
 PRIMVEC 
  6.3501240000  0.0000000000  0.0000000000
  0.0000000000  2.6458850000  0.0000000000
  0.0000000000  0.0000000000  2.6458850000
 PRIMCOORD   1
    3  1
 H   -2.4165926535    0.0000000000    0.0000000000   -0.0006812250    0.0000000000    0.0000000000
 H    0.0000000000    0.0000000000    0.0000000000    0.0000000000    0.0000000000    0.0000000000
 H    0.8243343408    0.0000000000    0.0000000000    0.0002656994    0.0000000000    0.0000000000
 PRIMCOORD   2
    3  1
 H   -1.9500712923    0.0000000000    0.0000000000   -0.0036143720    0.0000000000    0.0000000000
 H    0.0000000000    0.0000000000    0.0000000000    0.0000000000    0.0000000000    0.0000000000
 H    0.8379888060    0.0000000000    0.0000000000   -0.0054293095    0.0000000000    0.0000000000
 PRIMCOORD   3
    3  1
 H   -1.5321242802    0.0000000000    0.0000000000   -0.0082081335    0.0000000000    0.0000000000
 H    0.0000000000    0.0000000000    0.0000000000    0.0000000000    0.0000000000    0.0000000000
 H    0.8662493160    0.0000000000    0.0000000000   -0.0074332140    0.0000000000    0.0000000000
 PRIMCOORD   4
    3  1
 H   -1.1955446176    0.0000000000    0.0000000000   -0.0028308696    0.0000000000    0.0000000000
 H    0.0000000000    0.0000000000    0.0000000000    0.0000000000    0.0000000000    0.0000000000
 H    0.9658817150    0.0000000000    0.0000000000   -0.0098380525    0.0000000000    0.0000000000
 PRIMCOORD   5
    3  1
 H   -0.9658817745    0.0000000000    0.0000000000    0.0098380359    0.0000000000    0.0000000000
 H    0.0000000000    0.0000000000    0.0000000000    0.0000000000    0.0000000000    0.0000000000
 H    1.1955442986    0.0000000000    0.0000000000    0.0028308507    0.0000000000    0.0000000000
 PRIMCOORD   6
    3  1
 H   -0.8662492284    0.0000000000    0.0000000000    0.0074331254    0.0000000000    0.0000000000
 H    0.0000000000    0.0000000000    0.0000000000    0.0000000000    0.0000000000    0.0000000000
 H    1.5321239079    0.0000000000    0.0000000000    0.0082081611    0.0000000000    0.0000000000
 PRIMCOORD   7
    3  1
 H   -0.8379890533    0.0000000000    0.0000000000    0.0054294946    0.0000000000    0.0000000000
 H    0.0000000000    0.0000000000    0.0000000000    0.0000000000    0.0000000000    0.0000000000
 H    1.9500710219    0.0000000000    0.0000000000    0.0036143703    0.0000000000    0.0000000000
 PRIMCOORD   8
    3  1
 H   -0.8243343408    0.0000000000    0.0000000000   -0.0002657518    0.0000000000    0.0000000000
 H    0.0000000000    0.0000000000    0.0000000000    0.0000000000    0.0000000000    0.0000000000
 H    2.4165926535    0.0000000000    0.0000000000    0.0006813434    0.0000000000    0.0000000000
