 ANIMSTEPS   8
 CRYSTAL 
 PRIMVEC 
  6.3501240000  0.0000000000  0.0000000000
  0.0000000000  2.6458850000  0.0000000000
  0.0000000000  0.0000000000  2.6458850000
 PRIMCOORD   1
    3  1
 H   -2.4165926535    0.0000000000    0.0000000000   -0.0006807877    0.0000000000    0.0000000000
 H    0.0000000000    0.0000000000    0.0000000000    0.0000000000    0.0000000000    0.0000000000
 H    0.8243343408    0.0000000000    0.0000000000    0.0002405730    0.0000000000    0.0000000000
 PRIMCOORD   2
    3  1
 H   -1.9555313095    0.0000000000    0.0000000000    0.0041651312    0.0000000000    0.0000000000
 H    0.0000000000    0.0000000000    0.0000000000    0.0000000000    0.0000000000    0.0000000000
 H    0.8317273161    0.0000000000    0.0000000000   -0.0000861362    0.0000000000    0.0000000000
 PRIMCOORD   3
    3  1
 H   -1.5474729388    0.0000000000    0.0000000000    0.0026888533    0.0000000000    0.0000000000
 H    0.0000000000    0.0000000000    0.0000000000    0.0000000000    0.0000000000    0.0000000000
 H    0.8570299467    0.0000000000    0.0000000000    0.0006035131    0.0000000000    0.0000000000
 PRIMCOORD   4
    3  1
 H   -1.1997151956    0.0000000000    0.0000000000    0.0012049535    0.0000000000    0.0000000000
 H    0.0000000000    0.0000000000    0.0000000000    0.0000000000    0.0000000000    0.0000000000
 H    0.9536516486    0.0000000000    0.0000000000   -0.0008487054    0.0000000000    0.0000000000
 PRIMCOORD   5
    3  1
 H   -0.9536640913    0.0000000000    0.0000000000    0.0008546035    0.0000000000    0.0000000000
 H    0.0000000000    0.0000000000    0.0000000000    0.0000000000    0.0000000000    0.0000000000
 H    1.1997545292    0.0000000000    0.0000000000   -0.0012166712    0.0000000000    0.0000000000
 PRIMCOORD   6
    3  1
 H   -0.8570350201    0.0000000000    0.0000000000   -0.0006002884    0.0000000000    0.0000000000
 H    0.0000000000    0.0000000000    0.0000000000    0.0000000000    0.0000000000    0.0000000000
 H    1.5474816862    0.0000000000    0.0000000000   -0.0026903932    0.0000000000    0.0000000000
 PRIMCOORD   7
    3  1
 H   -0.8317407309    0.0000000000    0.0000000000    0.0000972031    0.0000000000    0.0000000000
 H    0.0000000000    0.0000000000    0.0000000000    0.0000000000    0.0000000000    0.0000000000
 H    1.9555051285    0.0000000000    0.0000000000   -0.0041525988    0.0000000000    0.0000000000
 PRIMCOORD   8
    3  1
 H   -0.8243343408    0.0000000000    0.0000000000   -0.0002402437    0.0000000000    0.0000000000
 H    0.0000000000    0.0000000000    0.0000000000    0.0000000000    0.0000000000    0.0000000000
 H    2.4165926535    0.0000000000    0.0000000000    0.0006801911    0.0000000000    0.0000000000
