 ANIMSTEPS   8
 CRYSTAL 
 PRIMVEC 
  6.3501240000  0.0000000000  0.0000000000
  0.0000000000  2.6458850000  0.0000000000
  0.0000000000  0.0000000000  2.6458850000
 PRIMCOORD   1
    3  1
 H   -2.4165926535    0.0000000000    0.0000000000   -0.0006811599    0.0000000000    0.0000000000
 H    0.0000000000    0.0000000000    0.0000000000    0.0000000000    0.0000000000    0.0000000000
 H    0.8243343408    0.0000000000    0.0000000000    0.0002656877    0.0000000000    0.0000000000
 PRIMCOORD   2
    3  1
 H   -1.9904235130    0.0000000000    0.0000000000   -0.0033703341    0.0000000000    0.0000000000
 H    0.0000000000    0.0000000000    0.0000000000    0.0000000000    0.0000000000    0.0000000000
 H    0.8305346350    0.0000000000    0.0000000000   -0.0003260109    0.0000000000    0.0000000000
 PRIMCOORD   3
    3  1
 H   -1.5605610102    0.0000000000    0.0000000000   -0.0084802422    0.0000000000    0.0000000000
 H    0.0000000000    0.0000000000    0.0000000000    0.0000000000    0.0000000000    0.0000000000
 H    0.8574245778    0.0000000000    0.0000000000   -0.0037120396    0.0000000000    0.0000000000
 PRIMCOORD   4
    3  1
 H   -1.1962931559    0.0000000000    0.0000000000   -0.0017059904    0.0000000000    0.0000000000
 H    0.0000000000    0.0000000000    0.0000000000    0.0000000000    0.0000000000    0.0000000000
 H    0.9719054947    0.0000000000    0.0000000000   -0.0117221948    0.0000000000    0.0000000000
 PRIMCOORD   5
    3  1
 H   -0.9719072053    0.0000000000    0.0000000000    0.0117220441    0.0000000000    0.0000000000
 H    0.0000000000    0.0000000000    0.0000000000    0.0000000000    0.0000000000    0.0000000000
 H    1.1962896203    0.0000000000    0.0000000000    0.0017058696    0.0000000000    0.0000000000
 PRIMCOORD   6
    3  1
 H   -0.8574247318    0.0000000000    0.0000000000    0.0037120880    0.0000000000    0.0000000000
 H    0.0000000000    0.0000000000    0.0000000000    0.0000000000    0.0000000000    0.0000000000
 H    1.5605601012    0.0000000000    0.0000000000    0.0084802374    0.0000000000    0.0000000000
 PRIMCOORD   7
    3  1
 H   -0.8305353769    0.0000000000    0.0000000000    0.0003499575    0.0000000000    0.0000000000
 H    0.0000000000    0.0000000000    0.0000000000    0.0000000000    0.0000000000    0.0000000000
 H    1.9904241327    0.0000000000    0.0000000000    0.0033260243    0.0000000000    0.0000000000
 PRIMCOORD   8
    3  1
 H   -0.8243343408    0.0000000000    0.0000000000   -0.0002657122    0.0000000000    0.0000000000
 H    0.0000000000    0.0000000000    0.0000000000    0.0000000000    0.0000000000    0.0000000000
 H    2.4165926535    0.0000000000    0.0000000000    0.0006813143    0.0000000000    0.0000000000
