 ANIMSTEPS   8
 CRYSTAL 
 PRIMVEC 
  6.3501265031  0.0000000000  0.0000000000
  0.0000000000  2.6458860429  0.0000000000
  0.0000000000  0.0000000000  2.6458860429
 PRIMCOORD   1
    3  1
 H   -2.4165936061    0.0000000000    0.0000000000   -0.0003707418    0.0000000000    0.0000000000
 H    0.0000000000    0.0000000000    0.0000000000    0.0000000000    0.0000000000    0.0000000000
 H    0.8243346657    0.0000000000    0.0000000000    0.0001126308    0.0000000000    0.0000000000
 PRIMCOORD   2
    3  1
 H   -1.9466119520    0.0000000000    0.0000000000   -0.0038289627    0.0000000000    0.0000000000
 H    0.0000000000    0.0000000000    0.0000000000    0.0000000000    0.0000000000    0.0000000000
 H    0.8313660684    0.0000000000    0.0000000000   -0.0000870256    0.0000000000    0.0000000000
 PRIMCOORD   3
    3  1
 H   -1.5246334140    0.0000000000    0.0000000000   -0.0086290375    0.0000000000    0.0000000000
 H    0.0000000000    0.0000000000    0.0000000000    0.0000000000    0.0000000000    0.0000000000
 H    0.8621581668    0.0000000000    0.0000000000   -0.0042440497    0.0000000000    0.0000000000
 PRIMCOORD   4
    3  1
 H   -1.1901348397    0.0000000000    0.0000000000   -0.0042156889    0.0000000000    0.0000000000
 H    0.0000000000    0.0000000000    0.0000000000    0.0000000000    0.0000000000    0.0000000000
 H    0.9598581598    0.0000000000    0.0000000000   -0.0070577017    0.0000000000    0.0000000000
 PRIMCOORD   5
    3  1
 H   -0.9598581820    0.0000000000    0.0000000000    0.0070576987    0.0000000000    0.0000000000
 H    0.0000000000    0.0000000000    0.0000000000    0.0000000000    0.0000000000    0.0000000000
 H    1.1901347846    0.0000000000    0.0000000000    0.0042156880    0.0000000000    0.0000000000
 PRIMCOORD   6
    3  1
 H   -0.8621581692    0.0000000000    0.0000000000    0.0042440473    0.0000000000    0.0000000000
 H    0.0000000000    0.0000000000    0.0000000000    0.0000000000    0.0000000000    0.0000000000
 H    1.5246333636    0.0000000000    0.0000000000    0.0086290383    0.0000000000    0.0000000000
 PRIMCOORD   7
    3  1
 H   -0.8313660902    0.0000000000    0.0000000000    0.0000870420    0.0000000000    0.0000000000
 H    0.0000000000    0.0000000000    0.0000000000    0.0000000000    0.0000000000    0.0000000000
 H    1.9466119167    0.0000000000    0.0000000000    0.0038289633    0.0000000000    0.0000000000
 PRIMCOORD   8
    3  1
 H   -0.8243346657    0.0000000000    0.0000000000   -0.0001126620    0.0000000000    0.0000000000
 H    0.0000000000    0.0000000000    0.0000000000    0.0000000000    0.0000000000    0.0000000000
 H    2.4165936061    0.0000000000    0.0000000000    0.0003709060    0.0000000000    0.0000000000
