 ANIMSTEPS   8
 CRYSTAL 
 PRIMVEC 
  6.3501240000  0.0000000000  0.0000000000
  0.0000000000  2.6458850000  0.0000000000
  0.0000000000  0.0000000000  2.6458850000
 PRIMCOORD   1
    3  1
 H   -2.4165926535    0.0000000000    0.0000000000   -0.0006812278    0.0000000000    0.0000000000
 H    0.0000000000    0.0000000000    0.0000000000    0.0000000000    0.0000000000    0.0000000000
 H    0.8243343408    0.0000000000    0.0000000000    0.0002656959    0.0000000000    0.0000000000
 PRIMCOORD   2
    3  1
 H   -1.9159843297    0.0000000000    0.0000000000   -0.0043328108    0.0000000000    0.0000000000
 H    0.0000000000    0.0000000000    0.0000000000    0.0000000000    0.0000000000    0.0000000000
 H    0.8284493250    0.0000000000    0.0000000000    0.0029996805    0.0000000000    0.0000000000
 PRIMCOORD   3
    3  1
 H   -1.5059929862    0.0000000000    0.0000000000   -0.0090372044    0.0000000000    0.0000000000
 H    0.0000000000    0.0000000000    0.0000000000    0.0000000000    0.0000000000    0.0000000000
 H    0.8605616551    0.0000000000    0.0000000000   -0.0017359987    0.0000000000    0.0000000000
 PRIMCOORD   4
    3  1
 H   -1.1794309376    0.0000000000    0.0000000000   -0.0051810738    0.0000000000    0.0000000000
 H    0.0000000000    0.0000000000    0.0000000000    0.0000000000    0.0000000000    0.0000000000
 H    0.9579311169    0.0000000000    0.0000000000   -0.0045517640    0.0000000000    0.0000000000
 PRIMCOORD   5
    3  1
 H   -0.9579306350    0.0000000000    0.0000000000    0.0045517938    0.0000000000    0.0000000000
 H    0.0000000000    0.0000000000    0.0000000000    0.0000000000    0.0000000000    0.0000000000
 H    1.1794319153    0.0000000000    0.0000000000    0.0051810971    0.0000000000    0.0000000000
 PRIMCOORD   6
    3  1
 H   -0.8605616065    0.0000000000    0.0000000000    0.0017360502    0.0000000000    0.0000000000
 H    0.0000000000    0.0000000000    0.0000000000    0.0000000000    0.0000000000    0.0000000000
 H    1.5059940008    0.0000000000    0.0000000000    0.0090371921    0.0000000000    0.0000000000
 PRIMCOORD   7
    3  1
 H   -0.8284492500    0.0000000000    0.0000000000   -0.0029997283    0.0000000000    0.0000000000
 H    0.0000000000    0.0000000000    0.0000000000    0.0000000000    0.0000000000    0.0000000000
 H    1.9159849327    0.0000000000    0.0000000000    0.0043328042    0.0000000000    0.0000000000
 PRIMCOORD   8
    3  1
 H   -0.8243343408    0.0000000000    0.0000000000   -0.0002657534    0.0000000000    0.0000000000
 H    0.0000000000    0.0000000000    0.0000000000    0.0000000000    0.0000000000    0.0000000000
 H    2.4165926535    0.0000000000    0.0000000000    0.0006813469    0.0000000000    0.0000000000
