 ANIMSTEPS   8
 CRYSTAL 
 PRIMVEC 
  6.3501240000  0.0000000000  0.0000000000
  0.0000000000  2.6458850000  0.0000000000
  0.0000000000  0.0000000000  2.6458850000
 PRIMCOORD   1
    3  1
 H   -2.4165926535    0.0000000000    0.0000000000   -0.0006811599    0.0000000000    0.0000000000
 H    0.0000000000    0.0000000000    0.0000000000    0.0000000000    0.0000000000    0.0000000000
 H    0.8243343408    0.0000000000    0.0000000000    0.0002656877    0.0000000000    0.0000000000
 PRIMCOORD   2
    3  1
 H   -1.9466477197    0.0000000000    0.0000000000   -0.0038315016    0.0000000000    0.0000000000
 H    0.0000000000    0.0000000000    0.0000000000    0.0000000000    0.0000000000    0.0000000000
 H    0.8313510709    0.0000000000    0.0000000000   -0.0000754486    0.0000000000    0.0000000000
 PRIMCOORD   3
    3  1
 H   -1.5246527089    0.0000000000    0.0000000000   -0.0086290040    0.0000000000    0.0000000000
 H    0.0000000000    0.0000000000    0.0000000000    0.0000000000    0.0000000000    0.0000000000
 H    0.8621592219    0.0000000000    0.0000000000   -0.0042469385    0.0000000000    0.0000000000
 PRIMCOORD   4
    3  1
 H   -1.1901915608    0.0000000000    0.0000000000   -0.0041993327    0.0000000000    0.0000000000
 H    0.0000000000    0.0000000000    0.0000000000    0.0000000000    0.0000000000    0.0000000000
 H    0.9599118019    0.0000000000    0.0000000000   -0.0070854771    0.0000000000    0.0000000000
 PRIMCOORD   5
    3  1
 H   -0.9599121052    0.0000000000    0.0000000000    0.0070854356    0.0000000000    0.0000000000
 H    0.0000000000    0.0000000000    0.0000000000    0.0000000000    0.0000000000    0.0000000000
 H    1.1901908018    0.0000000000    0.0000000000    0.0041993197    0.0000000000    0.0000000000
 PRIMCOORD   6
    3  1
 H   -0.8621592668    0.0000000000    0.0000000000    0.0042469154    0.0000000000    0.0000000000
 H    0.0000000000    0.0000000000    0.0000000000    0.0000000000    0.0000000000    0.0000000000
 H    1.5246520330    0.0000000000    0.0000000000    0.0086290103    0.0000000000    0.0000000000
 PRIMCOORD   7
    3  1
 H   -0.8313510252    0.0000000000    0.0000000000    0.0000753991    0.0000000000    0.0000000000
 H    0.0000000000    0.0000000000    0.0000000000    0.0000000000    0.0000000000    0.0000000000
 H    1.9466472916    0.0000000000    0.0000000000    0.0038315123    0.0000000000    0.0000000000
 PRIMCOORD   8
    3  1
 H   -0.8243343408    0.0000000000    0.0000000000   -0.0002657122    0.0000000000    0.0000000000
 H    0.0000000000    0.0000000000    0.0000000000    0.0000000000    0.0000000000    0.0000000000
 H    2.4165926535    0.0000000000    0.0000000000    0.0006813143    0.0000000000    0.0000000000
