 ANIMSTEPS   8
 CRYSTAL 
 PRIMVEC 
  6.3501240000  0.0000000000  0.0000000000
  0.0000000000  2.6458850000  0.0000000000
  0.0000000000  0.0000000000  2.6458850000
 PRIMCOORD   1
    3  1
 H   -2.4165926535    0.0000000000    0.0000000000   -0.0006812278    0.0000000000    0.0000000000
 H    0.0000000000    0.0000000000    0.0000000000    0.0000000000    0.0000000000    0.0000000000
 H    0.8243343408    0.0000000000    0.0000000000    0.0002656959    0.0000000000    0.0000000000
 PRIMCOORD   2
    3  1
 H   -1.9500711751    0.0000000000    0.0000000000   -0.0036143348    0.0000000000    0.0000000000
 H    0.0000000000    0.0000000000    0.0000000000    0.0000000000    0.0000000000    0.0000000000
 H    0.8379888241    0.0000000000    0.0000000000   -0.0054293453    0.0000000000    0.0000000000
 PRIMCOORD   3
    3  1
 H   -1.5321242106    0.0000000000    0.0000000000   -0.0082081592    0.0000000000    0.0000000000
 H    0.0000000000    0.0000000000    0.0000000000    0.0000000000    0.0000000000    0.0000000000
 H    0.8662492521    0.0000000000    0.0000000000   -0.0074331567    0.0000000000    0.0000000000
 PRIMCOORD   4
    3  1
 H   -1.1955446062    0.0000000000    0.0000000000   -0.0028308271    0.0000000000    0.0000000000
 H    0.0000000000    0.0000000000    0.0000000000    0.0000000000    0.0000000000    0.0000000000
 H    0.9658819478    0.0000000000    0.0000000000   -0.0098381247    0.0000000000    0.0000000000
 PRIMCOORD   5
    3  1
 H   -0.9658818943    0.0000000000    0.0000000000    0.0098381295    0.0000000000    0.0000000000
 H    0.0000000000    0.0000000000    0.0000000000    0.0000000000    0.0000000000    0.0000000000
 H    1.1955447197    0.0000000000    0.0000000000    0.0028308303    0.0000000000    0.0000000000
 PRIMCOORD   6
    3  1
 H   -0.8662491558    0.0000000000    0.0000000000    0.0074330980    0.0000000000    0.0000000000
 H    0.0000000000    0.0000000000    0.0000000000    0.0000000000    0.0000000000    0.0000000000
 H    1.5321242301    0.0000000000    0.0000000000    0.0082081655    0.0000000000    0.0000000000
 PRIMCOORD   7
    3  1
 H   -0.8379889324    0.0000000000    0.0000000000    0.0054294285    0.0000000000    0.0000000000
 H    0.0000000000    0.0000000000    0.0000000000    0.0000000000    0.0000000000    0.0000000000
 H    1.9500711333    0.0000000000    0.0000000000    0.0036143329    0.0000000000    0.0000000000
 PRIMCOORD   8
    3  1
 H   -0.8243343408    0.0000000000    0.0000000000   -0.0002657534    0.0000000000    0.0000000000
 H    0.0000000000    0.0000000000    0.0000000000    0.0000000000    0.0000000000    0.0000000000
 H    2.4165926535    0.0000000000    0.0000000000    0.0006813469    0.0000000000    0.0000000000
