 ANIMSTEPS   8
 CRYSTAL 
 PRIMVEC 
  6.3501240000  0.0000000000  0.0000000000
  0.0000000000  2.6458850000  0.0000000000
  0.0000000000  0.0000000000  2.6458850000
 PRIMCOORD   1
    3  1
 H   -2.4165926535    0.0000000000    0.0000000000   -0.0006798257    0.0000000000    0.0000000000
 H    0.0000000000    0.0000000000    0.0000000000    0.0000000000    0.0000000000    0.0000000000
 H    0.8243343408    0.0000000000    0.0000000000    0.0002636933    0.0000000000    0.0000000000
 PRIMCOORD   2
    3  1
 H   -1.9532245000    0.0000000000    0.0000000000   -0.0037705289    0.0000000000    0.0000000000
 H    0.0000000000    0.0000000000    0.0000000000    0.0000000000    0.0000000000    0.0000000000
 H    0.8316037919    0.0000000000    0.0000000000   -0.0004115296    0.0000000000    0.0000000000
 PRIMCOORD   3
    3  1
 H   -1.5339123374    0.0000000000    0.0000000000   -0.0085348476    0.0000000000    0.0000000000
 H    0.0000000000    0.0000000000    0.0000000000    0.0000000000    0.0000000000    0.0000000000
 H    0.8618012178    0.0000000000    0.0000000000   -0.0047089567    0.0000000000    0.0000000000
 PRIMCOORD   4
    3  1
 H   -1.2004044506    0.0000000000    0.0000000000   -0.0021143893    0.0000000000    0.0000000000
 H    0.0000000000    0.0000000000    0.0000000000    0.0000000000    0.0000000000    0.0000000000
 H    0.9683865992    0.0000000000    0.0000000000   -0.0114543255    0.0000000000    0.0000000000
 PRIMCOORD   5
    3  1
 H   -0.9683865992    0.0000000000    0.0000000000    0.0114543255    0.0000000000    0.0000000000
 H    0.0000000000    0.0000000000    0.0000000000    0.0000000000    0.0000000000    0.0000000000
 H    1.2004044506    0.0000000000    0.0000000000    0.0021143893    0.0000000000    0.0000000000
 PRIMCOORD   6
    3  1
 H   -0.8618012178    0.0000000000    0.0000000000    0.0047089567    0.0000000000    0.0000000000
 H    0.0000000000    0.0000000000    0.0000000000    0.0000000000    0.0000000000    0.0000000000
 H    1.5339123374    0.0000000000    0.0000000000    0.0085348476    0.0000000000    0.0000000000
 PRIMCOORD   7
    3  1
 H   -0.8316037919    0.0000000000    0.0000000000    0.0004115296    0.0000000000    0.0000000000
 H    0.0000000000    0.0000000000    0.0000000000    0.0000000000    0.0000000000    0.0000000000
 H    1.9532245000    0.0000000000    0.0000000000    0.0037705289    0.0000000000    0.0000000000
 PRIMCOORD   8
    3  1
 H   -0.8243343408    0.0000000000    0.0000000000   -0.0002636933    0.0000000000    0.0000000000
 H    0.0000000000    0.0000000000    0.0000000000    0.0000000000    0.0000000000    0.0000000000
 H    2.4165926535    0.0000000000    0.0000000000    0.0006798257    0.0000000000    0.0000000000
