 ANIMSTEPS   8
 CRYSTAL 
 PRIMVEC 
  6.3501240000  0.0000000000  0.0000000000
  0.0000000000  2.6458850000  0.0000000000
  0.0000000000  0.0000000000  2.6458850000
 PRIMCOORD   1
    3  1
 H   -2.4165926535    0.0000000000    0.0000000000   -0.0006725372    0.0000000000    0.0000000000
 H    0.0000000000    0.0000000000    0.0000000000    0.0000000000    0.0000000000    0.0000000000
 H    0.8243343408    0.0000000000    0.0000000000    0.0002419528    0.0000000000    0.0000000000
 PRIMCOORD   2
    3  1
 H   -1.9421106808    0.0000000000    0.0000000000   -0.0016879519    0.0000000000    0.0000000000
 H    0.0000000000    0.0000000000    0.0000000000    0.0000000000    0.0000000000    0.0000000000
 H    0.8320460004    0.0000000000    0.0000000000   -0.0003698180    0.0000000000    0.0000000000
 PRIMCOORD   3
    3  1
 H   -1.5265323303    0.0000000000    0.0000000000    0.0042072535    0.0000000000    0.0000000000
 H    0.0000000000    0.0000000000    0.0000000000    0.0000000000    0.0000000000    0.0000000000
 H    0.8628610303    0.0000000000    0.0000000000   -0.0007498330    0.0000000000    0.0000000000
 PRIMCOORD   4
    3  1
 H   -1.1964138136    0.0000000000    0.0000000000    0.0066961264    0.0000000000    0.0000000000
 H    0.0000000000    0.0000000000    0.0000000000    0.0000000000    0.0000000000    0.0000000000
 H    0.9685716798    0.0000000000    0.0000000000   -0.0017723250    0.0000000000    0.0000000000
 PRIMCOORD   5
    3  1
 H   -0.9685718678    0.0000000000    0.0000000000    0.0017724775    0.0000000000    0.0000000000
 H    0.0000000000    0.0000000000    0.0000000000    0.0000000000    0.0000000000    0.0000000000
 H    1.1964137035    0.0000000000    0.0000000000   -0.0066960529    0.0000000000    0.0000000000
 PRIMCOORD   6
    3  1
 H   -0.8628609558    0.0000000000    0.0000000000    0.0007497134    0.0000000000    0.0000000000
 H    0.0000000000    0.0000000000    0.0000000000    0.0000000000    0.0000000000    0.0000000000
 H    1.5265322086    0.0000000000    0.0000000000   -0.0042074065    0.0000000000    0.0000000000
 PRIMCOORD   7
    3  1
 H   -0.8320459700    0.0000000000    0.0000000000    0.0003698113    0.0000000000    0.0000000000
 H    0.0000000000    0.0000000000    0.0000000000    0.0000000000    0.0000000000    0.0000000000
 H    1.9421105284    0.0000000000    0.0000000000    0.0016882058    0.0000000000    0.0000000000
 PRIMCOORD   8
    3  1
 H   -0.8243343408    0.0000000000    0.0000000000   -0.0002418000    0.0000000000    0.0000000000
 H    0.0000000000    0.0000000000    0.0000000000    0.0000000000    0.0000000000    0.0000000000
 H    2.4165926535    0.0000000000    0.0000000000    0.0006724266    0.0000000000    0.0000000000
