 ANIMSTEPS   8
 CRYSTAL 
 PRIMVEC 
  6.3501240000  0.0000000000  0.0000000000
  0.0000000000  2.6458850000  0.0000000000
  0.0000000000  0.0000000000  2.6458850000
 PRIMCOORD   1
    3  1
 H   -2.4165926535    0.0000000000    0.0000000000   -0.0006811599    0.0000000000    0.0000000000
 H    0.0000000000    0.0000000000    0.0000000000    0.0000000000    0.0000000000    0.0000000000
 H    0.8243343408    0.0000000000    0.0000000000    0.0002656877    0.0000000000    0.0000000000
 PRIMCOORD   2
    3  1
 H   -1.9532248518    0.0000000000    0.0000000000   -0.0037705204    0.0000000000    0.0000000000
 H    0.0000000000    0.0000000000    0.0000000000    0.0000000000    0.0000000000    0.0000000000
 H    0.8316037950    0.0000000000    0.0000000000   -0.0004115428    0.0000000000    0.0000000000
 PRIMCOORD   3
    3  1
 H   -1.5339132016    0.0000000000    0.0000000000   -0.0085348464    0.0000000000    0.0000000000
 H    0.0000000000    0.0000000000    0.0000000000    0.0000000000    0.0000000000    0.0000000000
 H    0.8618010447    0.0000000000    0.0000000000   -0.0047089116    0.0000000000    0.0000000000
 PRIMCOORD   4
    3  1
 H   -1.2004049110    0.0000000000    0.0000000000   -0.0021143383    0.0000000000    0.0000000000
 H    0.0000000000    0.0000000000    0.0000000000    0.0000000000    0.0000000000    0.0000000000
 H    0.9683867527    0.0000000000    0.0000000000   -0.0114544529    0.0000000000    0.0000000000
 PRIMCOORD   5
    3  1
 H   -0.9683872953    0.0000000000    0.0000000000    0.0114543958    0.0000000000    0.0000000000
 H    0.0000000000    0.0000000000    0.0000000000    0.0000000000    0.0000000000    0.0000000000
 H    1.2004037079    0.0000000000    0.0000000000    0.0021143037    0.0000000000    0.0000000000
 PRIMCOORD   6
    3  1
 H   -0.8618011773    0.0000000000    0.0000000000    0.0047089065    0.0000000000    0.0000000000
 H    0.0000000000    0.0000000000    0.0000000000    0.0000000000    0.0000000000    0.0000000000
 H    1.5339119870    0.0000000000    0.0000000000    0.0085348543    0.0000000000    0.0000000000
 PRIMCOORD   7
    3  1
 H   -0.8316038171    0.0000000000    0.0000000000    0.0004115393    0.0000000000    0.0000000000
 H    0.0000000000    0.0000000000    0.0000000000    0.0000000000    0.0000000000    0.0000000000
 H    1.9532240008    0.0000000000    0.0000000000    0.0037705349    0.0000000000    0.0000000000
 PRIMCOORD   8
    3  1
 H   -0.8243343408    0.0000000000    0.0000000000   -0.0002657122    0.0000000000    0.0000000000
 H    0.0000000000    0.0000000000    0.0000000000    0.0000000000    0.0000000000    0.0000000000
 H    2.4165926535    0.0000000000    0.0000000000    0.0006813143    0.0000000000    0.0000000000
