 ANIMSTEPS   8
 CRYSTAL 
 PRIMVEC 
  6.3501240000  0.0000000000  0.0000000000
  0.0000000000  2.6458850000  0.0000000000
  0.0000000000  0.0000000000  2.6458850000
 PRIMCOORD   1
    3  1
 H   -2.4165926535    0.0000000000    0.0000000000   -0.0006812278    0.0000000000    0.0000000000
 H    0.0000000000    0.0000000000    0.0000000000    0.0000000000    0.0000000000    0.0000000000
 H    0.8243343408    0.0000000000    0.0000000000    0.0002656959    0.0000000000    0.0000000000
 PRIMCOORD   2
    3  1
 H   -1.9904235883    0.0000000000    0.0000000000   -0.0033263634    0.0000000000    0.0000000000
 H    0.0000000000    0.0000000000    0.0000000000    0.0000000000    0.0000000000    0.0000000000
 H    0.8305348593    0.0000000000    0.0000000000   -0.0003493513    0.0000000000    0.0000000000
 PRIMCOORD   3
    3  1
 H   -1.5605599237    0.0000000000    0.0000000000   -0.0084802397    0.0000000000    0.0000000000
 H    0.0000000000    0.0000000000    0.0000000000    0.0000000000    0.0000000000    0.0000000000
 H    0.8574247499    0.0000000000    0.0000000000   -0.0037120871    0.0000000000    0.0000000000
 PRIMCOORD   4
    3  1
 H   -1.1962899073    0.0000000000    0.0000000000   -0.0017058757    0.0000000000    0.0000000000
 H    0.0000000000    0.0000000000    0.0000000000    0.0000000000    0.0000000000    0.0000000000
 H    0.9719070882    0.0000000000    0.0000000000   -0.0117220624    0.0000000000    0.0000000000
 PRIMCOORD   5
    3  1
 H   -0.9719056478    0.0000000000    0.0000000000    0.0117221795    0.0000000000    0.0000000000
 H    0.0000000000    0.0000000000    0.0000000000    0.0000000000    0.0000000000    0.0000000000
 H    1.1962928283    0.0000000000    0.0000000000    0.0017059799    0.0000000000    0.0000000000
 PRIMCOORD   6
    3  1
 H   -0.8574245637    0.0000000000    0.0000000000    0.0037120414    0.0000000000    0.0000000000
 H    0.0000000000    0.0000000000    0.0000000000    0.0000000000    0.0000000000    0.0000000000
 H    1.5605611692    0.0000000000    0.0000000000    0.0084802403    0.0000000000    0.0000000000
 PRIMCOORD   7
    3  1
 H   -0.8305348075    0.0000000000    0.0000000000    0.0003493593    0.0000000000    0.0000000000
 H    0.0000000000    0.0000000000    0.0000000000    0.0000000000    0.0000000000    0.0000000000
 H    1.9904240790    0.0000000000    0.0000000000    0.0033262857    0.0000000000    0.0000000000
 PRIMCOORD   8
    3  1
 H   -0.8243343408    0.0000000000    0.0000000000   -0.0002657534    0.0000000000    0.0000000000
 H    0.0000000000    0.0000000000    0.0000000000    0.0000000000    0.0000000000    0.0000000000
 H    2.4165926535    0.0000000000    0.0000000000    0.0006813469    0.0000000000    0.0000000000
