
     Program PHONON v.7.4 starts on 20Jan2025 at  9:21: 6 

     This program is part of the open-source Quantum ESPRESSO suite
     for quantum simulation of materials; please cite
         "P. Giannozzi et al., J. Phys.:Condens. Matter 21 395502 (2009);
         "P. Giannozzi et al., J. Phys.:Condens. Matter 29 465901 (2017);
         "P. Giannozzi et al., J. Chem. Phys. 152 154105 (2020);
          URL http://www.quantum-espresso.org", 
     in publications or presentations arising from this work. More details at
     http://www.quantum-espresso.org/quote

     Parallel version (MPI), running on     1 processors

     MPI processes distributed on     1 nodes
     1213 MiB available memory on the printing compute node when the environment starts

     Waiting for input...
     Reading input from standard input

     Reading xml data from directory:

     ./sic.save/

     Subspace diagonalization in iterative solution of the eigenvalue problem:
     a serial algorithm will be used

     file C.UPF: wavefunction(s)  3d renormalized

     IMPORTANT: XC functional enforced from input :
     Exchange-correlation= PZ
                           (   1   1   0   0   0   0   0)
     Any further DFT definition will be discarded
     Please, verify this is what you really want


     G-vector sticks info
     --------------------
     sticks:   dense  smooth     PW     G-vecs:    dense   smooth      PW
     Sum         187     187     61                 1687     1687     339

     Using Slab Decomposition

     Reading collected, re-writing distributed wavefunctions in ./

     Number and degeneracy of irreps per q-point
       N         xq(1)         xq(2)         xq(3)   N irreps
       1   0.020000000  -0.000000000   0.000000000       6
     No degeneracy

     Saving dvscf to file. Distribute only q points, not irreducible representations.

     Calculation of q =    0.0200000  -0.0000000   0.0000000

     G-vector sticks info
     --------------------
     sticks:   dense  smooth     PW     G-vecs:    dense   smooth      PW
     Sum         187     187     61                 1687     1687     339

     Using Slab Decomposition


     Title: 
     SiC                                                                        


     bravais-lattice index     =            0
     lattice parameter (alat)  =       8.2370  a.u.
     unit-cell volume          =     139.7163 (a.u.)^3
     number of atoms/cell      =            2
     number of atomic types    =            2
     number of electrons       =         8.00
     number of Kohn-Sham states=            4
     kinetic-energy cutoff     =      20.0000  Ry
     charge density cutoff     =      80.0000  Ry
     Exchange-correlation= PZ
                           (   1   1   0   0   0   0   0)

     celldm(1)=   8.237000  celldm(2)=   0.000000  celldm(3)=   0.000000
     celldm(4)=   0.000000  celldm(5)=   0.000000  celldm(6)=   0.000000

     crystal axes: (cart. coord. in units of alat)
               a(1) = (  -0.500000   0.000000   0.500000 )  
               a(2) = (   0.000000   0.500000   0.500000 )  
               a(3) = (  -0.500000   0.500000   0.000000 )  

     reciprocal axes: (cart. coord. in units 2 pi/alat)
               b(1) = ( -1.000000 -1.000000  1.000000 )  
               b(2) = (  1.000000  1.000000  1.000000 )  
               b(3) = ( -1.000000  1.000000 -1.000000 )  


     PseudoPot. # 1 for Si read from file:
     ../../pseudo/Si.pz-vbc.UPF
     MD5 check sum: 9f25e6ff280f3123e9b3a84715b2e9c9
     Pseudo is Norm-conserving, Zval =  4.0
     Generated by new atomic code, or converted to UPF format
     Using radial grid of  431 points,  2 beta functions with: 
                l(1) =   0
                l(2) =   1

     PseudoPot. # 2 for C  read from file:
     ../../pseudo/C.UPF
     MD5 check sum: 4781e8ce5ee01a432381f51d0ea25c53
     Pseudo is Norm-conserving, Zval =  4.0
     Generated by new atomic code, or converted to UPF format
     Using radial grid of  461 points,  2 beta functions with: 
                l(1) =   0
                l(2) =   1

     atomic species   valence    mass     pseudopotential
     Si                4.00    28.08550     Si( 1.00)
     C                 4.00    12.01078     C ( 1.00)

     24 Sym. Ops. (no inversion) found



   Cartesian axes

     site n.     atom                  positions (alat units)
         1        Si     tau(   1) = (   0.0000000   0.0000000   0.0000000  )
         2        C      tau(   2) = (   0.2500000   0.2500000   0.2500000  )

     number of k points=   150

     Number of k-points >= 100: set verbosity='high' to print them.

     Dense  grid:     1687 G-vectors     FFT dimensions: (  18,  18,  18)

     Estimated max dynamical RAM per process >       0.95 MB

     The potential is recalculated from file :
     ./_ph0/sic.save/charge-density

     Starting wfcs are   13 atomic wfcs

     Band Structure Calculation
     Davidson diagonalization with overlap

     ethr =  1.25E-10,  avg # of iterations = 10.2

     total cpu time spent up to now is        1.0 secs

     End of band structure calculation

     Number of k-points >= 100: set verbosity='high' to print the bands.

     highest occupied level (ev):     9.8892

     Writing config to output data dir ./_ph0/sic.save/ :
     XML data file

     SiC                                                                        

     bravais-lattice index     =            0
     lattice parameter (alat)  =       8.2370  a.u.
     unit-cell volume          =     139.7163 (a.u.)^3
     number of atoms/cell      =            2
     number of atomic types    =            2
     kinetic-energy cut-off    =      20.0000  Ry
     charge density cut-off    =      80.0000  Ry
     convergence threshold     =      1.0E-18
     beta                      =       0.7000
     number of iterations used =            4
     Exchange-correlation= PZ
                           (   1   1   0   0   0   0   0)


     celldm(1)=    8.23700  celldm(2)=    0.00000  celldm(3)=    0.00000
     celldm(4)=    0.00000  celldm(5)=    0.00000  celldm(6)=    0.00000

     crystal axes: (cart. coord. in units of alat)
               a(1) = ( -0.5000  0.0000  0.5000 )  
               a(2) = (  0.0000  0.5000  0.5000 )  
               a(3) = ( -0.5000  0.5000  0.0000 )  

     reciprocal axes: (cart. coord. in units 2 pi/alat)
               b(1) = ( -1.0000 -1.0000  1.0000 )  
               b(2) = (  1.0000  1.0000  1.0000 )  
               b(3) = ( -1.0000  1.0000 -1.0000 )  


     Atoms inside the unit cell: 

     Cartesian axes

     site n.  atom      mass           positions (alat units)
        1  Si     28.0855   tau(    1) = (    0.00000    0.00000    0.00000  )
        2  C      12.0108   tau(    2) = (    0.25000    0.25000    0.25000  )

     Computing dynamical matrix for 
                    q = (   0.0200000  -0.0000000   0.0000000 )

      4 Sym.Ops. (no q -> -q+G )


     G cutoff =  137.4891  (   1687 G-vectors)     FFT grid: ( 18, 18, 18)
     number of k points=   150

     PseudoPot. # 1 for Si read from file:
     ../../pseudo/Si.pz-vbc.UPF
     MD5 check sum: 9f25e6ff280f3123e9b3a84715b2e9c9
     Pseudo is Norm-conserving, Zval =  4.0
     Generated by new atomic code, or converted to UPF format
     Using radial grid of  431 points,  2 beta functions with: 
                l(1) =   0
                l(2) =   1

     PseudoPot. # 2 for C  read from file:
     ../../pseudo/C.UPF
     MD5 check sum: 4781e8ce5ee01a432381f51d0ea25c53
     Pseudo is Norm-conserving, Zval =  4.0
     Generated by new atomic code, or converted to UPF format
     Using radial grid of  461 points,  2 beta functions with: 
                l(1) =   0
                l(2) =   1

     Mode symmetry, C_2v (mm2)  point group:


     Atomic displacements:
     There are    6 irreducible representations

     Representation     1      1 modes -  To be done

     Representation     2      1 modes -  To be done

     Representation     3      1 modes -  To be done

     Representation     4      1 modes -  To be done

     Representation     5      1 modes -  To be done

     Representation     6      1 modes -  To be done


     Message from routine init_vloc:
     Interpolation table for Vloc re-allocated
     PHONON       :      1.07s CPU      1.12s WALL



     Representation #   1 mode #   1

     Self-consistent Calculation

      iter #   1 total cpu time :     1.3 secs   av.it.:   1.2
      thresh= 1.000E-02 alpha_mix =  0.700 |ddv_scf|^2 =  1.339E-09

      iter #   2 total cpu time :     1.6 secs   av.it.:   8.8
      thresh= 3.659E-06 alpha_mix =  0.700 |ddv_scf|^2 =  2.446E-11

      iter #   3 total cpu time :     2.0 secs   av.it.:   8.4
      thresh= 4.945E-07 alpha_mix =  0.700 |ddv_scf|^2 =  1.608E-12

      iter #   4 total cpu time :     2.4 secs   av.it.:   8.5
      thresh= 1.268E-07 alpha_mix =  0.700 |ddv_scf|^2 =  1.673E-13

      iter #   5 total cpu time :     2.7 secs   av.it.:   7.8
      thresh= 4.090E-08 alpha_mix =  0.700 |ddv_scf|^2 =  3.156E-15

      iter #   6 total cpu time :     3.1 secs   av.it.:   8.1
      thresh= 5.618E-09 alpha_mix =  0.700 |ddv_scf|^2 =  7.823E-17

      iter #   7 total cpu time :     3.4 secs   av.it.:   7.8
      thresh= 8.845E-10 alpha_mix =  0.700 |ddv_scf|^2 =  1.700E-18

      iter #   8 total cpu time :     3.7 secs   av.it.:   8.0
      thresh= 1.304E-10 alpha_mix =  0.700 |ddv_scf|^2 =  2.827E-20

     End of self-consistent calculation

     Convergence has been achieved 


     Representation #   2 mode #   2

     Self-consistent Calculation

     End of self-consistent calculation

     Convergence has been achieved 


     Representation #   3 mode #   3

     Self-consistent Calculation

     End of self-consistent calculation

     Convergence has been achieved 


     Representation #   4 mode #   4

     Self-consistent Calculation

     End of self-consistent calculation

     Convergence has been achieved 


     Representation #   5 mode #   5

     Self-consistent Calculation

     End of self-consistent calculation

     Convergence has been achieved 


     Representation #   6 mode #   6

     Self-consistent Calculation

     End of self-consistent calculation

     Convergence has been achieved 
 ------------------------------------------------------------------------
  The code is printing the induced charges
  Please refer to:
  Macheda F., Barone P. & Mauri, F. (2024), 
  First-principles calculations of dynamical Born effective charges, quadrupoles,
  and higher order terms from the charge response in large semiconducting and metallic systems
  Physical Review B, 110, 094306. https://doi.org/10.1103/PhysRevB.110.094306
 ------------------------------------------------------------------------

     init_run     :      0.02s CPU      0.02s WALL (       1 calls)
     electrons    :      0.95s CPU      0.99s WALL (       1 calls)

     Called by init_run:
     wfcinit      :      0.00s CPU      0.00s WALL (       1 calls)
     potinit      :      0.00s CPU      0.00s WALL (       1 calls)
     hinit0       :      0.02s CPU      0.02s WALL (       1 calls)

     Called by electrons:
     c_bands      :      0.95s CPU      0.99s WALL (       1 calls)
     v_of_rho     :      0.00s CPU      0.00s WALL (       2 calls)

     Called by c_bands:
     init_us_2    :      0.03s CPU      0.04s WALL (    1350 calls)
     cegterg      :      0.72s CPU      0.76s WALL (     150 calls)

     Called by *egterg:
     cdiaghg      :      0.05s CPU      0.06s WALL (    1676 calls)
     h_psi        :      2.65s CPU      2.77s WALL (    6865 calls)
     g_psi        :      0.00s CPU      0.00s WALL (    1526 calls)

     Called by h_psi:
     h_psi:calbec :      0.06s CPU      0.06s WALL (    6865 calls)
     vloc_psi     :      2.53s CPU      2.65s WALL (    6865 calls)
                                        0.00s GPU  (    6865 calls)
     add_vuspsi   :      0.05s CPU      0.05s WALL (    6865 calls)

     General routines
     calbec       :      0.06s CPU      0.07s WALL (    8965 calls)
     fft          :      0.00s CPU      0.00s WALL (      60 calls)
     ffts         :      0.01s CPU      0.01s WALL (     186 calls)
     fftw         :      2.73s CPU      2.86s WALL (   62546 calls)
     davcio       :      0.02s CPU      0.02s WALL (    3920 calls)

     Parallel routines

     PHONON       :      3.60s CPU      3.79s WALL

     INITIALIZATION: 
     phq_setup    :      0.00s CPU      0.00s WALL (       1 calls)
     phq_init     :      0.02s CPU      0.02s WALL (       1 calls)

     phq_init     :      0.02s CPU      0.02s WALL (       1 calls)
     init_vloc    :      0.02s CPU      0.02s WALL (       2 calls)
     init_us_1    :      0.00s CPU      0.00s WALL (       2 calls)
     init_us_2    :      0.03s CPU      0.04s WALL (    1350 calls)

     DYNAMICAL MATRIX:
     phqscf       :      2.53s CPU      2.67s WALL (       1 calls)

     phqscf       :      2.53s CPU      2.67s WALL (       1 calls)
     solve_linter :      2.50s CPU      2.63s WALL (       6 calls)
     dfpt_kernel  :      2.45s CPU      2.58s WALL (       1 calls)
     sth_kernel   :      2.44s CPU      2.56s WALL (       8 calls)
     h_prec       :      0.00s CPU      0.00s WALL (     600 calls)
     apply_dpot_b :      0.21s CPU      0.22s WALL (     525 calls)
     ortho        :      0.01s CPU      0.01s WALL (     600 calls)
     cgsolve      :      1.95s CPU      2.05s WALL (     600 calls)
     incdrhoscf   :      0.24s CPU      0.25s WALL (     600 calls)
                                        0.00s GPU  (     600 calls)
     dv_of_drho   :      0.00s CPU      0.00s WALL (      14 calls)
     mix_pot      :      0.00s CPU      0.00s WALL (       8 calls)
     drhodv       :      0.03s CPU      0.04s WALL (       6 calls)
     psymdvscf    :      0.00s CPU      0.00s WALL (       8 calls)
     com_dvloc    :      0.00s CPU      0.00s WALL (      36 calls)
                                        0.00s GPU  (      36 calls)
     addcore      :      0.00s CPU      0.00s WALL (       1 calls)
                                        0.00s GPU  (       1 calls)

     dvqpsi_us    :      0.04s CPU      0.04s WALL (      75 calls)
                                        0.00s GPU  (      75 calls)

     add_vuspsi   :      0.05s CPU      0.05s WALL (    6865 calls)


      General routines
     calbec       :      0.06s CPU      0.07s WALL (    8965 calls)
     fft          :      0.00s CPU      0.00s WALL (      60 calls)
     ffts         :      0.01s CPU      0.01s WALL (     186 calls)
     fftw         :      2.73s CPU      2.86s WALL (   62546 calls)
     davcio       :      0.02s CPU      0.02s WALL (    3920 calls)
     write_rec    :      0.00s CPU      0.00s WALL (      14 calls)

      Additional routines
     ch_psi       :      1.92s CPU      2.02s WALL (    5039 calls)
     last         :      0.06s CPU      0.06s WALL (    5039 calls)
     Hesh         :      0.01s CPU      0.01s WALL (    5039 calls)
     ch_psi_all_k :      0.05s CPU      0.05s WALL (    5039 calls)
                                        0.00s GPU  (    5039 calls)
     h_psi_bgrp   :      2.65s CPU      2.78s WALL (    6865 calls)
     h_psi        :      2.65s CPU      2.77s WALL (    6865 calls)
     h_psi:pot    :      2.64s CPU      2.76s WALL (    6865 calls)
     h_psi:calbec :      0.06s CPU      0.06s WALL (    6865 calls)
     s_psi_bgrp   :      0.01s CPU      0.01s WALL (   10678 calls)


     PHONON       :      3.60s CPU      3.79s WALL


   This run was terminated on:   9:21:10  20Jan2025            

=------------------------------------------------------------------------------=
   JOB DONE.
=------------------------------------------------------------------------------=
