
     Program PHONON v.7.4 starts on 12Jan2025 at 13:57:36 

     This program is part of the open-source Quantum ESPRESSO suite
     for quantum simulation of materials; please cite
         "P. Giannozzi et al., J. Phys.:Condens. Matter 21 395502 (2009);
         "P. Giannozzi et al., J. Phys.:Condens. Matter 29 465901 (2017);
         "P. Giannozzi et al., J. Chem. Phys. 152 154105 (2020);
          URL http://www.quantum-espresso.org", 
     in publications or presentations arising from this work. More details at
     http://www.quantum-espresso.org/quote

     Parallel version (MPI), running on     1 processors

     MPI processes distributed on     1 nodes
     1381 MiB available memory on the printing compute node when the environment starts

     Waiting for input...
     Reading input from standard input

     Reading xml data from directory:

     ./sic.save/

     Subspace diagonalization in iterative solution of the eigenvalue problem:
     a serial algorithm will be used

     file C.UPF: wavefunction(s)  3d renormalized

     IMPORTANT: XC functional enforced from input :
     Exchange-correlation= PZ
                           (   1   1   0   0   0   0   0)
     Any further DFT definition will be discarded
     Please, verify this is what you really want


     G-vector sticks info
     --------------------
     sticks:   dense  smooth     PW     G-vecs:    dense   smooth      PW
     Sum         187     187     61                 1687     1687     339

     Using Slab Decomposition

     Reading collected, re-writing distributed wavefunctions in ./

     Number and degeneracy of irreps per q-point
       N         xq(1)         xq(2)         xq(3)   N irreps
       1  -0.003535534   0.003535534   0.003535534       4
        1   1   2   2

     Saving dvscf to file. Distribute only q points, not irreducible representations.

     Calculation of q =   -0.0035355   0.0035355   0.0035355

     G-vector sticks info
     --------------------
     sticks:   dense  smooth     PW     G-vecs:    dense   smooth      PW
     Sum         187     187     61                 1687     1687     339

     Using Slab Decomposition


     Title: 
     SiC                                                                        


     bravais-lattice index     =            0
     lattice parameter (alat)  =       8.2370  a.u.
     unit-cell volume          =     139.7163 (a.u.)^3
     number of atoms/cell      =            2
     number of atomic types    =            2
     number of electrons       =         8.00
     number of Kohn-Sham states=            4
     kinetic-energy cutoff     =      20.0000  Ry
     charge density cutoff     =      80.0000  Ry
     Exchange-correlation= PZ
                           (   1   1   0   0   0   0   0)

     celldm(1)=   8.237000  celldm(2)=   0.000000  celldm(3)=   0.000000
     celldm(4)=   0.000000  celldm(5)=   0.000000  celldm(6)=   0.000000

     crystal axes: (cart. coord. in units of alat)
               a(1) = (  -0.500000   0.000000   0.500000 )  
               a(2) = (   0.000000   0.500000   0.500000 )  
               a(3) = (  -0.500000   0.500000   0.000000 )  

     reciprocal axes: (cart. coord. in units 2 pi/alat)
               b(1) = ( -1.000000 -1.000000  1.000000 )  
               b(2) = (  1.000000  1.000000  1.000000 )  
               b(3) = ( -1.000000  1.000000 -1.000000 )  


     PseudoPot. # 1 for Si read from file:
     ../../pseudo/Si.pz-vbc.UPF
     MD5 check sum: 9f25e6ff280f3123e9b3a84715b2e9c9
     Pseudo is Norm-conserving, Zval =  4.0
     Generated by new atomic code, or converted to UPF format
     Using radial grid of  431 points,  2 beta functions with: 
                l(1) =   0
                l(2) =   1

     PseudoPot. # 2 for C  read from file:
     ../../pseudo/C.UPF
     MD5 check sum: 4781e8ce5ee01a432381f51d0ea25c53
     Pseudo is Norm-conserving, Zval =  4.0
     Generated by new atomic code, or converted to UPF format
     Using radial grid of  461 points,  2 beta functions with: 
                l(1) =   0
                l(2) =   1

     atomic species   valence    mass     pseudopotential
     Si                4.00    28.08550     Si( 1.00)
     C                 4.00    12.01078     C ( 1.00)

     24 Sym. Ops. (no inversion) found



   Cartesian axes

     site n.     atom                  positions (alat units)
         1        Si     tau(   1) = (   0.0000000   0.0000000   0.0000000  )
         2        C      tau(   2) = (   0.2500000   0.2500000   0.2500000  )

     number of k points=   112

     Number of k-points >= 100: set verbosity='high' to print them.

     Dense  grid:     1687 G-vectors     FFT dimensions: (  18,  18,  18)

     Estimated max dynamical RAM per process >       0.95 MB

     The potential is recalculated from file :
     ./_ph0/sic.save/charge-density

     Starting wfcs are   13 atomic wfcs

     Band Structure Calculation
     Davidson diagonalization with overlap

     ethr =  1.25E-10,  avg # of iterations = 10.2

     total cpu time spent up to now is        0.8 secs

     End of band structure calculation

     Number of k-points >= 100: set verbosity='high' to print the bands.

     highest occupied level (ev):     9.8892

     Writing config to output data dir ./_ph0/sic.save/ :
     XML data file

     SiC                                                                        

     bravais-lattice index     =            0
     lattice parameter (alat)  =       8.2370  a.u.
     unit-cell volume          =     139.7163 (a.u.)^3
     number of atoms/cell      =            2
     number of atomic types    =            2
     kinetic-energy cut-off    =      20.0000  Ry
     charge density cut-off    =      80.0000  Ry
     convergence threshold     =      1.0E-18
     beta                      =       0.7000
     number of iterations used =            4
     Exchange-correlation= PZ
                           (   1   1   0   0   0   0   0)


     celldm(1)=    8.23700  celldm(2)=    0.00000  celldm(3)=    0.00000
     celldm(4)=    0.00000  celldm(5)=    0.00000  celldm(6)=    0.00000

     crystal axes: (cart. coord. in units of alat)
               a(1) = ( -0.5000  0.0000  0.5000 )  
               a(2) = (  0.0000  0.5000  0.5000 )  
               a(3) = ( -0.5000  0.5000  0.0000 )  

     reciprocal axes: (cart. coord. in units 2 pi/alat)
               b(1) = ( -1.0000 -1.0000  1.0000 )  
               b(2) = (  1.0000  1.0000  1.0000 )  
               b(3) = ( -1.0000  1.0000 -1.0000 )  


     Atoms inside the unit cell: 

     Cartesian axes

     site n.  atom      mass           positions (alat units)
        1  Si     28.0855   tau(    1) = (    0.00000    0.00000    0.00000  )
        2  C      12.0108   tau(    2) = (    0.25000    0.25000    0.25000  )

     Computing dynamical matrix for 
                    q = (  -0.0035355   0.0035355   0.0035355 )

      6 Sym.Ops. (no q -> -q+G )


     G cutoff =  137.4891  (   1687 G-vectors)     FFT grid: ( 18, 18, 18)
     number of k points=   112

     PseudoPot. # 1 for Si read from file:
     ../../pseudo/Si.pz-vbc.UPF
     MD5 check sum: 9f25e6ff280f3123e9b3a84715b2e9c9
     Pseudo is Norm-conserving, Zval =  4.0
     Generated by new atomic code, or converted to UPF format
     Using radial grid of  431 points,  2 beta functions with: 
                l(1) =   0
                l(2) =   1

     PseudoPot. # 2 for C  read from file:
     ../../pseudo/C.UPF
     MD5 check sum: 4781e8ce5ee01a432381f51d0ea25c53
     Pseudo is Norm-conserving, Zval =  4.0
     Generated by new atomic code, or converted to UPF format
     Using radial grid of  461 points,  2 beta functions with: 
                l(1) =   0
                l(2) =   1

     Mode symmetry, C_3v (3m)   point group:


     Atomic displacements:
     There are    4 irreducible representations

     Representation     1      1 modes -  To be done

     Representation     2      1 modes -  To be done

     Representation     3      2 modes -  To be done

     Representation     4      2 modes -  To be done


     Message from routine init_vloc:
     Interpolation table for Vloc re-allocated
     PHONON       :      0.85s CPU      0.87s WALL



     Representation #   1 mode #   1

     Self-consistent Calculation

      iter #   1 total cpu time :     1.0 secs   av.it.:   1.0
      thresh= 1.000E-02 alpha_mix =  0.700 |ddv_scf|^2 =  2.034E-11

      iter #   2 total cpu time :     1.3 secs   av.it.:   9.8
      thresh= 4.510E-07 alpha_mix =  0.700 |ddv_scf|^2 =  6.394E-11

      iter #   3 total cpu time :     1.5 secs   av.it.:   7.0
      thresh= 7.996E-07 alpha_mix =  0.700 |ddv_scf|^2 =  1.083E-10

      iter #   4 total cpu time :     1.8 secs   av.it.:   8.3
      thresh= 1.041E-06 alpha_mix =  0.700 |ddv_scf|^2 =  1.333E-12

      iter #   5 total cpu time :     2.0 secs   av.it.:   8.4
      thresh= 1.154E-07 alpha_mix =  0.700 |ddv_scf|^2 =  1.387E-13

      iter #   6 total cpu time :     2.3 secs   av.it.:   8.2
      thresh= 3.724E-08 alpha_mix =  0.700 |ddv_scf|^2 =  8.076E-15

      iter #   7 total cpu time :     2.6 secs   av.it.:   8.2
      thresh= 8.987E-09 alpha_mix =  0.700 |ddv_scf|^2 =  1.435E-18

      iter #   8 total cpu time :     2.8 secs   av.it.:   7.6
      thresh= 1.198E-10 alpha_mix =  0.700 |ddv_scf|^2 =  1.598E-20

     End of self-consistent calculation

     Convergence has been achieved 


     Representation #   2 mode #   2

     Self-consistent Calculation

     End of self-consistent calculation

     Convergence has been achieved 


     Representation #   3 modes #   3   4

     Self-consistent Calculation

     End of self-consistent calculation

     Convergence has been achieved 


     Representation #   4 modes #   5   6

     Self-consistent Calculation

     End of self-consistent calculation

     Convergence has been achieved 
 ------------------------------------------------------------------------
  The code is printing the induced charges
  Please refer to:
  Macheda F., Barone P. & Mauri, F. (2024), 
  First-principles calculations of dynamical Born effective charges, quadrupoles,
  and higher order terms from the charge response in large semiconducting and metallic systems
  Physical Review B, 110, 094306. https://doi.org/10.1103/PhysRevB.110.094306
 ------------------------------------------------------------------------

     init_run     :      0.02s CPU      0.02s WALL (       1 calls)
     electrons    :      0.72s CPU      0.74s WALL (       1 calls)

     Called by init_run:
     wfcinit      :      0.00s CPU      0.00s WALL (       1 calls)
     potinit      :      0.00s CPU      0.00s WALL (       1 calls)
     hinit0       :      0.02s CPU      0.02s WALL (       1 calls)

     Called by electrons:
     c_bands      :      0.72s CPU      0.74s WALL (       1 calls)
     v_of_rho     :      0.00s CPU      0.00s WALL (       2 calls)

     Called by c_bands:
     init_us_2    :      0.02s CPU      0.02s WALL (     896 calls)
     cegterg      :      0.55s CPU      0.56s WALL (     112 calls)

     Called by *egterg:
     cdiaghg      :      0.04s CPU      0.04s WALL (    1258 calls)
     h_psi        :      2.01s CPU      2.06s WALL (    5076 calls)
     g_psi        :      0.00s CPU      0.00s WALL (    1146 calls)

     Called by h_psi:
     h_psi:calbec :      0.04s CPU      0.04s WALL (    5076 calls)
     vloc_psi     :      1.92s CPU      1.97s WALL (    5076 calls)
                                        0.00s GPU  (    5076 calls)
     add_vuspsi   :      0.03s CPU      0.04s WALL (    5076 calls)

     General routines
     calbec       :      0.05s CPU      0.05s WALL (    6644 calls)
     fft          :      0.00s CPU      0.00s WALL (      50 calls)
     ffts         :      0.01s CPU      0.01s WALL (     136 calls)
     fftw         :      2.08s CPU      2.13s WALL (   46466 calls)
     davcio       :      0.02s CPU      0.02s WALL (    2951 calls)

     Parallel routines

     PHONON       :      2.79s CPU      2.86s WALL

     INITIALIZATION: 
     phq_setup    :      0.00s CPU      0.00s WALL (       1 calls)
     phq_init     :      0.02s CPU      0.02s WALL (       1 calls)

     phq_init     :      0.02s CPU      0.02s WALL (       1 calls)
     init_vloc    :      0.02s CPU      0.02s WALL (       2 calls)
     init_us_1    :      0.00s CPU      0.00s WALL (       2 calls)
     init_us_2    :      0.02s CPU      0.02s WALL (     896 calls)

     DYNAMICAL MATRIX:
     phqscf       :      1.94s CPU      1.99s WALL (       1 calls)

     phqscf       :      1.94s CPU      1.99s WALL (       1 calls)
     solve_linter :      1.91s CPU      1.96s WALL (       4 calls)
     dfpt_kernel  :      1.88s CPU      1.92s WALL (       1 calls)
     sth_kernel   :      1.86s CPU      1.90s WALL (       8 calls)
     h_prec       :      0.00s CPU      0.00s WALL (     448 calls)
     apply_dpot_b :      0.16s CPU      0.16s WALL (     392 calls)
     ortho        :      0.00s CPU      0.00s WALL (     448 calls)
     cgsolve      :      1.48s CPU      1.52s WALL (     448 calls)
     incdrhoscf   :      0.18s CPU      0.19s WALL (     448 calls)
                                        0.00s GPU  (     448 calls)
     dv_of_drho   :      0.00s CPU      0.00s WALL (      12 calls)
     mix_pot      :      0.00s CPU      0.00s WALL (       8 calls)
     drhodv       :      0.02s CPU      0.02s WALL (       4 calls)
     psymdvscf    :      0.01s CPU      0.01s WALL (      16 calls)
     com_dvloc    :      0.00s CPU      0.00s WALL (      24 calls)
                                        0.00s GPU  (      24 calls)
     addcore      :      0.00s CPU      0.00s WALL (       1 calls)
                                        0.00s GPU  (       1 calls)

     dvqpsi_us    :      0.03s CPU      0.03s WALL (      56 calls)
                                        0.00s GPU  (      56 calls)

     add_vuspsi   :      0.03s CPU      0.04s WALL (    5076 calls)


      General routines
     calbec       :      0.05s CPU      0.05s WALL (    6644 calls)
     fft          :      0.00s CPU      0.00s WALL (      50 calls)
     ffts         :      0.01s CPU      0.01s WALL (     136 calls)
     fftw         :      2.08s CPU      2.13s WALL (   46466 calls)
     davcio       :      0.02s CPU      0.02s WALL (    2951 calls)
     write_rec    :      0.00s CPU      0.00s WALL (      12 calls)

      Additional routines
     ch_psi       :      1.46s CPU      1.50s WALL (    3706 calls)
     last         :      0.04s CPU      0.05s WALL (    3706 calls)
     Hesh         :      0.00s CPU      0.00s WALL (    3706 calls)
     ch_psi_all_k :      0.03s CPU      0.04s WALL (    3706 calls)
                                        0.00s GPU  (    3706 calls)
     h_psi_bgrp   :      2.02s CPU      2.06s WALL (    5076 calls)
     h_psi        :      2.01s CPU      2.06s WALL (    5076 calls)
     h_psi:pot    :      2.01s CPU      2.05s WALL (    5076 calls)
     h_psi:calbec :      0.04s CPU      0.04s WALL (    5076 calls)
     s_psi_bgrp   :      0.00s CPU      0.00s WALL (    7860 calls)


     PHONON       :      2.79s CPU      2.86s WALL


   This run was terminated on:  13:57:39  12Jan2025            

=------------------------------------------------------------------------------=
   JOB DONE.
=------------------------------------------------------------------------------=
postprocessing.out
Started on 2025-01-12 13:57:40.052855
 __  __       _ _   _             _
|  \/  |_   _| | |_(_)_ __   ___ | | ___
| |\/| | | | | | __| | '_ \ / _ \| |/ _ \
| |  | | |_| | | |_| | |_) | (_) | |  __/
|_|  |_|\__,_|_|\__|_| .__/ \___/|_|\___|
                     |_|                 0.1.0
System: CSi
Space group: F-43m (216), 24 symmetry operations found.
Reading and generating multipole space from file up to dynamical quadrupoles.
Atoms to be calculated:
- Index 0 | Si
- Index 1 | C
Reconstructing null space of multipole symmetry from file.
Summary of multipole tensors:
- Born effective charges
  Size: 18  | Free: 1  
- Quadrupoles
  Size: 54  | Free: 2  
- Total number of free components: 3
Reconstructing null space of dielectric symmetry from file.
Summary of dielectric tensors:
- Dielectric permittivity tensor
  Size: 9   | Free: 1  
- Dielectric dispersion tensor
  Size: 81  | Free: 2  
- Total number of free components: 3
Reconstructing sensing matrix of multipole expansion from file.
Starting to fit multipole and dielectric tensors by a linear model.
Reading inverse dielectric function, 8 q-points.
- drhodv.dat.01 read successfully.
- drhodv.dat.02 read successfully.
- drhodv.dat.03 read successfully.
- drhodv.dat.04 read successfully.
- drhodv.dat.05 read successfully.
- drhodv.dat.06 read successfully.
- drhodv.dat.07 read successfully.
- drhodv.dat.08 read successfully.
Reading charge density response, 8 q-points.
- drho.dat.01 read successfully.
- drho.dat.02 read successfully.
- drho.dat.03 read successfully.
- drho.dat.04 read successfully.
- drho.dat.05 read successfully.
- drho.dat.06 read successfully.
- drho.dat.07 read successfully.
- drho.dat.08 read successfully.
Fitting multipole tensors via the ordinary least-square.
Summary of multipole tensors fitting:
- Free multipole components: 3
- Rank of coefficient matrix: 3
- RMSE: 0.0003559016957399153 |e| / bohr^3
- Mean relative error: 0.11863942018880387
- Relative norm error: 0.04136345392068712
- r2 score: 0.9982890645165146
Writing multipole tensors into files.
Multipole tensor fitting finished, time elapsed: 0:00:00.000925
Fitting dielectric tensors via the ordinary least-square.
Summary of dielectric tensors fitting:
- Free dielectric components: 3
- Rank of coefficient matrix: 2
- RMSE: 1.2431949506382477e-12
- Mean relative error: 9.82847514013902e-10
- Relative norm error: 1.062885756474235e-09
- r2 score: 1.0
Writing dielectric tensors into files.
Dielectric tensor fitting finished, time elapsed: 0:00:00.000500
Finshed on 2025-01-12 13:57:40.083128, total time elapsed: 0:00:00.030273
####################################################################################
# You are using `Multipole` program developed in the work:                         #
# C. Lin, S. Ponce, F. Macheda, F. Mauri, and N. Marzari, https://arxiv.org/abs/2412.18482 (2024). #
# Please consider to cite it if you find the program useful.                       #
####################################################################################
epsilon.fmt
  2
        8.353615292963079        0.000000000000000        0.000000000000000
        0.000000000000000        8.353615292963079        0.000000000000000
        0.000000000000000        0.000000000000000        8.353615292963079
  4
    1    1    1    1     -127.802942522180047
    1    1    1    2        0.000000000000000
    1    1    1    3        0.000000000000000
    1    1    2    1        0.000000000000000
    1    1    2    2      -14.200218932034200
    1    1    2    3        0.000000000000000
    1    1    3    1        0.000000000000000
    1    1    3    2        0.000000000000000
    1    1    3    3      -14.200218932034202
    1    2    1    1        0.000000000000000
    1    2    1    2      -14.200218932034200
    1    2    1    3        0.000000000000000
    1    2    2    1      -14.200218932034202
    1    2    2    2        0.000000000000000
    1    2    2    3        0.000000000000000
    1    2    3    1        0.000000000000000
    1    2    3    2        0.000000000000000
    1    2    3    3        0.000000000000000
    1    3    1    1        0.000000000000000
    1    3    1    2        0.000000000000000
    1    3    1    3      -14.200218932034202
    1    3    2    1        0.000000000000000
    1    3    2    2        0.000000000000000
    1    3    2    3        0.000000000000000
    1    3    3    1      -14.200218932034206
    1    3    3    2        0.000000000000000
    1    3    3    3        0.000000000000000
    2    1    1    1        0.000000000000000
    2    1    1    2      -14.200218932034202
    2    1    1    3        0.000000000000000
    2    1    2    1      -14.200218932034200
    2    1    2    2        0.000000000000000
    2    1    2    3        0.000000000000000
    2    1    3    1        0.000000000000000
    2    1    3    2        0.000000000000000
    2    1    3    3        0.000000000000000
    2    2    1    1      -14.200218932034200
    2    2    1    2        0.000000000000000
    2    2    1    3        0.000000000000000
    2    2    2    1        0.000000000000000
    2    2    2    2     -127.802942522180047
    2    2    2    3        0.000000000000000
    2    2    3    1        0.000000000000000
    2    2    3    2        0.000000000000000
    2    2    3    3      -14.200218932034202
    2    3    1    1        0.000000000000000
    2    3    1    2        0.000000000000000
    2    3    1    3        0.000000000000000
    2    3    2    1        0.000000000000000
    2    3    2    2        0.000000000000000
    2    3    2    3      -14.200218932034202
    2    3    3    1        0.000000000000000
    2    3    3    2      -14.200218932034206
    2    3    3    3        0.000000000000000
    3    1    1    1        0.000000000000000
    3    1    1    2        0.000000000000000
    3    1    1    3      -14.200218932034202
    3    1    2    1        0.000000000000000
    3    1    2    2        0.000000000000000
    3    1    2    3        0.000000000000000
    3    1    3    1      -14.200218932034200
    3    1    3    2        0.000000000000000
    3    1    3    3        0.000000000000000
    3    2    1    1        0.000000000000000
    3    2    1    2        0.000000000000000
    3    2    1    3        0.000000000000000
    3    2    2    1        0.000000000000000
    3    2    2    2        0.000000000000000
    3    2    2    3      -14.200218932034202
    3    2    3    1        0.000000000000000
    3    2    3    2      -14.200218932034200
    3    2    3    3        0.000000000000000
    3    3    1    1      -14.200218932034200
    3    3    1    2        0.000000000000000
    3    3    1    3        0.000000000000000
    3    3    2    1        0.000000000000000
    3    3    2    2      -14.200218932034200
    3    3    2    3        0.000000000000000
    3    3    3    1        0.000000000000000
    3    3    3    2        0.000000000000000
    3    3    3    3     -127.802942522180047
born_charge.fmt
    1
        1.840333960360303        0.000000000000000        0.000000000000000
        0.000000000000000        1.840333960360303        0.000000000000000
        0.000000000000000        0.000000000000000        1.840333960360303
    2
       -1.840333960360303        0.000000000000000        0.000000000000000
        0.000000000000000       -1.840333960360303        0.000000000000000
        0.000000000000000        0.000000000000000       -1.840333960360303
quadrupole.fmt
  atom   dir                Qxx                      Qyy                      Qzz                      Qyz                      Qxz                      Qxy       
   1      1          0.000000000000000        0.000000000000000        0.000000000000000        4.597252303072437        0.000000000000000        0.000000000000000
   1      2          0.000000000000000        0.000000000000000        0.000000000000000        0.000000000000000        4.597252303072437        0.000000000000000
   1      3          0.000000000000000        0.000000000000000        0.000000000000000        0.000000000000000        0.000000000000000        4.597252303072437
   2      1          0.000000000000000        0.000000000000000        0.000000000000000       -1.569301749554007        0.000000000000000        0.000000000000000
   2      2          0.000000000000000        0.000000000000000        0.000000000000000        0.000000000000000       -1.569301749554007        0.000000000000000
   2      3          0.000000000000000        0.000000000000000        0.000000000000000        0.000000000000000        0.000000000000000       -1.569301749554007
