
     Program PWSCF v.7.0 starts on 23Feb2022 at 13: 0:32 

     This program is part of the open-source Quantum ESPRESSO suite
     for quantum simulation of materials; please cite
         "P. Giannozzi et al., J. Phys.:Condens. Matter 21 395502 (2009);
         "P. Giannozzi et al., J. Phys.:Condens. Matter 29 465901 (2017);
         "P. Giannozzi et al., J. Chem. Phys. 152 154105 (2020);
          URL http://www.quantum-espresso.org", 
     in publications or presentations arising from this work. More details at
     http://www.quantum-espresso.org/quote

     Parallel version (MPI), running on     8 processors

     MPI processes distributed on     1 nodes
     46491 MiB available memory on the printing compute node when the environment starts
 
     Waiting for input...
     Reading input from standard input

     Current dimensions of program PWSCF are:
     Max number of different atomic species (ntypx) = 10
     Max number of k-points (npk) =  40000
     Max angular momentum in pseudopotentials (lmaxx) =  4

     Atomic positions and unit cell read from directory:
     /scratch/timrov/QE_gitlab/tmp6/q-e/tempdir/Fe.save/
 

     Fixed quantization axis for GGA:     1.000000    0.000000    0.000000
 
     R & G space division:  proc/nbgrp/npool/nimage =       8
     Subspace diagonalization in iterative solution of the eigenvalue problem:
     a serial algorithm will be used

 
     Parallelization info
     --------------------
     sticks:   dense  smooth     PW     G-vecs:    dense   smooth      PW
     Min          81      49     16                 1344      626     119
     Max          83      50     17                 1346      628     122
     Sum         657     399    129                10761     5017     959
 
     Using Slab Decomposition
 


     bravais-lattice index     =            3
     lattice parameter (alat)  =       5.4200  a.u.
     unit-cell volume          =      79.6100 (a.u.)^3
     number of atoms/cell      =            1
     number of atomic types    =            1
     number of electrons       =        16.00
     number of Kohn-Sham states=           24
     kinetic-energy cutoff     =      60.0000  Ry
     charge density cutoff     =     400.0000  Ry
     Exchange-correlation= PBE
                           (   1   4   3   4   0   0   0)
     Noncollinear calculation with spin-orbit

     Hubbard projectors: atomic
     Hubbard parameters of DFT+U (Liechtenstein formulation) in eV:
     U(Fe-3d) =  2.2000
     J(Fe-3d) =  1.7500
     B(Fe-3d) =  0.2009
     DFT+U on averaged j=l+1/2,l-1/2 radial WFs

     Internal variables: lda_plus_u = T, lda_plus_u_kind = 1

     celldm(1)=   5.420000  celldm(2)=   0.000000  celldm(3)=   0.000000
     celldm(4)=   0.000000  celldm(5)=   0.000000  celldm(6)=   0.000000

     crystal axes: (cart. coord. in units of alat)
               a(1) = (   0.500000   0.500000   0.500000 )  
               a(2) = (  -0.500000   0.500000   0.500000 )  
               a(3) = (  -0.500000  -0.500000   0.500000 )  

     reciprocal axes: (cart. coord. in units 2 pi/alat)
               b(1) = (  1.000000  0.000000  1.000000 )  
               b(2) = ( -1.000000  1.000000  0.000000 )  
               b(3) = (  0.000000 -1.000000  1.000000 )  


     PseudoPot. # 1 for Fe read from file:
     /scratch/timrov/QE_gitlab/tmp6/q-e/pseudo/Fe.rel-pbe-spn-rrkjus_psl.0.2.1.UPF
     MD5 check sum: d52b7f5db05852f7cd370f850bf86523
     Pseudo is Ultrasoft + core correction, Zval = 16.0
     Generated using "atomic" code by A. Dal Corso  v.5.0.2 svn rev. 9415
     Using radial grid of 1191 points, 10 beta functions with: 
                l(1) =   0
                l(2) =   0
                l(3) =   1
                l(4) =   1
                l(5) =   1
                l(6) =   1
                l(7) =   2
                l(8) =   2
                l(9) =   2
               l(10) =   2
     Q(r) pseudized with 0 coefficients 


     atomic species   valence    mass     pseudopotential
        Fe            16.00    55.84500     Fe( 1.00)

     16 Sym. Ops., with inversion, found



   Cartesian axes

     site n.     atom                  positions (alat units)
         1           Fe  tau(   1) = (   0.0000000   0.0000000   0.0000000  )

     number of k points=    81  Marzari-Vanderbilt smearing, width (Ry)=  0.0400
                       cart. coord. in units 2pi/alat
        k(    1) = (   1.0000000   0.0000000   0.0000000), wk =   0.0123457
        k(    2) = (   0.9750000   0.0000000   0.0000000), wk =   0.0123457
        k(    3) = (   0.9500000   0.0000000   0.0000000), wk =   0.0123457
        k(    4) = (   0.9250000   0.0000000   0.0000000), wk =   0.0123457
        k(    5) = (   0.9000000   0.0000000   0.0000000), wk =   0.0123457
        k(    6) = (   0.8750000   0.0000000   0.0000000), wk =   0.0123457
        k(    7) = (   0.8500000   0.0000000   0.0000000), wk =   0.0123457
        k(    8) = (   0.8250000   0.0000000   0.0000000), wk =   0.0123457
        k(    9) = (   0.8000000   0.0000000   0.0000000), wk =   0.0123457
        k(   10) = (   0.7750000   0.0000000   0.0000000), wk =   0.0123457
        k(   11) = (   0.7500000   0.0000000   0.0000000), wk =   0.0123457
        k(   12) = (   0.7250000   0.0000000   0.0000000), wk =   0.0123457
        k(   13) = (   0.7000000   0.0000000   0.0000000), wk =   0.0123457
        k(   14) = (   0.6750000   0.0000000   0.0000000), wk =   0.0123457
        k(   15) = (   0.6500000   0.0000000   0.0000000), wk =   0.0123457
        k(   16) = (   0.6250000   0.0000000   0.0000000), wk =   0.0123457
        k(   17) = (   0.6000000   0.0000000   0.0000000), wk =   0.0123457
        k(   18) = (   0.5750000   0.0000000   0.0000000), wk =   0.0123457
        k(   19) = (   0.5500000   0.0000000   0.0000000), wk =   0.0123457
        k(   20) = (   0.5250000   0.0000000   0.0000000), wk =   0.0123457
        k(   21) = (   0.5000000   0.0000000   0.0000000), wk =   0.0123457
        k(   22) = (   0.4750000   0.0000000   0.0000000), wk =   0.0123457
        k(   23) = (   0.4500000   0.0000000   0.0000000), wk =   0.0123457
        k(   24) = (   0.4250000   0.0000000   0.0000000), wk =   0.0123457
        k(   25) = (   0.4000000   0.0000000   0.0000000), wk =   0.0123457
        k(   26) = (   0.3750000   0.0000000   0.0000000), wk =   0.0123457
        k(   27) = (   0.3500000   0.0000000   0.0000000), wk =   0.0123457
        k(   28) = (   0.3250000   0.0000000   0.0000000), wk =   0.0123457
        k(   29) = (   0.3000000   0.0000000   0.0000000), wk =   0.0123457
        k(   30) = (   0.2750000   0.0000000   0.0000000), wk =   0.0123457
        k(   31) = (   0.2500000   0.0000000   0.0000000), wk =   0.0123457
        k(   32) = (   0.2250000   0.0000000   0.0000000), wk =   0.0123457
        k(   33) = (   0.2000000   0.0000000   0.0000000), wk =   0.0123457
        k(   34) = (   0.1750000   0.0000000   0.0000000), wk =   0.0123457
        k(   35) = (   0.1500000   0.0000000   0.0000000), wk =   0.0123457
        k(   36) = (   0.1250000   0.0000000   0.0000000), wk =   0.0123457
        k(   37) = (   0.1000000   0.0000000   0.0000000), wk =   0.0123457
        k(   38) = (   0.0750000   0.0000000   0.0000000), wk =   0.0123457
        k(   39) = (   0.0500000   0.0000000   0.0000000), wk =   0.0123457
        k(   40) = (   0.0250000   0.0000000   0.0000000), wk =   0.0123457
        k(   41) = (   0.0000000   0.0000000   0.0000000), wk =   0.0123457
        k(   42) = (   0.0000000   0.0000000   0.0250000), wk =   0.0123457
        k(   43) = (   0.0000000   0.0000000   0.0500000), wk =   0.0123457
        k(   44) = (   0.0000000   0.0000000   0.0750000), wk =   0.0123457
        k(   45) = (   0.0000000   0.0000000   0.1000000), wk =   0.0123457
        k(   46) = (   0.0000000   0.0000000   0.1250000), wk =   0.0123457
        k(   47) = (   0.0000000   0.0000000   0.1500000), wk =   0.0123457
        k(   48) = (   0.0000000   0.0000000   0.1750000), wk =   0.0123457
        k(   49) = (   0.0000000   0.0000000   0.2000000), wk =   0.0123457
        k(   50) = (   0.0000000   0.0000000   0.2250000), wk =   0.0123457
        k(   51) = (   0.0000000   0.0000000   0.2500000), wk =   0.0123457
        k(   52) = (   0.0000000   0.0000000   0.2750000), wk =   0.0123457
        k(   53) = (   0.0000000   0.0000000   0.3000000), wk =   0.0123457
        k(   54) = (   0.0000000   0.0000000   0.3250000), wk =   0.0123457
        k(   55) = (   0.0000000   0.0000000   0.3500000), wk =   0.0123457
        k(   56) = (   0.0000000   0.0000000   0.3750000), wk =   0.0123457
        k(   57) = (   0.0000000   0.0000000   0.4000000), wk =   0.0123457
        k(   58) = (   0.0000000   0.0000000   0.4250000), wk =   0.0123457
        k(   59) = (   0.0000000   0.0000000   0.4500000), wk =   0.0123457
        k(   60) = (   0.0000000   0.0000000   0.4750000), wk =   0.0123457
        k(   61) = (   0.0000000   0.0000000   0.5000000), wk =   0.0123457
        k(   62) = (   0.0000000   0.0000000   0.5250000), wk =   0.0123457
        k(   63) = (   0.0000000   0.0000000   0.5500000), wk =   0.0123457
        k(   64) = (   0.0000000   0.0000000   0.5750000), wk =   0.0123457
        k(   65) = (   0.0000000   0.0000000   0.6000000), wk =   0.0123457
        k(   66) = (   0.0000000   0.0000000   0.6250000), wk =   0.0123457
        k(   67) = (   0.0000000   0.0000000   0.6500000), wk =   0.0123457
        k(   68) = (   0.0000000   0.0000000   0.6750000), wk =   0.0123457
        k(   69) = (   0.0000000   0.0000000   0.7000000), wk =   0.0123457
        k(   70) = (   0.0000000   0.0000000   0.7250000), wk =   0.0123457
        k(   71) = (   0.0000000   0.0000000   0.7500000), wk =   0.0123457
        k(   72) = (   0.0000000   0.0000000   0.7750000), wk =   0.0123457
        k(   73) = (   0.0000000   0.0000000   0.8000000), wk =   0.0123457
        k(   74) = (   0.0000000   0.0000000   0.8250000), wk =   0.0123457
        k(   75) = (   0.0000000   0.0000000   0.8500000), wk =   0.0123457
        k(   76) = (   0.0000000   0.0000000   0.8750000), wk =   0.0123457
        k(   77) = (   0.0000000   0.0000000   0.9000000), wk =   0.0123457
        k(   78) = (   0.0000000   0.0000000   0.9250000), wk =   0.0123457
        k(   79) = (   0.0000000   0.0000000   0.9500000), wk =   0.0123457
        k(   80) = (   0.0000000   0.0000000   0.9750000), wk =   0.0123457
        k(   81) = (   0.0000000   0.0000000   1.0000000), wk =   0.0123457

     Dense  grid:    10761 G-vectors     FFT dimensions: (  30,  30,  30)

     Smooth grid:     5017 G-vectors     FFT dimensions: (  24,  24,  24)

     Estimated max dynamical RAM per process >      17.89 MB

     Estimated total dynamical RAM >     143.16 MB

     Check: negative core charge=   -0.000051
     Generating pointlists ...
     new r_m :   0.3572 (alat units)  1.9362 (a.u.) for type    1

     The potential is recalculated from file :
     /scratch/timrov/QE_gitlab/tmp6/q-e/tempdir/Fe.save/charge-density


     STARTING HUBBARD OCCUPATIONS:

     ================= HUBBARD OCCUPATIONS ================
     ------------------------ ATOM    1 ------------------------
     Tr[ns(  1)] (up, down, total) =   3.59459  3.59459  7.18919
     eigenvalues:
       0.292  0.293  0.662  0.680  0.701  0.861  0.866  0.871  0.981  0.981
     eigenvectors (columns):
       0.000 -0.000  0.000 -0.000 -0.000 -0.000 -0.000 -0.000 -0.000 -0.000
       0.000 -0.000  0.000 -0.000 -0.000  0.000  0.000  0.000 -0.000 -0.000
      -0.000  0.055  0.063  0.702 -0.000  0.068 -0.703  0.000 -0.034  0.000
      -0.000 -0.000 -0.000 -0.000  0.000  0.000 -0.000  0.000 -0.000 -0.000
      -0.058 -0.034 -0.498  0.050  0.500 -0.496 -0.044 -0.497 -0.002  0.005
      -0.000  0.000 -0.000  0.000  0.000 -0.000 -0.000 -0.000 -0.000 -0.000
       0.000 -0.000  0.000 -0.000 -0.000 -0.000 -0.000  0.000  0.000  0.000
       0.000 -0.055  0.063 -0.702  0.000 -0.068 -0.703  0.000 -0.034  0.000
       0.000  0.000  0.000  0.000 -0.000  0.000 -0.000  0.000 -0.000 -0.000
      -0.058 -0.034  0.498  0.050 -0.500 -0.496  0.044 -0.497  0.002 -0.005
     occupations, | n_(i1, i2)^(sigma1, sigma2) |:
       0.640  0.023  0.011  0.000  0.000  0.341  0.025  0.016  0.000  0.001
       0.023  0.771  0.012  0.013  0.008  0.025  0.089  0.001  0.014  0.011
       0.011  0.012  0.772  0.006  0.001  0.016  0.001  0.093  0.009  0.012
       0.000  0.013  0.006  0.640  0.028  0.000  0.014  0.009  0.341  0.026
       0.000  0.008  0.001  0.028  0.771  0.001  0.011  0.012  0.026  0.089
       0.341  0.025  0.016  0.000  0.001  0.640  0.023  0.011  0.000  0.000
       0.025  0.089  0.001  0.014  0.011  0.023  0.771  0.012  0.013  0.008
       0.016  0.001  0.093  0.009  0.012  0.011  0.012  0.772  0.006  0.001
       0.000  0.014  0.009  0.341  0.026  0.000  0.013  0.006  0.640  0.028
       0.001  0.011  0.012  0.026  0.089  0.000  0.008  0.001  0.028  0.771
     Atomic magnetic moment mx, my, mz =     1.905738   -0.000000    0.000000

     Number of occupied Hubbard levels =    7.1892

     Atomic wfc used for Hubbard projectors are NOT orthogonalized

     Starting wfcs are   26 randomized atomic wfcs

     Band Structure Calculation
     Davidson diagonalization with overlap

     ethr =  6.25E-11,  avg # of iterations = 50.4

     total cpu time spent up to now is       14.8 secs

     End of band structure calculation

          k = 1.0000 0.0000 0.0000 (   610 PWs)   bands (ev):

   -70.4177 -67.9377 -37.3132 -36.8709 -36.1239 -34.4798 -34.0530 -33.7086
    11.8764  11.8804  15.3072  15.3270  17.8446  17.8602  17.9151  19.0231
    19.1218  19.1706  26.9709  27.0312  27.1940  27.2765  27.3308  27.3668

          k = 0.9750 0.0000 0.0000 (   610 PWs)   bands (ev):

   -70.4178 -67.9379 -37.3128 -36.8709 -36.1235 -34.4794 -34.0529 -33.7081
    11.8828  11.8862  15.3104  15.3329  17.8408  17.8494  17.9043  19.0092
    19.1176  19.1568  26.9576  26.9771  27.2183  27.2683  27.2724  27.3939

          k = 0.9500 0.0000 0.0000 (   630 PWs)   bands (ev):

   -70.4188 -67.9387 -37.3119 -36.8715 -36.1225 -34.4786 -34.0531 -33.7070
    11.9018  11.9034  15.3197  15.3506  17.8173  17.8296  17.8723  18.9679
    19.1048  19.1158  26.6932  26.9031  27.1852  27.2907  27.3246  27.4745

          k = 0.9250 0.0000 0.0000 (   634 PWs)   bands (ev):

   -70.4197 -67.9396 -37.3100 -36.8714 -36.1203 -34.4767 -34.0524 -33.7048
    11.9321  11.9329  15.3343  15.3801  17.7653  17.8109  17.8205  18.9015
    19.0498  19.0837  26.2702  26.6005  27.2585  27.4100  27.4468  27.6067

          k = 0.9000 0.0000 0.0000 (   642 PWs)   bands (ev):

   -70.4210 -67.9408 -37.3074 -36.8712 -36.1175 -34.4741 -34.0515 -33.7017
    11.9721  11.9755  15.3532  15.4212  17.6952  17.7507  17.7850  18.8125
    18.9614  19.0544  25.7484  26.1782  27.4120  27.5741  27.6238  27.7875

          k = 0.8750 0.0000 0.0000 (   642 PWs)   bands (ev):

   -70.4224 -67.9423 -37.3038 -36.8708 -36.1135 -34.4705 -34.0501 -33.6976
    12.0231  12.0286  15.3744  15.4737  17.6095  17.6654  17.7519  18.7045
    18.8542  19.0171  25.1679  25.6950  27.6147  27.7805  27.8481  28.0134

          k = 0.8500 0.0000 0.0000 (   642 PWs)   bands (ev):

   -70.4242 -67.9441 -37.2995 -36.8702 -36.1088 -34.4662 -34.0484 -33.6925
    12.0849  12.0907  15.3956  15.5374  17.5107  17.5673  17.7120  18.5814
    18.7320  18.9721  24.5546  25.1794  27.8590  28.0263  28.1146  28.2805

          k = 0.8250 0.0000 0.0000 (   638 PWs)   bands (ev):

   -70.4261 -67.9461 -37.2944 -36.8691 -36.1032 -34.4611 -34.0462 -33.6866
    12.1570  12.1604  15.4138  15.6118  17.4016  17.4592  17.6653  18.4467
    18.5984  18.9198  23.9253  24.6507  28.1408  28.3085  28.4188  28.5848

          k = 0.8000 0.0000 0.0000 (   638 PWs)   bands (ev):

   -70.4285 -67.9484 -37.2886 -36.8677 -36.0969 -34.4553 -34.0437 -33.6799
    12.2356  12.2391  15.4256  15.6965  17.2848  17.3440  17.6123  18.3042
    18.4571  18.8604  23.2914  24.1231  28.4564  28.6241  28.7568  28.9226

          k = 0.7750 0.0000 0.0000 (   638 PWs)   bands (ev):

   -70.4312 -67.9510 -37.2823 -36.8659 -36.0900 -34.4488 -34.0407 -33.6725
    12.3143  12.3307  15.4267  15.7907  17.1627  17.2246  17.5532  18.1569
    18.3114  18.7945  22.6607  23.6081  28.8029  28.9703  29.1249  29.2903

          k = 0.7500 0.0000 0.0000 (   638 PWs)   bands (ev):

   -70.4342 -67.9539 -37.2754 -36.8636 -36.0824 -34.4416 -34.0372 -33.6643
    12.3938  12.4313  15.4125  15.8936  17.0372  17.1040  17.4883  18.0078
    18.1640  18.7224  22.0395  23.1150  29.1775  29.3443  29.5199  29.6848

          k = 0.7250 0.0000 0.0000 (   630 PWs)   bands (ev):

   -70.4372 -67.9569 -37.2677 -36.8604 -36.0740 -34.4336 -34.0330 -33.6553
    12.4714  12.5403  15.3778  16.0036  16.9100  16.9852  17.4182  17.8593
    18.0175  18.6447  21.4323  22.6518  29.5775  29.7436  29.9391  30.1032

          k = 0.7000 0.0000 0.0000 (   622 PWs)   bands (ev):

   -70.4407 -67.9600 -37.2597 -36.8563 -36.0652 -34.4251 -34.0279 -33.6459
    12.5439  12.6571  15.3174  16.1176  16.7827  16.8725  17.3431  17.7135
    17.8739  18.5620  20.8436  22.2258  30.0008  30.1660  30.3799  30.5431

          k = 0.6750 0.0000 0.0000 (   623 PWs)   bands (ev):

   -70.4446 -67.9636 -37.2514 -36.8518 -36.0560 -34.4161 -34.0226 -33.6359
    12.6079  12.7808  15.2263  16.2285  16.6565  16.7740  17.2636  17.5720
    17.7349  18.4748  20.2769  21.8425  30.4451  30.6093  30.8400  31.0021

          k = 0.6500 0.0000 0.0000 (   623 PWs)   bands (ev):

   -70.4487 -67.9673 -37.2426 -36.8464 -36.0465 -34.4066 -34.0166 -33.6254
    12.6594  12.9109  15.1004  16.3159  16.5328  16.7105  17.1803  17.4362
    17.6019  18.3838  19.7361  21.5061  30.9087  31.0717  31.3175  31.4784

          k = 0.6250 0.0000 0.0000 (   627 PWs)   bands (ev):

   -70.4531 -67.9713 -37.2336 -36.8404 -36.0365 -34.3967 -34.0099 -33.6146
    12.6944  13.0464  14.9367  16.3379  16.4133  16.7244  17.0938  17.3074
    17.4759  18.2896  19.2248  21.2185  31.3898  31.5515  31.8107  31.9701

          k = 0.6000 0.0000 0.0000 (   627 PWs)   bands (ev):

   -70.4576 -67.9755 -37.2243 -36.8333 -36.0263 -34.3862 -34.0024 -33.6034
    12.7086  13.1867  14.7349  16.2904  16.2996  16.8195  17.0050  17.1864
    17.3575  18.1931  18.7469  20.9790  31.8869  32.0471  32.3178  32.4755

          k = 0.5750 0.0000 0.0000 (   627 PWs)   bands (ev):

   -70.4622 -67.9798 -37.2147 -36.8253 -36.0159 -34.3755 -33.9940 -33.5919
    12.6977  13.3306  14.4966  16.1931  16.2154  16.9147  16.9533  17.0737
    17.2470  18.0953  18.3060  20.7842  32.3985  32.5569  32.8374  32.9932

          k = 0.5500 0.0000 0.0000 (   615 PWs)   bands (ev):

   -70.4665 -67.9842 -37.2048 -36.8161 -36.0051 -34.3642 -33.9846 -33.5800
    12.6577  13.4775  14.2262  16.0948  16.1351  16.8238  16.9701  17.1024
    17.1447  17.9059  17.9976  20.6290  32.9233  33.0797  33.3679  33.5214

          k = 0.5250 0.0000 0.0000 (   619 PWs)   bands (ev):

   -70.4713 -67.9890 -37.1951 -36.8067 -35.9945 -34.3530 -33.9749 -33.5682
    12.5853  13.6263  13.9295  16.0050  16.0570  16.7330  16.8755  17.0506
    17.2568  17.5491  17.9024  20.5068  33.4600  33.6141  33.9081  34.0586

          k = 0.5000 0.0000 0.0000 (   619 PWs)   bands (ev):

   -70.4761 -67.9939 -37.1853 -36.7964 -35.9839 -34.3417 -33.9642 -33.5563
    12.4789  13.6131  13.7761  15.9239  15.9838  16.6429  16.7902  16.9649
    17.2373  17.4060  17.8173  20.4110  34.0072  34.1587  34.4564  34.5003

          k = 0.4750 0.0000 0.0000 (   619 PWs)   bands (ev):

   -70.4808 -67.9988 -37.1755 -36.7854 -35.9733 -34.3302 -33.9528 -33.5445
    12.3386  13.2838  13.9259  15.8515  15.9169  16.5539  16.7140  16.8876
    16.9704  17.5158  17.7747  20.3351  34.5637  34.7120  34.7402  35.0113

          k = 0.4500 0.0000 0.0000 (   619 PWs)   bands (ev):

   -70.4854 -68.0039 -37.1658 -36.7739 -35.9628 -34.3188 -33.9407 -33.5328
    12.1668  12.9475  14.0748  15.7875  15.8567  16.4665  16.6464  16.7466
    16.8188  17.5115  17.8482  20.2735  34.9979  35.1280  35.2722  35.5711

          k = 0.4250 0.0000 0.0000 (   615 PWs)   bands (ev):

   -70.4898 -68.0090 -37.1562 -36.7618 -35.9525 -34.3074 -33.9279 -33.5212
    11.9682  12.6098  14.2217  15.7314  15.8035  16.3809  16.5547  16.5943
    16.7586  17.4385  17.9918  20.2218  35.2755  35.6986  35.8204  35.8634

          k = 0.4000 0.0000 0.0000 (   615 PWs)   bands (ev):

   -70.4942 -68.0142 -37.1468 -36.7495 -35.9425 -34.2962 -33.9148 -33.5099
    11.7485  12.2753  14.3656  15.6830  15.7571  16.2973  16.4046  16.5420
    16.7069  17.3509  18.1504  20.1765  35.5738  36.0911  36.2738  36.4123

          k = 0.3750 0.0000 0.0000 (   615 PWs)   bands (ev):

   -70.4984 -68.0194 -37.1377 -36.7371 -35.9328 -34.2853 -33.9011 -33.4989
    11.5142  11.9481  14.5058  15.6417  15.7172  16.2162  16.2794  16.5004
    16.6634  17.2612  18.3109  20.1348  35.8933  36.3615  36.8514  36.9839

          k = 0.3500 0.0000 0.0000 (   615 PWs)   bands (ev):

   -70.5025 -68.0245 -37.1289 -36.7245 -35.9234 -34.2747 -33.8873 -33.4884
    11.2717  11.6314  14.6412  15.6072  15.6837  16.1380  16.1761  16.4667
    16.6275  17.1727  18.4690  20.0952  36.2347  36.6530  37.4289  37.5549

          k = 0.3250 0.0000 0.0000 (   615 PWs)   bands (ev):

   -70.5064 -68.0296 -37.1205 -36.7120 -35.9145 -34.2645 -33.8734 -33.4782
    11.0269  11.3280  14.7709  15.5787  15.6560  16.0631  16.0903  16.4400
    16.5989  17.0872  18.6227  20.0566  36.5982  36.9664  38.0029  38.1214

          k = 0.3000 0.0000 0.0000 (   623 PWs)   bands (ev):

   -70.5103 -68.0345 -37.1126 -36.6999 -35.9061 -34.2549 -33.8597 -33.4688
    10.7849  11.0403  14.8940  15.5558  15.6336  15.9920  16.0180  16.4196
    16.5767  17.0054  18.7702  20.0184  36.9842  37.3021  38.5691  38.6787

          k = 0.2750 0.0000 0.0000 (   623 PWs)   bands (ev):

   -70.5138 -68.0392 -37.1050 -36.6879 -35.8982 -34.2456 -33.8461 -33.4597
    10.5501  10.7702  15.0098  15.5379  15.6160  15.9252  15.9565  16.4048
    16.5604  16.9282  18.9102  19.9806  37.3924  37.6602  39.1215  39.2207

          k = 0.2500 0.0000 0.0000 (   631 PWs)   bands (ev):

   -70.5173 -68.0437 -37.0980 -36.6768 -35.8908 -34.2371 -33.8331 -33.4514
    10.3260  10.5193  15.1173  15.5243  15.6027  15.8632  15.9036  16.3947
    16.5490  16.8561  19.0417  19.9433  37.8224  38.0401  39.6523  39.7392

          k = 0.2250 0.0000 0.0000 (   623 PWs)   bands (ev):

   -70.5203 -68.0476 -37.0912 -36.6658 -35.8837 -34.2288 -33.8204 -33.4434
    10.1158  10.2891  15.2158  15.5144  15.5930  15.8068  15.8576  16.3887
    16.5420  16.7895  19.1636  19.9071  38.2733  38.4408  40.1510  40.2241

          k = 0.2000 0.0000 0.0000 (   623 PWs)   bands (ev):

   -70.5231 -68.0513 -37.0852 -36.6557 -35.8775 -34.2215 -33.8085 -33.4363
     9.9218  10.0806  15.3041  15.5077  15.5863  15.7567  15.8176  16.3860
    16.5383  16.7289  19.2749  19.8725  38.7434  38.8604  40.6049  40.6629

          k = 0.1750 0.0000 0.0000 (   623 PWs)   bands (ev):

   -70.5258 -68.0546 -37.0798 -36.6464 -35.8719 -34.2148 -33.7976 -33.4300
     9.7463   9.8949  15.3808  15.5034  15.5821  15.7140  15.7830  16.3857
    16.5372  16.6746  19.3749  19.8400  39.2300  39.2956  41.0000  41.0049

          k = 0.1500 0.0000 0.0000 (   631 PWs)   bands (ev):

   -70.5283 -68.0576 -37.0753 -36.6381 -35.8673 -34.2092 -33.7879 -33.4246
     9.5908   9.7325  15.4436  15.5010  15.5797  15.6810  15.7532  16.3871
    16.5380  16.6270  19.4629  19.8103  39.7284  39.7413  41.2494  41.2720

          k = 0.1250 0.0000 0.0000 (   631 PWs)   bands (ev):

   -70.5304 -68.0601 -37.0713 -36.6309 -35.8631 -34.2042 -33.7794 -33.4199
     9.4570   9.5943  15.4881  15.5001  15.5786  15.6620  15.7280  16.3897
    16.5400  16.5863  19.5383  19.7840  40.1892  40.2313  41.4272  41.4408

          k = 0.1000 0.0000 0.0000 (   623 PWs)   bands (ev):

   -70.5319 -68.0620 -37.0679 -36.6244 -35.8596 -34.1999 -33.7718 -33.4159
     9.3459   9.4806  15.5000  15.5098  15.5785  15.6613  15.7075  16.3927
    16.5426  16.5527  19.6007  19.7617  40.6262  40.7263  41.5476  41.5550

          k = 0.0750 0.0000 0.0000 (   623 PWs)   bands (ev):

   -70.5333 -68.0636 -37.0652 -36.6196 -35.8569 -34.1967 -33.7661 -33.4128
     9.2585   9.3918  15.5004  15.5127  15.5788  15.6748  15.6915  16.3955
    16.5264  16.5451  19.6496  19.7438  41.0315  41.1925  41.6234  41.6271

          k = 0.0500 0.0000 0.0000 (   627 PWs)   bands (ev):

   -70.5344 -68.0648 -37.0634 -36.6163 -35.8550 -34.1944 -33.7622 -33.4106
     9.1955   9.3282  15.5009  15.5080  15.5792  15.6800  15.6913  16.3979
    16.5075  16.5473  19.6847  19.7307  41.3733  41.5945  41.6675  41.6691

          k = 0.0250 0.0000 0.0000 (   627 PWs)   bands (ev):

   -70.5350 -68.0655 -37.0622 -36.6142 -35.8538 -34.1930 -33.7597 -33.4093
     9.1575   9.2900  15.5013  15.5033  15.5796  15.6731  15.7031  16.3995
    16.4961  16.5487  19.7059  19.7228  41.6084  41.6897  41.6902  41.8788

          k = 0.0000 0.0000 0.0000 (   627 PWs)   bands (ev):

   -70.5352 -68.0657 -37.0619 -36.6135 -35.8534 -34.1925 -33.7588 -33.4089
     9.1448   9.2773  15.5014  15.5014  15.5797  15.6708  15.7073  16.4000
    16.4923  16.5492  19.7130  19.7201  41.6934  41.6965  41.6967  41.9810

          k = 0.0000 0.0000 0.0250 (   627 PWs)   bands (ev):

   -70.5350 -68.0655 -37.0624 -36.6139 -35.8540 -34.1931 -33.7593 -33.4095
     9.1575   9.2900  15.5013  15.5030  15.5813  15.6668  15.7078  16.4016
    16.4918  16.5509  19.7100  19.7187  41.6115  41.6868  41.6900  41.8765

          k = 0.0000 0.0000 0.0500 (   627 PWs)   bands (ev):

   -70.5344 -68.0648 -37.0640 -36.6151 -35.8558 -34.1949 -33.7606 -33.4115
     9.1955   9.3282  15.5010  15.5072  15.5867  15.6531  15.7112  16.4062
    16.4903  16.5563  19.6899  19.7256  41.3761  41.5925  41.6651  41.6683

          k = 0.0000 0.0000 0.0750 (   623 PWs)   bands (ev):

   -70.5333 -68.0636 -37.0665 -36.6170 -35.8586 -34.1978 -33.7628 -33.4147
     9.2585   9.3918  15.4999  15.5128  15.5971  15.6284  15.7195  16.4126
    16.4881  16.5665  19.6550  19.7386  41.0340  41.1907  41.6221  41.6254

          k = 0.0000 0.0000 0.1000 (   623 PWs)   bands (ev):

   -70.5319 -68.0620 -37.0702 -36.6197 -35.8626 -34.2020 -33.7659 -33.4192
     9.3459   9.4806  15.4965  15.5185  15.5943  15.6141  15.7329  16.4196
    16.4854  16.5833  19.6062  19.7565  40.6284  40.7249  41.5481  41.5515

          k = 0.0000 0.0000 0.1250 (   631 PWs)   bands (ev):

   -70.5303 -68.0601 -37.0751 -36.6232 -35.8679 -34.2075 -33.7700 -33.4251
     9.4570   9.5943  15.4849  15.5235  15.5578  15.6386  15.7510  16.4260
    16.4826  16.6079  19.5440  19.7787  40.1912  40.2301  41.4305  41.4342

          k = 0.0000 0.0000 0.1500 (   631 PWs)   bands (ev):

   -70.5283 -68.0576 -37.0806 -36.6273 -35.8740 -34.2139 -33.7748 -33.4320
     9.5909   9.7326  15.4488  15.5280  15.5355  15.6706  15.7740  16.4313
    16.4804  16.6412  19.4688  19.8050  39.7274  39.7430  41.2555  41.2603

          k = 0.0000 0.0000 0.1750 (   623 PWs)   bands (ev):

   -70.5258 -68.0546 -37.0869 -36.6319 -35.8809 -34.2211 -33.7801 -33.4397
     9.7463   9.8949  15.3865  15.5303  15.5328  15.7097  15.8019  16.4360
    16.4793  16.6832  19.3810  19.8348  39.2291  39.2971  40.9996  41.0081

          k = 0.0000 0.0000 0.2000 (   623 PWs)   bands (ev):

   -70.5231 -68.0513 -37.0942 -36.6375 -35.8887 -34.2293 -33.7865 -33.4485
     9.9219  10.0807  15.3083  15.5324  15.5387  15.7553  15.8349  16.4409
    16.4800  16.7335  19.2813  19.8673  38.7427  38.8617  40.6243  40.6304

          k = 0.0000 0.0000 0.2250 (   623 PWs)   bands (ev):

   -70.5203 -68.0476 -37.1021 -36.6436 -35.8974 -34.2384 -33.7936 -33.4582
    10.1159  10.2891  15.2187  15.5388  15.5466  15.8068  15.8733  16.4472
    16.4833  16.7913  19.1702  19.9020  38.2726  38.4420  40.1789  40.1843

          k = 0.0000 0.0000 0.2500 (   631 PWs)   bands (ev):

   -70.5173 -68.0436 -37.1109 -36.6506 -35.9069 -34.2484 -33.8016 -33.4688
    10.3262  10.5194  15.1193  15.5488  15.5571  15.8637  15.9179  16.4558
    16.4899  16.8560  19.0487  19.9382  37.8218  38.0412  39.6867  39.6920

          k = 0.0000 0.0000 0.2750 (   623 PWs)   bands (ev):

   -70.5138 -68.0392 -37.1199 -36.6578 -35.9166 -34.2586 -33.8099 -33.4796
    10.5504  10.7703  15.0109  15.5628  15.5712  15.9256  15.9696  16.4679
    16.5007  16.9271  18.9176  19.9755  37.3918  37.6612  39.1614  39.1667

          k = 0.0000 0.0000 0.3000 (   623 PWs)   bands (ev):

   -70.5103 -68.0345 -37.1296 -36.6656 -35.9271 -34.2696 -33.8189 -33.4911
    10.7853  11.0405  14.8946  15.5813  15.5893  15.9918  16.0300  16.4843
    16.5165  17.0040  18.7779  20.0134  36.9837  37.3031  38.6135  38.6188

          k = 0.0000 0.0000 0.3250 (   615 PWs)   bands (ev):

   -70.5064 -68.0296 -37.1396 -36.6737 -35.9378 -34.2807 -33.8284 -33.5029
    11.0274  11.3283  14.7710  15.6047  15.6123  16.0619  16.1011  16.5060
    16.5379  17.0861  18.6307  20.0516  36.5978  36.9673  38.0511  38.0565

          k = 0.0000 0.0000 0.3500 (   615 PWs)   bands (ev):

   -70.5025 -68.0245 -37.1500 -36.6824 -35.9490 -34.2923 -33.8384 -33.5151
    11.2723  11.6318  14.6409  15.6337  15.6407  16.1352  16.1860  16.5337
    16.5658  17.1729  18.4771  20.0903  36.2343  36.6539  37.4802  37.4856

          k = 0.0000 0.0000 0.3750 (   615 PWs)   bands (ev):

   -70.4984 -68.0194 -37.1606 -36.6914 -35.9604 -34.3041 -33.8489 -33.5275
    11.5149  11.9486  14.5052  15.6687  15.6749  16.2112  16.2883  16.5681
    16.6009  17.2637  18.3186  20.1300  35.8929  36.3624  36.9053  36.9108

          k = 0.0000 0.0000 0.4000 (   615 PWs)   bands (ev):

   -70.4942 -68.0142 -37.1714 -36.7007 -35.9719 -34.3160 -33.8598 -33.5399
    11.7494  12.2761  14.3648  15.7102  15.7157  16.2890  16.4128  16.6099
    16.6437  17.3581  18.1566  20.1717  35.5734  36.0921  36.3299  36.3357

          k = 0.0000 0.0000 0.4250 (   615 PWs)   bands (ev):

   -70.4898 -68.0090 -37.1822 -36.7103 -35.9834 -34.3278 -33.8710 -33.5523
    11.9693  12.6109  14.2205  15.7586  15.7633  16.3678  16.5647  16.6597
    16.6948  17.4555  17.9926  20.2172  35.2751  35.7566  35.7599  35.8452

          k = 0.0000 0.0000 0.4500 (   619 PWs)   bands (ev):

   -70.4854 -68.0039 -37.1930 -36.7202 -35.9950 -34.3396 -33.8824 -33.5646
    12.1681  12.9490  14.0734  15.8143  15.8181  16.4464  16.7172  16.7507
    16.7544  17.5551  17.8287  20.2691  34.9973  35.1877  35.1922  35.6095

          k = 0.0000 0.0000 0.4750 (   619 PWs)   bands (ev):

   -70.4808 -67.9988 -37.2035 -36.7302 -36.0063 -34.3511 -33.8940 -33.5766
    12.3401  13.2858  13.9244  15.8774  15.8803  16.5233  16.7847  16.8229
    16.9740  17.6566  17.6676  20.3308  34.6233  34.6293  34.7409  35.0950

          k = 0.0000 0.0000 0.5000 (   619 PWs)   bands (ev):

   -70.4761 -67.9939 -37.2139 -36.7402 -36.0174 -34.3623 -33.9056 -33.5884
    12.4806  13.6160  13.7745  15.9481  15.9501  16.5956  16.8609  16.9000
    17.2402  17.5130  17.7591  20.4070  34.0685  34.0740  34.4986  34.5432

          k = 0.0000 0.0000 0.5250 (   619 PWs)   bands (ev):

   -70.4713 -67.9890 -37.2239 -36.7503 -36.0281 -34.3731 -33.9173 -33.5998
    12.5872  13.6245  13.9335  16.0265  16.0273  16.6574  16.9463  16.9858
    17.3721  17.5513  17.8621  20.5031  33.5221  33.5276  33.9947  33.9969

          k = 0.0000 0.0000 0.5500 (   615 PWs)   bands (ev):

   -70.4665 -67.9842 -37.2334 -36.7603 -36.0383 -34.3835 -33.9288 -33.6107
    12.6597  13.4756  14.2317  16.1112  16.1124  16.6965  17.0408  17.0802
    17.2584  17.9073  17.9650  20.6257  32.9861  32.9916  33.4566  33.4584

          k = 0.0000 0.0000 0.5750 (   627 PWs)   bands (ev):

   -70.4622 -67.9798 -37.2428 -36.7704 -36.0485 -34.3938 -33.9405 -33.6214
    12.6999  13.3286  14.5039  16.1996  16.2057  16.6932  17.1445  17.1814
    17.1954  18.0667  18.3073  20.7813  32.4618  32.4673  32.9278  32.9294

          k = 0.0000 0.0000 0.6000 (   627 PWs)   bands (ev):

   -70.4576 -67.9755 -37.2515 -36.7802 -36.0578 -34.4033 -33.9517 -33.6314
    12.7109  13.1845  14.7444  16.2863  16.3061  16.6428  17.1888  17.2570
    17.2951  18.1672  18.7477  20.9765  31.9505  31.9561  32.4098  32.4113

          k = 0.0000 0.0000 0.6250 (   627 PWs)   bands (ev):

   -70.4531 -67.9713 -37.2596 -36.7897 -36.0665 -34.4124 -33.9626 -33.6409
    12.6968  13.0442  14.9486  16.3438  16.4131  16.5895  17.2270  17.3778
    17.4148  18.2656  19.2253  21.2166  31.4536  31.4592  31.9041  31.9055

          k = 0.0000 0.0000 0.6500 (   623 PWs)   bands (ev):

   -70.4487 -67.9673 -37.2669 -36.7990 -36.0745 -34.4208 -33.9731 -33.6497
    12.6618  12.9086  15.1145  16.3100  16.5261  16.6171  17.2852  17.5063
    17.5423  18.3612  19.7363  21.5047  30.9724  30.9781  31.4124  31.4137

          k = 0.0000 0.0000 0.6750 (   623 PWs)   bands (ev):

   -70.4446 -67.9636 -37.2738 -36.8079 -36.0820 -34.4288 -33.9832 -33.6579
    12.6104  12.7784  15.2423  16.2111  16.6441  16.7105  17.3511  17.6416
    17.6769  18.4535  20.2769  21.8415  30.5087  30.5144  30.9363  30.9374

          k = 0.0000 0.0000 0.7000 (   622 PWs)   bands (ev):

   -70.4407 -67.9600 -37.2801 -36.8164 -36.0888 -34.4363 -33.9928 -33.6656
    12.5465  12.6546  15.3347  16.0973  16.7662  16.8241  17.4191  17.7825
    17.8174  18.5419  20.8434  22.2253  30.0640  30.0698  30.4776  30.4784

          k = 0.0000 0.0000 0.7250 (   630 PWs)   bands (ev):

   -70.4372 -67.9569 -37.2860 -36.8246 -36.0952 -34.4434 -34.0020 -33.6728
    12.4741  12.5378  15.3956  15.9833  16.8909  16.9448  17.4861  17.9276
    17.9623  18.6258  21.4320  22.6518  29.6403  29.6461  30.0383  30.0389

          k = 0.0000 0.0000 0.7500 (   638 PWs)   bands (ev):

   -70.4342 -67.9539 -37.2913 -36.8324 -36.1008 -34.4499 -34.0107 -33.6793
    12.3965  12.4288  15.4304  15.8743  17.0169  17.0681  17.5503  18.0750
    18.1100  18.7047  22.0389  23.1153  29.2395  29.2455  29.6207  29.6210

          k = 0.0000 0.0000 0.7750 (   638 PWs)   bands (ev):

   -70.4312 -67.9510 -37.2958 -36.8395 -36.1057 -34.4556 -34.0185 -33.6851
    12.3168  12.3282  15.4443  15.7724  17.1423  17.1913  17.6108  18.2228
    18.2584  18.7783  22.6600  23.6088  28.8640  28.8701  29.2272  29.2273

          k = 0.0000 0.0000 0.8000 (   638 PWs)   bands (ev):

   -70.4285 -67.9484 -37.2997 -36.8459 -36.1099 -34.4607 -34.0256 -33.6902
    12.2355  12.2392  15.4427  15.6792  17.2649  17.3120  17.6667  18.3681
    18.4051  18.8461  23.2904  24.1242  28.5162  28.5224  28.8605  28.8609

          k = 0.0000 0.0000 0.8250 (   638 PWs)   bands (ev):

   -70.4261 -67.9461 -37.3032 -36.8518 -36.1135 -34.4653 -34.0320 -33.6947
    12.1539  12.1635  15.4302  15.5954  17.3825  17.4278  17.7174  18.5081
    18.5471  18.9080  23.9242  24.6521  28.1989  28.2053  28.5239  28.5247

          k = 0.0000 0.0000 0.8500 (   642 PWs)   bands (ev):

   -70.4242 -67.9441 -37.3062 -36.8569 -36.1167 -34.4694 -34.0377 -33.6987
    12.0818  12.0938  15.4112  15.5219  17.4924  17.5358  17.7627  18.6389
    18.6813  18.9641  24.5532  25.1812  27.9151  27.9218  28.2211  28.2222

          k = 0.0000 0.0000 0.8750 (   642 PWs)   bands (ev):

   -70.4224 -67.9423 -37.3086 -36.8613 -36.1192 -34.4728 -34.0425 -33.7019
    12.0200  12.0317  15.3891  15.4592  17.5920  17.6332  17.8021  18.7564
    18.8041  19.0146  25.1660  25.6975  27.6680  27.6751  27.9558  27.9573

          k = 0.0000 0.0000 0.9000 (   642 PWs)   bands (ev):

   -70.4210 -67.9408 -37.3105 -36.8650 -36.1212 -34.4755 -34.0465 -33.7046
    11.9689  11.9787  15.3666  15.4079  17.6784  17.7168  17.8360  18.8559
    18.9117  19.0602  25.7458  26.1819  27.4613  27.4692  27.7321  27.7338

          k = 0.0000 0.0000 0.9250 (   634 PWs)   bands (ev):

   -70.4197 -67.9396 -37.3119 -36.8676 -36.1226 -34.4776 -34.0494 -33.7065
    11.9288  11.9363  15.3455  15.3690  17.7490  17.7830  17.8649  18.9328
    19.0005  19.1015  26.2660  26.6075  27.2998  27.3099  27.5539  27.5557

          k = 0.0000 0.0000 0.9500 (   630 PWs)   bands (ev):

   -70.4188 -67.9387 -37.3129 -36.8696 -36.1236 -34.4790 -34.0516 -33.7079
    11.8999  11.9053  15.3264  15.3439  17.8014  17.8284  17.8894  18.9848
    19.0668  19.1368  26.6839  26.9265  27.1922  27.2158  27.4262  27.4268

          k = 0.0000 0.0000 0.9750 (   610 PWs)   bands (ev):

   -70.4178 -67.9379 -37.3130 -36.8705 -36.1237 -34.4795 -34.0526 -33.7083
    11.8824  11.8866  15.3123  15.3310  17.8337  17.8529  17.9080  19.0139
    19.1079  19.1616  26.9243  27.0338  27.1664  27.2501  27.3517  27.3612

          k = 0.0000 0.0000 1.0000 (   610 PWs)   bands (ev):

   -70.4177 -67.9377 -37.3132 -36.8709 -36.1239 -34.4798 -34.0530 -33.7086
    11.8764  11.8804  15.3072  15.3270  17.8446  17.8602  17.9151  19.0231
    19.1218  19.1706  26.9709  27.0312  27.1940  27.2765  27.3308  27.3668

     Writing all to output data dir /scratch/timrov/QE_gitlab/tmp6/q-e/tempdir/Fe.save/
 
     init_run     :      0.21s CPU      0.25s WALL (       1 calls)
     electrons    :     12.83s CPU     14.23s WALL (       1 calls)

     Called by init_run:
     wfcinit      :      0.03s CPU      0.03s WALL (       1 calls)
     potinit      :      0.00s CPU      0.01s WALL (       1 calls)
     hinit0       :      0.12s CPU      0.15s WALL (       1 calls)

     Called by electrons:
     c_bands      :     12.83s CPU     14.23s WALL (       1 calls)
     v_of_rho     :      0.00s CPU      0.01s WALL (       1 calls)
     newd         :      0.05s CPU      0.05s WALL (       1 calls)

     Called by c_bands:
     init_us_2    :      0.00s CPU      0.01s WALL (     162 calls)
     init_us_2:cp :      0.00s CPU      0.00s WALL (     162 calls)
     cegterg      :     12.41s CPU     13.77s WALL (     245 calls)

     Called by *egterg:
     cdiaghg      :      2.68s CPU      2.92s WALL (    4160 calls)
     h_psi        :      8.63s CPU      9.62s WALL (    4405 calls)
     s_psi        :      0.33s CPU      0.37s WALL (    4486 calls)
     g_psi        :      0.06s CPU      0.06s WALL (    4079 calls)

     Called by h_psi:
     h_psi:calbec :      0.22s CPU      0.24s WALL (    4405 calls)
     vloc_psi     :      7.50s CPU      8.34s WALL (    4405 calls)
     add_vuspsi   :      0.35s CPU      0.40s WALL (    4405 calls)
     vhpsi        :      0.52s CPU      0.59s WALL (    4405 calls)

     General routines
     calbec       :      0.22s CPU      0.25s WALL (    4486 calls)
     fft          :      0.02s CPU      0.05s WALL (      31 calls)
     ffts         :      0.00s CPU      0.00s WALL (       4 calls)
     fftw         :      6.50s CPU      7.24s WALL (  255080 calls)
     interpolate  :      0.00s CPU      0.00s WALL (       4 calls)
     davcio       :      0.01s CPU      0.01s WALL (     324 calls)
 
     Parallel routines

     Hubbard U routines
     vhpsi        :      0.52s CPU      0.59s WALL (    4405 calls)
 
     PWSCF        :     13.44s CPU     15.04s WALL

 
   This run was terminated on:  13: 0:47  23Feb2022            

=------------------------------------------------------------------------------=
   JOB DONE.
=------------------------------------------------------------------------------=
