
     Program PWSCF v.7.2 starts on 19Oct2023 at  4:12:21 
        Git branch: oscdft_unify_calbec_reboot
        Last git commit: f0d5c9d0f559bcfc1f89133dacc61ed06192ba3c-dirty
        Last git commit date: Wed Oct 18 12:50:11 2023 +0200
        Last git commit subject: Update stres_hub with the new calbec

     This program is part of the open-source Quantum ESPRESSO suite
     for quantum simulation of materials; please cite
         "P. Giannozzi et al., J. Phys.:Condens. Matter 21 395502 (2009);
         "P. Giannozzi et al., J. Phys.:Condens. Matter 29 465901 (2017);
         "P. Giannozzi et al., J. Chem. Phys. 152 154105 (2020);
          URL http://www.quantum-espresso.org", 
     in publications or presentations arising from this work. More details at
     http://www.quantum-espresso.org/quote

     Parallel version (MPI & OpenMP), running on       8 processor cores
     Number of MPI processes:                 8
     Threads/MPI process:                     1

     MPI processes distributed on     1 nodes
     5221 MiB available memory on the printing compute node when the environment starts
 
     Waiting for input...
     Reading input from standard input

     Current dimensions of program PWSCF are:
     Max number of different atomic species (ntypx) = 10
     Max number of k-points (npk) =  40000
     Max angular momentum in pseudopotentials (lmaxx) =  4

     gamma-point specific algorithms are used
 
     R & G space division:  proc/nbgrp/npool/nimage =       8
     Subspace diagonalization in iterative solution of the eigenvalue problem:
     a serial algorithm will be used

 
     Parallelization info
     --------------------
     sticks:   dense  smooth     PW     G-vecs:    dense   smooth      PW
     Min         120      59     14                 7188     2529     306
     Max         122      62     16                 7206     2554     320
     Sum         973     489    121                57589    20319    2519
 
     Using Slab Decomposition
 


     bravais-lattice index     =            6
     lattice parameter (alat)  =       7.1432  a.u.
     unit-cell volume          =     916.9818 (a.u.)^3
     number of atoms/cell      =           12
     number of atomic types    =            3
     number of electrons       =        97.00
     number of Kohn-Sham states=           59
     kinetic-energy cutoff     =      30.0000  Ry
     charge density cutoff     =     240.0000  Ry
     scf convergence threshold =      1.0E-06
     mixing beta               =       0.2000
     number of iterations used =            8  plain     mixing
     Exchange-correlation=  SLA  PW   PBE  PBE
                           (   1   4   3   4   0   0   0)

     celldm(1)=   7.143165  celldm(2)=   0.000000  celldm(3)=   2.515873
     celldm(4)=   0.000000  celldm(5)=   0.000000  celldm(6)=   0.000000

     crystal axes: (cart. coord. in units of alat)
               a(1) = (   1.000000   0.000000   0.000000 )  
               a(2) = (   0.000000   1.000000   0.000000 )  
               a(3) = (   0.000000   0.000000   2.515873 )  

     reciprocal axes: (cart. coord. in units 2 pi/alat)
               b(1) = (  1.000000  0.000000  0.000000 )  
               b(2) = (  0.000000  1.000000  0.000000 )  
               b(3) = (  0.000000  0.000000  0.397476 )  


     PseudoPot. # 1 for Ti read from file:
     /home/calvin/projects/q-e/test-suite/..//pseudo/Ti.pbe-sp-van_ak.UPF
     MD5 check sum: 86c7352f6111e58f0e15d2572cfb5481
     Pseudo is Ultrasoft, Zval = 12.0
     Generated by new atomic code, or converted to UPF format
     Using radial grid of  851 points,  6 beta functions with: 
                l(1) =   0
                l(2) =   0
                l(3) =   1
                l(4) =   1
                l(5) =   2
                l(6) =   2
     Q(r) pseudized with  8 coefficients,  rinner =    1.000   1.000   1.000
                                                       1.000   1.000

     PseudoPot. # 2 for Ti read from file:
     /home/calvin/projects/q-e/test-suite/..//pseudo/Ti.pbe-sp-van_ak.UPF
     MD5 check sum: 86c7352f6111e58f0e15d2572cfb5481
     Pseudo is Ultrasoft, Zval = 12.0
     Generated by new atomic code, or converted to UPF format
     Using radial grid of  851 points,  6 beta functions with: 
                l(1) =   0
                l(2) =   0
                l(3) =   1
                l(4) =   1
                l(5) =   2
                l(6) =   2
     Q(r) pseudized with  8 coefficients,  rinner =    1.000   1.000   1.000
                                                       1.000   1.000

     PseudoPot. # 3 for O  read from file:
     /home/calvin/projects/q-e/test-suite/..//pseudo/O.pbe-van_ak.UPF
     MD5 check sum: 78c19812648e8988a0fe644b0f25305e
     Pseudo is Ultrasoft, Zval =  6.0
     Generated by new atomic code, or converted to UPF format
     Using radial grid of  737 points,  4 beta functions with: 
                l(1) =   0
                l(2) =   0
                l(3) =   1
                l(4) =   1
     Q(r) pseudized with  8 coefficients,  rinner =    0.800   0.800   0.800


     atomic species   valence    mass     pseudopotential
     Ti               12.00    47.86700     Ti( 1.00)
     Ti1              12.00    47.86700     Ti( 1.00)
     O                 6.00    15.99900     O ( 1.00)

     Starting magnetic structure 
     atomic species   magnetization
     Ti              0.000
     Ti1             0.100
     O               0.000

      8 Sym. Ops. (no inversion) found



   Cartesian axes

     site n.     atom                  positions (alat units)
         1        Ti     tau(   1) = (   0.0000000   0.0000000   0.0000000  )
         2        Ti1    tau(   2) = (   0.5000000   0.5000000   1.2579365  )
         3        Ti     tau(   3) = (   0.0000000   0.5000000   0.6289683  )
         4        Ti     tau(   4) = (   0.5000000   0.0000000   1.8869048  )
         5        O      tau(   5) = (   0.0000000   0.0000000   0.5233016  )
         6        O      tau(   6) = (   0.5000000   0.5000000   1.7812381  )
         7        O      tau(   7) = (   0.0000000   0.5000000   1.1522698  )
         8        O      tau(   8) = (   0.5000000   0.0000000   2.4102063  )
         9        O      tau(   9) = (   0.5000000   0.0000000   1.3636032  )
        10        O      tau(  10) = (   0.0000000   0.5000000   0.1056667  )
        11        O      tau(  11) = (   0.5000000   0.5000000   0.7346349  )
        12        O      tau(  12) = (   0.0000000   0.0000000   1.9925714  )

     number of k points=     1  Gaussian smearing, width (Ry)=  0.0100
                       cart. coord. in units 2pi/alat
        k(    1) = (   0.0000000   0.0000000   0.0000000), wk =   1.0000000

     Dense  grid:    28795 G-vectors     FFT dimensions: (  36,  36,  90)

     Smooth grid:    10160 G-vectors     FFT dimensions: (  25,  25,  64)

     Estimated max dynamical RAM per process >      20.47 MB

     Estimated total dynamical RAM >     163.76 MB
OSCDFT: iteration type 0: micro-iteration of OS-CDFT multipliers inside iteration of rho
OSCDFT DEBUG: k-point npool:   1; distribution:     2
 
OSCDFT DEBUG: ===UPF pseudopotentials===
OSCDFT DEBUG: nt:  1; psd: Ti
OSCDFT DEBUG: |-  1: 3S (n =  3; l =  0)
OSCDFT DEBUG: |-  2: 3P (n =  3; l =  1)
OSCDFT DEBUG: |-  3: 4S (n =  4; l =  0)
OSCDFT DEBUG: |-  4: 3D (n =  3; l =  2)
OSCDFT DEBUG: nt:  2; psd: Ti
OSCDFT DEBUG: |-  1: 3S (n =  3; l =  0)
OSCDFT DEBUG: |-  2: 3P (n =  3; l =  1)
OSCDFT DEBUG: |-  3: 4S (n =  4; l =  0)
OSCDFT DEBUG: |-  4: 3D (n =  3; l =  2)
OSCDFT DEBUG: nt:  3; psd: O 
OSCDFT DEBUG: |-  1: 2S (n =  2; l =  0)
OSCDFT DEBUG: |-  2: 2P (n =  2; l =  1)
OSCDFT DEBUG: ==========================
 
OSCDFT: Orbital Information
OSCDFT: ioscdft:     1 spin: UP
OSCDFT: |-  1: atom #    2; orbital 3d(z2,xz,yz,x2-y2,xy)
OSCDFT: ioscdft:     2 spin: DW
OSCDFT: |-  2: atom #    2; orbital 3d(z2,xz,yz,x2-y2,xy)
 
OSCDFT DEBUG: iorb2isocdft:   1   2
OSCDFT DEBUG: nconstr:   0
OSCDFT DEBUG: iconstr2ioscdft: 
OSCDFT DEBUG: ioscdft2iconstr:   0   0
OSCDFT DEBUG: ns_dim:   5   5
OSCDFT DEBUG: max_ns_dim:   5
OSCDFT DEBUG: occupation index:   0   0
OSCDFT DEBUG: isym:   1; atom_sym:   2   2
OSCDFT DEBUG: isym:   2; atom_sym:   2   2
OSCDFT DEBUG: isym:   3; atom_sym:   2   2
OSCDFT DEBUG: isym:   4; atom_sym:   2   2
OSCDFT DEBUG: isym:   5; atom_sym:   2   2
OSCDFT DEBUG: isym:   6; atom_sym:   2   2
OSCDFT DEBUG: isym:   7; atom_sym:   2   2
OSCDFT DEBUG: isym:   8; atom_sym:   2   2
OSCDFT DEBUG: constr%norb:   0
OSCDFT DEBUG: constr%icorb2iorb: 
OSCDFT DEBUG: constr%iorb2icorb:   0   0
OSCDFT DEBUG: constr%icorb_start: 
OSCDFT DEBUG: constr%icorb_end: 
OSCDFT DEBUG: ns_dim  (:,    1):     5
OSCDFT DEBUG: ins2iorb(:,    1):     1     1     1     1     1
OSCDFT DEBUG: ins2ioff(:,    1):     1     2     3     4     5
OSCDFT DEBUG: ns_dim  (:,    2):     5
OSCDFT DEBUG: ins2iorb(:,    2):     2     2     2     2     2
OSCDFT DEBUG: ins2ioff(:,    2):     1     2     3     4     5
OSCDFT DEBUG: NELUP:  4.9000000E+01; NELDW:  4.8000000E+01; NBND:    59
OSCDFT DEBUG: max_cg_iter: 100
     Generating pointlists ...
     new r_m :   0.2108 (alat units)  1.5058 (a.u.) for type    1
     new r_m :   0.2108 (alat units)  1.5058 (a.u.) for type    2
     new r_m :   0.2108 (alat units)  1.5058 (a.u.) for type    3

     Initial potential from superposition of free atoms

     starting charge      91.9998, renormalised to      97.0000
     Starting wfcs are   72 randomized atomic wfcs
 
OSCDFT DEBUG: OSCDFT_INIT_WFCO
OSCDFT DEBUG: wfcO: 0 atomic wfcs; desc: S*atwfc to apply constraint
OSCDFT DEBUG: |-offset: 
OSCDFT DEBUG: |-source: 
 
OSCDFT DEBUG: wfcS: 5 atomic wfcs; desc: S*atwfc to calc ns
OSCDFT DEBUG: |-offset( 1): 0 0
OSCDFT DEBUG: |-offset( 2): 0 0
OSCDFT DEBUG: |-offset( 3): 0 0
OSCDFT DEBUG: |-offset( 4): 0 0
OSCDFT DEBUG: |-offset( 5): 0 0
OSCDFT DEBUG: |-offset( 6): 0 0
OSCDFT DEBUG: |-offset( 7): 0 0
OSCDFT DEBUG: |-offset( 8): 0 0
OSCDFT DEBUG: |-source( 1): 15 15
OSCDFT DEBUG: |-source( 2): 15 15
OSCDFT DEBUG: |-source( 3): 15 15
OSCDFT DEBUG: |-source( 4): 15 15
OSCDFT DEBUG: |-source( 5): 15 15
OSCDFT DEBUG: |-source( 6): 15 15
OSCDFT DEBUG: |-source( 7): 15 15
OSCDFT DEBUG: |-source( 8): 15 15
 
OSCDFT DEBUG: wfcF: 0 atomic wfcs; desc: atwfc to calc forces
OSCDFT DEBUG: |-offset( 1): 
OSCDFT DEBUG: |-offset( 2): 
OSCDFT DEBUG: |-offset( 3): 
OSCDFT DEBUG: |-offset( 4): 
OSCDFT DEBUG: |-offset( 5): 
OSCDFT DEBUG: |-offset( 6): 
OSCDFT DEBUG: |-offset( 7): 
OSCDFT DEBUG: |-offset( 8): 
OSCDFT DEBUG: |-source( 1): 
OSCDFT DEBUG: |-source( 2): 
OSCDFT DEBUG: |-source( 3): 
OSCDFT DEBUG: |-source( 4): 
OSCDFT DEBUG: |-source( 5): 
OSCDFT DEBUG: |-source( 6): 
OSCDFT DEBUG: |-source( 7): 
OSCDFT DEBUG: |-source( 8): 
 

     total cpu time spent up to now is        0.3 secs

     per-process dynamical memory:    97.0 Mb

     Self-consistent Calculation

     iteration #  1     ecut=    30.00 Ry     beta= 0.20
OSCDFT: warm up loop #    1; constraints are NOT applied
     Davidson diagonalization with overlap
     ethr =  1.00E-02,  avg # of iterations =  3.0

     total cpu time spent up to now is        0.6 secs

     total energy              =    -722.46697068 Ry
     estimated scf accuracy    <       3.32351522 Ry

     total magnetization       =     0.78 Bohr mag/cell
     absolute magnetization    =     0.91 Bohr mag/cell

     iteration #  2     ecut=    30.00 Ry     beta= 0.20
OSCDFT: warm up loop #    2; constraints are NOT applied
     Davidson diagonalization with overlap
     ethr =  3.43E-03,  avg # of iterations =  2.0

     total cpu time spent up to now is        0.9 secs

     total energy              =    -722.47110670 Ry
     estimated scf accuracy    <       0.99027659 Ry

     total magnetization       =     0.14 Bohr mag/cell
     absolute magnetization    =     0.36 Bohr mag/cell

     iteration #  3     ecut=    30.00 Ry     beta= 0.20
OSCDFT: warm up loop #    3; constraints are NOT applied
     Davidson diagonalization with overlap
     ethr =  1.02E-03,  avg # of iterations =  5.5

     total cpu time spent up to now is        1.3 secs

     total energy              =    -722.68146663 Ry
     estimated scf accuracy    <       1.04180879 Ry

     total magnetization       =     1.00 Bohr mag/cell
     absolute magnetization    =     1.23 Bohr mag/cell

     iteration #  4     ecut=    30.00 Ry     beta= 0.20
OSCDFT: warm up loop #    4; constraints are NOT applied
     Davidson diagonalization with overlap
     ethr =  1.02E-03,  avg # of iterations =  1.0

     total cpu time spent up to now is        1.6 secs

     total energy              =    -722.70974200 Ry
     estimated scf accuracy    <       0.31343891 Ry

     total magnetization       =     0.49 Bohr mag/cell
     absolute magnetization    =     0.69 Bohr mag/cell

     iteration #  5     ecut=    30.00 Ry     beta= 0.20
OSCDFT: warm up loop #    5; constraints are NOT applied
     Davidson diagonalization with overlap
     ethr =  3.23E-04,  avg # of iterations =  1.5

     total cpu time spent up to now is        1.9 secs

     total energy              =    -722.67644973 Ry
     estimated scf accuracy    <       0.12471819 Ry

     total magnetization       =     0.66 Bohr mag/cell
     absolute magnetization    =     0.86 Bohr mag/cell

     iteration #  6     ecut=    30.00 Ry     beta= 0.20
     Davidson diagonalization with overlap
     ethr =  1.29E-04,  avg # of iterations =  7.0
OSCDFT DEBUG: oscdft_new_ns from oscdft_electrons
 
OSCDFT: occupation #  1: F   UP 2(3D); tr[ns]:   1.2863
OSCDFT: eigenvalue
OSCDFT:    0.0082  0.2851  0.2851  0.3227  0.3853
OSCDFT: eigenvector (column)
OSCDFT:   -0.0000  0.0000  0.0000  0.0000  1.0000
OSCDFT:   -0.0000  0.6619  0.7496 -0.0000 -0.0000
OSCDFT:   -0.0000  0.7496 -0.6619 -0.0000 -0.0000
OSCDFT:    0.0000 -0.0000 -0.0000 -1.0000  0.0000
OSCDFT:    1.0000  0.0000  0.0000  0.0000  0.0000
OSCDFT: matrix (before diag.)
OSCDFT:    0.3853 -0.0000 -0.0000  0.0000  0.0000
OSCDFT:   -0.0000  0.2851 -0.0000  0.0000  0.0000
OSCDFT:   -0.0000 -0.0000  0.2851  0.0000  0.0000
OSCDFT:    0.0000  0.0000  0.0000  0.3227 -0.0000
OSCDFT:    0.0000  0.0000  0.0000 -0.0000  0.0082
OSCDFT: occupation #  2: F DOWN 2(3D); tr[ns]:   1.2018
OSCDFT: eigenvalue
OSCDFT:    0.0003  0.2605  0.2605  0.3109  0.3696
OSCDFT: eigenvector (column)
OSCDFT:   -0.0000 -0.0000 -0.0000  0.0000  1.0000
OSCDFT:   -0.0000 -0.6649 -0.7470 -0.0000 -0.0000
OSCDFT:   -0.0000 -0.7470  0.6649 -0.0000 -0.0000
OSCDFT:    0.0000  0.0000  0.0000 -1.0000  0.0000
OSCDFT:    1.0000 -0.0000 -0.0000  0.0000  0.0000
OSCDFT: matrix (before diag.)
OSCDFT:    0.3696 -0.0000 -0.0000  0.0000  0.0000
OSCDFT:   -0.0000  0.2605 -0.0000  0.0000  0.0000
OSCDFT:   -0.0000 -0.0000  0.2605  0.0000  0.0000
OSCDFT:    0.0000  0.0000  0.0000  0.3109 -0.0000
OSCDFT:    0.0000  0.0000  0.0000 -0.0000  0.0003

     total cpu time spent up to now is        2.2 secs

     total energy              =    -722.70253786 Ry
     estimated scf accuracy    <       0.82386265 Ry

     total magnetization       =     0.38 Bohr mag/cell
     absolute magnetization    =     0.56 Bohr mag/cell

     iteration #  7     ecut=    30.00 Ry     beta= 0.20
     Davidson diagonalization with overlap
     ethr =  1.29E-04,  avg # of iterations =  2.0
OSCDFT DEBUG: oscdft_new_ns from oscdft_electrons
 
OSCDFT: occupation #  1: F   UP 2(3D); tr[ns]:   1.5230
OSCDFT: eigenvalue
OSCDFT:    0.2418  0.2874  0.2874  0.3204  0.3860
OSCDFT: eigenvector (column)
OSCDFT:   -0.0000 -0.0000 -0.0000  0.0000  1.0000
OSCDFT:   -0.0000 -0.6925 -0.7214 -0.0000 -0.0000
OSCDFT:   -0.0000 -0.7214  0.6925 -0.0000 -0.0000
OSCDFT:    0.0000  0.0000  0.0000 -1.0000  0.0000
OSCDFT:    1.0000 -0.0000  0.0000  0.0000  0.0000
OSCDFT: matrix (before diag.)
OSCDFT:    0.3860 -0.0000 -0.0000  0.0000  0.0000
OSCDFT:   -0.0000  0.2874 -0.0000  0.0000  0.0000
OSCDFT:   -0.0000 -0.0000  0.2874  0.0000  0.0000
OSCDFT:    0.0000  0.0000  0.0000  0.3204 -0.0000
OSCDFT:    0.0000  0.0000  0.0000 -0.0000  0.2418
OSCDFT: occupation #  2: F DOWN 2(3D); tr[ns]:   1.2184
OSCDFT: eigenvalue
OSCDFT:    0.0112  0.2634  0.2634  0.3097  0.3707
OSCDFT: eigenvector (column)
OSCDFT:   -0.0000 -0.0000 -0.0000  0.0000  1.0000
OSCDFT:   -0.0000 -0.6342 -0.7732 -0.0000 -0.0000
OSCDFT:   -0.0000 -0.7732  0.6342 -0.0000 -0.0000
OSCDFT:    0.0000  0.0000  0.0000 -1.0000  0.0000
OSCDFT:    1.0000 -0.0000 -0.0000  0.0000  0.0000
OSCDFT: matrix (before diag.)
OSCDFT:    0.3707 -0.0000 -0.0000  0.0000  0.0000
OSCDFT:   -0.0000  0.2634 -0.0000  0.0000  0.0000
OSCDFT:   -0.0000 -0.0000  0.2634  0.0000  0.0000
OSCDFT:    0.0000  0.0000  0.0000  0.3097 -0.0000
OSCDFT:    0.0000  0.0000  0.0000 -0.0000  0.0112

     total cpu time spent up to now is        2.5 secs

     total energy              =    -722.69555919 Ry
     estimated scf accuracy    <       0.08868952 Ry

     total magnetization       =     0.86 Bohr mag/cell
     absolute magnetization    =     1.02 Bohr mag/cell

     iteration #  8     ecut=    30.00 Ry     beta= 0.20
     Davidson diagonalization with overlap
     ethr =  9.14E-05,  avg # of iterations =  4.0
OSCDFT DEBUG: oscdft_new_ns from oscdft_electrons
 
OSCDFT: occupation #  1: F   UP 2(3D); tr[ns]:   1.6347
OSCDFT: eigenvalue
OSCDFT:    0.3011  0.3011  0.3179  0.3225  0.3920
OSCDFT: eigenvector (column)
OSCDFT:   -0.0000 -0.0000  0.0000 -0.0000 -1.0000
OSCDFT:   -0.6169 -0.7870 -0.0000  0.0000  0.0000
OSCDFT:   -0.7870  0.6169 -0.0000  0.0000  0.0000
OSCDFT:    0.0000  0.0000 -0.0000  1.0000 -0.0000
OSCDFT:    0.0000 -0.0000 -1.0000 -0.0000 -0.0000
OSCDFT: matrix (before diag.)
OSCDFT:    0.3920 -0.0000 -0.0000  0.0000  0.0000
OSCDFT:   -0.0000  0.3011 -0.0000  0.0000  0.0000
OSCDFT:   -0.0000 -0.0000  0.3011  0.0000  0.0000
OSCDFT:    0.0000  0.0000  0.0000  0.3225 -0.0000
OSCDFT:    0.0000  0.0000  0.0000 -0.0000  0.3179
OSCDFT: occupation #  2: F DOWN 2(3D); tr[ns]:   1.2530
OSCDFT: eigenvalue
OSCDFT:    0.0077  0.2765  0.2765  0.3130  0.3793
OSCDFT: eigenvector (column)
OSCDFT:   -0.0000  0.0000  0.0000  0.0000  1.0000
OSCDFT:   -0.0000  0.6140  0.7893 -0.0000 -0.0000
OSCDFT:   -0.0000  0.7893 -0.6140 -0.0000 -0.0000
OSCDFT:    0.0000 -0.0000 -0.0000 -1.0000  0.0000
OSCDFT:    1.0000  0.0000  0.0000  0.0000  0.0000
OSCDFT: matrix (before diag.)
OSCDFT:    0.3793 -0.0000 -0.0000  0.0000  0.0000
OSCDFT:   -0.0000  0.2765 -0.0000  0.0000  0.0000
OSCDFT:   -0.0000 -0.0000  0.2765  0.0000  0.0000
OSCDFT:    0.0000  0.0000  0.0000  0.3130 -0.0000
OSCDFT:    0.0000  0.0000  0.0000 -0.0000  0.0077

     total cpu time spent up to now is        2.9 secs

     total energy              =    -722.71562701 Ry
     estimated scf accuracy    <       0.04999747 Ry

     total magnetization       =     0.97 Bohr mag/cell
     absolute magnetization    =     1.14 Bohr mag/cell

     iteration #  9     ecut=    30.00 Ry     beta= 0.20
     Davidson diagonalization with overlap
     ethr =  5.15E-05,  avg # of iterations =  1.0
OSCDFT DEBUG: oscdft_new_ns from oscdft_electrons
 
OSCDFT: occupation #  1: F   UP 2(3D); tr[ns]:   1.6562
OSCDFT: eigenvalue
OSCDFT:    0.3028  0.3028  0.3233  0.3331  0.3941
OSCDFT: eigenvector (column)
OSCDFT:   -0.0000 -0.0000 -0.0000  0.0000 -1.0000
OSCDFT:   -0.7000 -0.7141  0.0000 -0.0000  0.0000
OSCDFT:   -0.7141  0.7000  0.0000 -0.0000  0.0000
OSCDFT:    0.0000  0.0000  1.0000  0.0000 -0.0000
OSCDFT:    0.0000 -0.0000  0.0000 -1.0000 -0.0000
OSCDFT: matrix (before diag.)
OSCDFT:    0.3941 -0.0000 -0.0000  0.0000  0.0000
OSCDFT:   -0.0000  0.3028 -0.0000  0.0000  0.0000
OSCDFT:   -0.0000 -0.0000  0.3028  0.0000  0.0000
OSCDFT:    0.0000  0.0000  0.0000  0.3233 -0.0000
OSCDFT:    0.0000  0.0000  0.0000 -0.0000  0.3331
OSCDFT: occupation #  2: F DOWN 2(3D); tr[ns]:   1.2560
OSCDFT: eigenvalue
OSCDFT:    0.0016  0.2794  0.2794  0.3141  0.3815
OSCDFT: eigenvector (column)
OSCDFT:   -0.0000  0.0000  0.0000  0.0000  1.0000
OSCDFT:   -0.0000  0.6841  0.7294 -0.0000 -0.0000
OSCDFT:   -0.0000  0.7294 -0.6841 -0.0000 -0.0000
OSCDFT:    0.0000 -0.0000 -0.0000 -1.0000  0.0000
OSCDFT:    1.0000  0.0000  0.0000  0.0000  0.0000
OSCDFT: matrix (before diag.)
OSCDFT:    0.3815 -0.0000 -0.0000  0.0000  0.0000
OSCDFT:   -0.0000  0.2794 -0.0000  0.0000  0.0000
OSCDFT:   -0.0000 -0.0000  0.2794  0.0000  0.0000
OSCDFT:    0.0000  0.0000  0.0000  0.3141 -0.0000
OSCDFT:    0.0000  0.0000  0.0000 -0.0000  0.0016

     total cpu time spent up to now is        3.2 secs

     total energy              =    -722.71557616 Ry
     estimated scf accuracy    <       0.04339477 Ry

     total magnetization       =     0.98 Bohr mag/cell
     absolute magnetization    =     1.15 Bohr mag/cell

     iteration # 10     ecut=    30.00 Ry     beta= 0.20
     Davidson diagonalization with overlap
     ethr =  4.47E-05,  avg # of iterations =  1.0
OSCDFT DEBUG: oscdft_new_ns from oscdft_electrons
 
OSCDFT: occupation #  1: F   UP 2(3D); tr[ns]:   1.5972
OSCDFT: eigenvalue
OSCDFT:    0.2755  0.3020  0.3020  0.3237  0.3940
OSCDFT: eigenvector (column)
OSCDFT:   -0.0000 -0.0000 -0.0000  0.0000  1.0000
OSCDFT:   -0.0000 -0.6439 -0.7651 -0.0000 -0.0000
OSCDFT:   -0.0000 -0.7651  0.6439 -0.0000 -0.0000
OSCDFT:    0.0000  0.0000  0.0000 -1.0000  0.0000
OSCDFT:    1.0000 -0.0000  0.0000  0.0000  0.0000
OSCDFT: matrix (before diag.)
OSCDFT:    0.3940 -0.0000 -0.0000  0.0000  0.0000
OSCDFT:   -0.0000  0.3020 -0.0000  0.0000  0.0000
OSCDFT:   -0.0000 -0.0000  0.3020  0.0000  0.0000
OSCDFT:    0.0000  0.0000  0.0000  0.3237 -0.0000
OSCDFT:    0.0000  0.0000  0.0000 -0.0000  0.2755
OSCDFT: occupation #  2: F DOWN 2(3D); tr[ns]:   1.2572
OSCDFT: eigenvalue
OSCDFT:    0.0008  0.2797  0.2797  0.3149  0.3822
OSCDFT: eigenvector (column)
OSCDFT:   -0.0000 -0.0000 -0.0000  0.0000  1.0000
OSCDFT:   -0.0000 -0.6638 -0.7479 -0.0000 -0.0000
OSCDFT:   -0.0000 -0.7479  0.6638 -0.0000 -0.0000
OSCDFT:    0.0000  0.0000  0.0000 -1.0000  0.0000
OSCDFT:    1.0000 -0.0000 -0.0000  0.0000  0.0000
OSCDFT: matrix (before diag.)
OSCDFT:    0.3822 -0.0000 -0.0000  0.0000  0.0000
OSCDFT:   -0.0000  0.2797 -0.0000  0.0000  0.0000
OSCDFT:   -0.0000 -0.0000  0.2797  0.0000  0.0000
OSCDFT:    0.0000  0.0000  0.0000  0.3149 -0.0000
OSCDFT:    0.0000  0.0000  0.0000 -0.0000  0.0008

     total cpu time spent up to now is        3.5 secs

     total energy              =    -722.71407598 Ry
     estimated scf accuracy    <       0.02272269 Ry

     total magnetization       =     0.99 Bohr mag/cell
     absolute magnetization    =     1.17 Bohr mag/cell

     iteration # 11     ecut=    30.00 Ry     beta= 0.20
     Davidson diagonalization with overlap
     ethr =  2.34E-05,  avg # of iterations =  2.0
OSCDFT DEBUG: oscdft_new_ns from oscdft_electrons
 
OSCDFT: occupation #  1: F   UP 2(3D); tr[ns]:   1.5817
OSCDFT: eigenvalue
OSCDFT:    0.2652  0.2995  0.2995  0.3236  0.3939
OSCDFT: eigenvector (column)
OSCDFT:   -0.0000 -0.0000 -0.0000  0.0000  1.0000
OSCDFT:   -0.0000 -0.6785 -0.7346 -0.0000 -0.0000
OSCDFT:   -0.0000 -0.7346  0.6785 -0.0000 -0.0000
OSCDFT:    0.0000  0.0000  0.0000 -1.0000  0.0000
OSCDFT:    1.0000 -0.0000  0.0000  0.0000  0.0000
OSCDFT: matrix (before diag.)
OSCDFT:    0.3939 -0.0000 -0.0000  0.0000  0.0000
OSCDFT:   -0.0000  0.2995 -0.0000  0.0000  0.0000
OSCDFT:   -0.0000 -0.0000  0.2995  0.0000  0.0000
OSCDFT:    0.0000  0.0000  0.0000  0.3236 -0.0000
OSCDFT:    0.0000  0.0000  0.0000 -0.0000  0.2652
OSCDFT: occupation #  2: F DOWN 2(3D); tr[ns]:   1.2611
OSCDFT: eigenvalue
OSCDFT:    0.0004  0.2812  0.2812  0.3155  0.3828
OSCDFT: eigenvector (column)
OSCDFT:   -0.0000 -0.0000 -0.0000  0.0000  1.0000
OSCDFT:   -0.0000 -0.6532 -0.7572 -0.0000 -0.0000
OSCDFT:   -0.0000 -0.7572  0.6532 -0.0000 -0.0000
OSCDFT:    0.0000  0.0000  0.0000 -1.0000  0.0000
OSCDFT:    1.0000 -0.0000 -0.0000  0.0000  0.0000
OSCDFT: matrix (before diag.)
OSCDFT:    0.3828 -0.0000 -0.0000  0.0000  0.0000
OSCDFT:   -0.0000  0.2812 -0.0000  0.0000  0.0000
OSCDFT:   -0.0000 -0.0000  0.2812  0.0000  0.0000
OSCDFT:    0.0000  0.0000  0.0000  0.3155 -0.0000
OSCDFT:    0.0000  0.0000  0.0000 -0.0000  0.0004

     total cpu time spent up to now is        3.8 secs

     total energy              =    -722.71595697 Ry
     estimated scf accuracy    <       0.00082643 Ry

     total magnetization       =     1.00 Bohr mag/cell
     absolute magnetization    =     1.19 Bohr mag/cell

     iteration # 12     ecut=    30.00 Ry     beta= 0.20
     Davidson diagonalization with overlap
     ethr =  8.52E-07,  avg # of iterations =  9.0
OSCDFT DEBUG: oscdft_new_ns from oscdft_electrons
 
OSCDFT: occupation #  1: F   UP 2(3D); tr[ns]:   1.5502
OSCDFT: eigenvalue
OSCDFT:    0.2397  0.2974  0.2974  0.3229  0.3928
OSCDFT: eigenvector (column)
OSCDFT:   -0.0000 -0.0000 -0.0000  0.0000  1.0000
OSCDFT:   -0.0000 -0.7038 -0.7104 -0.0000 -0.0000
OSCDFT:   -0.0000 -0.7104  0.7038 -0.0000 -0.0000
OSCDFT:    0.0000  0.0000  0.0000 -1.0000  0.0000
OSCDFT:    1.0000 -0.0000  0.0000  0.0000  0.0000
OSCDFT: matrix (before diag.)
OSCDFT:    0.3928 -0.0000 -0.0000  0.0000  0.0000
OSCDFT:   -0.0000  0.2974 -0.0000  0.0000  0.0000
OSCDFT:   -0.0000 -0.0000  0.2974  0.0000  0.0000
OSCDFT:    0.0000  0.0000  0.0000  0.3229 -0.0000
OSCDFT:    0.0000  0.0000  0.0000 -0.0000  0.2397
OSCDFT: occupation #  2: F DOWN 2(3D); tr[ns]:   1.2665
OSCDFT: eigenvalue
OSCDFT:    0.0000  0.2828  0.2828  0.3171  0.3837
OSCDFT: eigenvector (column)
OSCDFT:   -0.0000 -0.0000 -0.0000  0.0000  1.0000
OSCDFT:   -0.0000 -0.6827 -0.7307 -0.0000 -0.0000
OSCDFT:   -0.0000 -0.7307  0.6827 -0.0000 -0.0000
OSCDFT:    0.0000  0.0000  0.0000 -1.0000  0.0000
OSCDFT:    1.0000 -0.0000 -0.0000  0.0000  0.0000
OSCDFT: matrix (before diag.)
OSCDFT:    0.3837 -0.0000 -0.0000  0.0000  0.0000
OSCDFT:   -0.0000  0.2828 -0.0000  0.0000  0.0000
OSCDFT:   -0.0000 -0.0000  0.2828  0.0000  0.0000
OSCDFT:    0.0000  0.0000  0.0000  0.3171 -0.0000
OSCDFT:    0.0000  0.0000  0.0000 -0.0000  0.0000

     total cpu time spent up to now is        4.2 secs

     total energy              =    -722.71639106 Ry
     estimated scf accuracy    <       0.00120232 Ry

     total magnetization       =     1.00 Bohr mag/cell
     absolute magnetization    =     1.20 Bohr mag/cell

     iteration # 13     ecut=    30.00 Ry     beta= 0.20
     Davidson diagonalization with overlap
     ethr =  8.52E-07,  avg # of iterations =  1.0
OSCDFT DEBUG: oscdft_new_ns from oscdft_electrons
 
OSCDFT: occupation #  1: F   UP 2(3D); tr[ns]:   1.5672
OSCDFT: eigenvalue
OSCDFT:    0.2561  0.2976  0.2976  0.3229  0.3929
OSCDFT: eigenvector (column)
OSCDFT:   -0.0000 -0.0000 -0.0000  0.0000  1.0000
OSCDFT:   -0.0000 -0.6025 -0.7981 -0.0000 -0.0000
OSCDFT:   -0.0000 -0.7981  0.6025 -0.0000 -0.0000
OSCDFT:    0.0000  0.0000  0.0000 -1.0000  0.0000
OSCDFT:    1.0000 -0.0000  0.0000  0.0000  0.0000
OSCDFT: matrix (before diag.)
OSCDFT:    0.3929 -0.0000 -0.0000  0.0000  0.0000
OSCDFT:   -0.0000  0.2976 -0.0000  0.0000  0.0000
OSCDFT:   -0.0000 -0.0000  0.2976  0.0000  0.0000
OSCDFT:    0.0000  0.0000  0.0000  0.3229 -0.0000
OSCDFT:    0.0000  0.0000  0.0000 -0.0000  0.2561
OSCDFT: occupation #  2: F DOWN 2(3D); tr[ns]:   1.2690
OSCDFT: eigenvalue
OSCDFT:    0.0000  0.2838  0.2838  0.3174  0.3841
OSCDFT: eigenvector (column)
OSCDFT:   -0.0000 -0.0000 -0.0000  0.0000  1.0000
OSCDFT:   -0.0000 -0.6768 -0.7362 -0.0000 -0.0000
OSCDFT:   -0.0000 -0.7362  0.6768 -0.0000 -0.0000
OSCDFT:    0.0000  0.0000  0.0000 -1.0000  0.0000
OSCDFT:    1.0000 -0.0000 -0.0000  0.0000  0.0000
OSCDFT: matrix (before diag.)
OSCDFT:    0.3841 -0.0000 -0.0000  0.0000  0.0000
OSCDFT:   -0.0000  0.2838 -0.0000  0.0000  0.0000
OSCDFT:   -0.0000 -0.0000  0.2838  0.0000  0.0000
OSCDFT:    0.0000  0.0000  0.0000  0.3174 -0.0000
OSCDFT:    0.0000  0.0000  0.0000 -0.0000  0.0000

     total cpu time spent up to now is        4.5 secs

     total energy              =    -722.71642657 Ry
     estimated scf accuracy    <       0.00093633 Ry

     total magnetization       =     1.00 Bohr mag/cell
     absolute magnetization    =     1.21 Bohr mag/cell

     iteration # 14     ecut=    30.00 Ry     beta= 0.20
     Davidson diagonalization with overlap
     ethr =  8.52E-07,  avg # of iterations =  1.5
OSCDFT DEBUG: oscdft_new_ns from oscdft_electrons
 
OSCDFT: occupation #  1: F   UP 2(3D); tr[ns]:   1.5578
OSCDFT: eigenvalue
OSCDFT:    0.2476  0.2973  0.2973  0.3229  0.3928
OSCDFT: eigenvector (column)
OSCDFT:   -0.0000 -0.0000 -0.0000  0.0000  1.0000
OSCDFT:   -0.0000 -0.6634 -0.7483 -0.0000 -0.0000
OSCDFT:   -0.0000 -0.7483  0.6634 -0.0000 -0.0000
OSCDFT:    0.0000  0.0000  0.0000 -1.0000  0.0000
OSCDFT:    1.0000 -0.0000  0.0000  0.0000  0.0000
OSCDFT: matrix (before diag.)
OSCDFT:    0.3928 -0.0000 -0.0000  0.0000  0.0000
OSCDFT:   -0.0000  0.2973 -0.0000  0.0000  0.0000
OSCDFT:   -0.0000 -0.0000  0.2973  0.0000  0.0000
OSCDFT:    0.0000  0.0000  0.0000  0.3229 -0.0000
OSCDFT:    0.0000  0.0000  0.0000 -0.0000  0.2476
OSCDFT: occupation #  2: F DOWN 2(3D); tr[ns]:   1.2712
OSCDFT: eigenvalue
OSCDFT:    0.0000  0.2845  0.2845  0.3176  0.3846
OSCDFT: eigenvector (column)
OSCDFT:   -0.0000  0.0000  0.0000  0.0000  1.0000
OSCDFT:   -0.0000  0.6627  0.7489 -0.0000 -0.0000
OSCDFT:   -0.0000  0.7489 -0.6627 -0.0000 -0.0000
OSCDFT:    0.0000 -0.0000 -0.0000 -1.0000  0.0000
OSCDFT:    1.0000  0.0000  0.0000  0.0000  0.0000
OSCDFT: matrix (before diag.)
OSCDFT:    0.3846 -0.0000 -0.0000  0.0000  0.0000
OSCDFT:   -0.0000  0.2845 -0.0000  0.0000  0.0000
OSCDFT:   -0.0000 -0.0000  0.2845  0.0000  0.0000
OSCDFT:    0.0000  0.0000  0.0000  0.3176 -0.0000
OSCDFT:    0.0000  0.0000  0.0000 -0.0000  0.0000

     total cpu time spent up to now is        4.8 secs

     total energy              =    -722.71656774 Ry
     estimated scf accuracy    <       0.00067449 Ry

     total magnetization       =     1.00 Bohr mag/cell
     absolute magnetization    =     1.21 Bohr mag/cell

     iteration # 15     ecut=    30.00 Ry     beta= 0.20
     Davidson diagonalization with overlap
     ethr =  6.95E-07,  avg # of iterations =  1.0
OSCDFT DEBUG: oscdft_new_ns from oscdft_electrons
 
OSCDFT: occupation #  1: F   UP 2(3D); tr[ns]:   1.5636
OSCDFT: eigenvalue
OSCDFT:    0.2528  0.2974  0.2974  0.3231  0.3929
OSCDFT: eigenvector (column)
OSCDFT:   -0.0000 -0.0000 -0.0000  0.0000  1.0000
OSCDFT:   -0.0000 -0.6511 -0.7590 -0.0000 -0.0000
OSCDFT:   -0.0000 -0.7590  0.6511 -0.0000 -0.0000
OSCDFT:    0.0000  0.0000  0.0000 -1.0000  0.0000
OSCDFT:    1.0000 -0.0000  0.0000  0.0000  0.0000
OSCDFT: matrix (before diag.)
OSCDFT:    0.3929 -0.0000 -0.0000  0.0000  0.0000
OSCDFT:   -0.0000  0.2974 -0.0000  0.0000  0.0000
OSCDFT:   -0.0000 -0.0000  0.2974  0.0000  0.0000
OSCDFT:    0.0000  0.0000  0.0000  0.3231 -0.0000
OSCDFT:    0.0000  0.0000  0.0000 -0.0000  0.2528
OSCDFT: occupation #  2: F DOWN 2(3D); tr[ns]:   1.2735
OSCDFT: eigenvalue
OSCDFT:    0.0000  0.2853  0.2853  0.3180  0.3850
OSCDFT: eigenvector (column)
OSCDFT:   -0.0000  0.0000  0.0000  0.0000  1.0000
OSCDFT:   -0.0000  0.6635  0.7482 -0.0000 -0.0000
OSCDFT:   -0.0000  0.7482 -0.6635 -0.0000 -0.0000
OSCDFT:    0.0000 -0.0000 -0.0000 -1.0000  0.0000
OSCDFT:    1.0000  0.0000  0.0000  0.0000  0.0000
OSCDFT: matrix (before diag.)
OSCDFT:    0.3850 -0.0000 -0.0000  0.0000  0.0000
OSCDFT:   -0.0000  0.2853 -0.0000  0.0000  0.0000
OSCDFT:   -0.0000 -0.0000  0.2853  0.0000  0.0000
OSCDFT:    0.0000  0.0000  0.0000  0.3180 -0.0000
OSCDFT:    0.0000  0.0000  0.0000 -0.0000  0.0000

     total cpu time spent up to now is        5.1 secs

     total energy              =    -722.71660939 Ry
     estimated scf accuracy    <       0.00005775 Ry

     total magnetization       =     1.00 Bohr mag/cell
     absolute magnetization    =     1.22 Bohr mag/cell

     iteration # 16     ecut=    30.00 Ry     beta= 0.20
     Davidson diagonalization with overlap
     ethr =  5.95E-08,  avg # of iterations =  4.5
OSCDFT DEBUG: oscdft_new_ns from oscdft_electrons
 
OSCDFT: occupation #  1: F   UP 2(3D); tr[ns]:   1.5622
OSCDFT: eigenvalue
OSCDFT:    0.2514  0.2973  0.2973  0.3233  0.3930
OSCDFT: eigenvector (column)
OSCDFT:   -0.0000 -0.0000 -0.0000  0.0000  1.0000
OSCDFT:   -0.0000 -0.7047 -0.7095 -0.0000 -0.0000
OSCDFT:   -0.0000 -0.7095  0.7047 -0.0000 -0.0000
OSCDFT:    0.0000  0.0000  0.0000 -1.0000  0.0000
OSCDFT:    1.0000 -0.0000  0.0000  0.0000  0.0000
OSCDFT: matrix (before diag.)
OSCDFT:    0.3930 -0.0000 -0.0000  0.0000  0.0000
OSCDFT:   -0.0000  0.2973 -0.0000  0.0000  0.0000
OSCDFT:   -0.0000 -0.0000  0.2973  0.0000  0.0000
OSCDFT:    0.0000  0.0000  0.0000  0.3233 -0.0000
OSCDFT:    0.0000  0.0000  0.0000 -0.0000  0.2514
OSCDFT: occupation #  2: F DOWN 2(3D); tr[ns]:   1.2765
OSCDFT: eigenvalue
OSCDFT:    0.0000  0.2859  0.2859  0.3190  0.3858
OSCDFT: eigenvector (column)
OSCDFT:   -0.0000  0.0000  0.0000  0.0000  1.0000
OSCDFT:   -0.0000  0.6612  0.7502 -0.0000 -0.0000
OSCDFT:   -0.0000  0.7502 -0.6612 -0.0000 -0.0000
OSCDFT:    0.0000 -0.0000 -0.0000 -1.0000  0.0000
OSCDFT:    1.0000  0.0000  0.0000  0.0000  0.0000
OSCDFT: matrix (before diag.)
OSCDFT:    0.3858 -0.0000 -0.0000  0.0000  0.0000
OSCDFT:   -0.0000  0.2859 -0.0000  0.0000  0.0000
OSCDFT:   -0.0000 -0.0000  0.2859  0.0000  0.0000
OSCDFT:    0.0000  0.0000  0.0000  0.3190 -0.0000
OSCDFT:    0.0000  0.0000  0.0000 -0.0000  0.0000

     total cpu time spent up to now is        5.5 secs

     total energy              =    -722.71662866 Ry
     estimated scf accuracy    <       0.00001694 Ry

     total magnetization       =     1.00 Bohr mag/cell
     absolute magnetization    =     1.23 Bohr mag/cell

     iteration # 17     ecut=    30.00 Ry     beta= 0.20
     Davidson diagonalization with overlap
     ethr =  1.75E-08,  avg # of iterations =  7.5
OSCDFT DEBUG: oscdft_new_ns from oscdft_electrons
 
OSCDFT: occupation #  1: F   UP 2(3D); tr[ns]:   1.5591
OSCDFT: eigenvalue
OSCDFT:    0.2487  0.2970  0.2970  0.3233  0.3930
OSCDFT: eigenvector (column)
OSCDFT:   -0.0000 -0.0000 -0.0000  0.0000  1.0000
OSCDFT:   -0.0000 -0.6599 -0.7514 -0.0000 -0.0000
OSCDFT:   -0.0000 -0.7514  0.6599 -0.0000 -0.0000
OSCDFT:    0.0000  0.0000  0.0000 -1.0000  0.0000
OSCDFT:    1.0000 -0.0000  0.0000  0.0000  0.0000
OSCDFT: matrix (before diag.)
OSCDFT:    0.3930 -0.0000 -0.0000  0.0000  0.0000
OSCDFT:   -0.0000  0.2970 -0.0000  0.0000  0.0000
OSCDFT:   -0.0000 -0.0000  0.2970  0.0000  0.0000
OSCDFT:    0.0000  0.0000  0.0000  0.3233 -0.0000
OSCDFT:    0.0000  0.0000  0.0000 -0.0000  0.2487
OSCDFT: occupation #  2: F DOWN 2(3D); tr[ns]:   1.2773
OSCDFT: eigenvalue
OSCDFT:    0.0000  0.2862  0.2862  0.3191  0.3858
OSCDFT: eigenvector (column)
OSCDFT:   -0.0000  0.0000  0.0000  0.0000  1.0000
OSCDFT:   -0.0000  0.6590  0.7521 -0.0000 -0.0000
OSCDFT:   -0.0000  0.7521 -0.6590 -0.0000 -0.0000
OSCDFT:    0.0000 -0.0000 -0.0000 -1.0000  0.0000
OSCDFT:    1.0000  0.0000  0.0000  0.0000  0.0000
OSCDFT: matrix (before diag.)
OSCDFT:    0.3858 -0.0000 -0.0000  0.0000  0.0000
OSCDFT:   -0.0000  0.2862 -0.0000  0.0000  0.0000
OSCDFT:   -0.0000 -0.0000  0.2862  0.0000  0.0000
OSCDFT:    0.0000  0.0000  0.0000  0.3191 -0.0000
OSCDFT:    0.0000  0.0000  0.0000 -0.0000  0.0000

     total cpu time spent up to now is        5.8 secs

     total energy              =    -722.71663310 Ry
     estimated scf accuracy    <       0.00002015 Ry

     total magnetization       =     1.00 Bohr mag/cell
     absolute magnetization    =     1.23 Bohr mag/cell

     iteration # 18     ecut=    30.00 Ry     beta= 0.20
     Davidson diagonalization with overlap
     ethr =  1.75E-08,  avg # of iterations =  2.0
OSCDFT DEBUG: oscdft_new_ns from oscdft_electrons
 
OSCDFT: occupation #  1: F   UP 2(3D); tr[ns]:   1.5619
OSCDFT: eigenvalue
OSCDFT:    0.2515  0.2971  0.2971  0.3233  0.3930
OSCDFT: eigenvector (column)
OSCDFT:   -0.0000 -0.0000 -0.0000  0.0000  1.0000
OSCDFT:   -0.0000 -0.6852 -0.7283 -0.0000 -0.0000
OSCDFT:   -0.0000 -0.7283  0.6852 -0.0000 -0.0000
OSCDFT:    0.0000  0.0000  0.0000 -1.0000  0.0000
OSCDFT:    1.0000 -0.0000  0.0000  0.0000  0.0000
OSCDFT: matrix (before diag.)
OSCDFT:    0.3930 -0.0000 -0.0000  0.0000  0.0000
OSCDFT:   -0.0000  0.2971 -0.0000  0.0000  0.0000
OSCDFT:   -0.0000 -0.0000  0.2971  0.0000  0.0000
OSCDFT:    0.0000  0.0000  0.0000  0.3233 -0.0000
OSCDFT:    0.0000  0.0000  0.0000 -0.0000  0.2515
OSCDFT: occupation #  2: F DOWN 2(3D); tr[ns]:   1.2779
OSCDFT: eigenvalue
OSCDFT:    0.0000  0.2864  0.2864  0.3192  0.3859
OSCDFT: eigenvector (column)
OSCDFT:   -0.0000  0.0000  0.0000  0.0000  1.0000
OSCDFT:   -0.0000  0.6969  0.7172 -0.0000 -0.0000
OSCDFT:   -0.0000  0.7172 -0.6969 -0.0000 -0.0000
OSCDFT:    0.0000 -0.0000 -0.0000 -1.0000  0.0000
OSCDFT:    1.0000  0.0000  0.0000  0.0000  0.0000
OSCDFT: matrix (before diag.)
OSCDFT:    0.3859 -0.0000 -0.0000  0.0000  0.0000
OSCDFT:   -0.0000  0.2864 -0.0000  0.0000  0.0000
OSCDFT:   -0.0000 -0.0000  0.2864  0.0000  0.0000
OSCDFT:    0.0000  0.0000  0.0000  0.3192 -0.0000
OSCDFT:    0.0000  0.0000  0.0000 -0.0000  0.0000

     total cpu time spent up to now is        6.1 secs

     total energy              =    -722.71663499 Ry
     estimated scf accuracy    <       0.00000355 Ry

     total magnetization       =     1.00 Bohr mag/cell
     absolute magnetization    =     1.23 Bohr mag/cell

     iteration # 19     ecut=    30.00 Ry     beta= 0.20
     Davidson diagonalization with overlap
     ethr =  3.66E-09,  avg # of iterations =  4.5
OSCDFT DEBUG: oscdft_new_ns from oscdft_electrons
 
OSCDFT: occupation #  1: F   UP 2(3D); tr[ns]:   1.5631
OSCDFT: eigenvalue
OSCDFT:    0.2526  0.2971  0.2971  0.3233  0.3931
OSCDFT: eigenvector (column)
OSCDFT:   -0.0000 -0.0000 -0.0000  0.0000  1.0000
OSCDFT:   -0.0000 -0.6820 -0.7313 -0.0000 -0.0000
OSCDFT:   -0.0000 -0.7313  0.6820 -0.0000 -0.0000
OSCDFT:    0.0000  0.0000  0.0000 -1.0000  0.0000
OSCDFT:    1.0000 -0.0000  0.0000  0.0000  0.0000
OSCDFT: matrix (before diag.)
OSCDFT:    0.3931 -0.0000 -0.0000  0.0000  0.0000
OSCDFT:   -0.0000  0.2971 -0.0000  0.0000  0.0000
OSCDFT:   -0.0000 -0.0000  0.2971  0.0000  0.0000
OSCDFT:    0.0000  0.0000  0.0000  0.3233 -0.0000
OSCDFT:    0.0000  0.0000  0.0000 -0.0000  0.2526
OSCDFT: occupation #  2: F DOWN 2(3D); tr[ns]:   1.2785
OSCDFT: eigenvalue
OSCDFT:    0.0000  0.2865  0.2865  0.3193  0.3861
OSCDFT: eigenvector (column)
OSCDFT:   -0.0000  0.0000  0.0000  0.0000  1.0000
OSCDFT:   -0.0000  0.6924  0.7215 -0.0000 -0.0000
OSCDFT:   -0.0000  0.7215 -0.6924 -0.0000 -0.0000
OSCDFT:    0.0000 -0.0000 -0.0000 -1.0000  0.0000
OSCDFT:    1.0000  0.0000  0.0000  0.0000  0.0000
OSCDFT: matrix (before diag.)
OSCDFT:    0.3861 -0.0000 -0.0000  0.0000  0.0000
OSCDFT:   -0.0000  0.2865 -0.0000  0.0000  0.0000
OSCDFT:   -0.0000 -0.0000  0.2865  0.0000  0.0000
OSCDFT:    0.0000  0.0000  0.0000  0.3193 -0.0000
OSCDFT:    0.0000  0.0000  0.0000 -0.0000  0.0000

     total cpu time spent up to now is        6.4 secs

     total energy              =    -722.71663596 Ry
     estimated scf accuracy    <       0.00000983 Ry

     total magnetization       =     1.00 Bohr mag/cell
     absolute magnetization    =     1.23 Bohr mag/cell

     iteration # 20     ecut=    30.00 Ry     beta= 0.20
     Davidson diagonalization with overlap
     ethr =  3.66E-09,  avg # of iterations =  1.0
OSCDFT DEBUG: oscdft_new_ns from oscdft_electrons
 
OSCDFT: occupation #  1: F   UP 2(3D); tr[ns]:   1.5612
OSCDFT: eigenvalue
OSCDFT:    0.2508  0.2970  0.2970  0.3233  0.3930
OSCDFT: eigenvector (column)
OSCDFT:   -0.0000 -0.0000 -0.0000  0.0000  1.0000
OSCDFT:   -0.0000 -0.6427 -0.7661 -0.0000 -0.0000
OSCDFT:   -0.0000 -0.7661  0.6427 -0.0000 -0.0000
OSCDFT:    0.0000  0.0000  0.0000 -1.0000  0.0000
OSCDFT:    1.0000 -0.0000  0.0000  0.0000  0.0000
OSCDFT: matrix (before diag.)
OSCDFT:    0.3930 -0.0000 -0.0000  0.0000  0.0000
OSCDFT:   -0.0000  0.2970 -0.0000  0.0000  0.0000
OSCDFT:   -0.0000 -0.0000  0.2970  0.0000  0.0000
OSCDFT:    0.0000  0.0000  0.0000  0.3233 -0.0000
OSCDFT:    0.0000  0.0000  0.0000 -0.0000  0.2508
OSCDFT: occupation #  2: F DOWN 2(3D); tr[ns]:   1.2785
OSCDFT: eigenvalue
OSCDFT:    0.0000  0.2866  0.2866  0.3193  0.3861
OSCDFT: eigenvector (column)
OSCDFT:   -0.0000 -0.0000 -0.0000  0.0000  1.0000
OSCDFT:   -0.0000 -0.6097 -0.7926 -0.0000 -0.0000
OSCDFT:   -0.0000 -0.7926  0.6097 -0.0000 -0.0000
OSCDFT:    0.0000  0.0000  0.0000 -1.0000  0.0000
OSCDFT:    1.0000 -0.0000 -0.0000  0.0000  0.0000
OSCDFT: matrix (before diag.)
OSCDFT:    0.3861 -0.0000 -0.0000  0.0000  0.0000
OSCDFT:   -0.0000  0.2866 -0.0000  0.0000  0.0000
OSCDFT:   -0.0000 -0.0000  0.2866  0.0000  0.0000
OSCDFT:    0.0000  0.0000  0.0000  0.3193 -0.0000
OSCDFT:    0.0000  0.0000  0.0000 -0.0000  0.0000
 
     Magnetic moment per site  (integrated on atomic sphere of radius R)
     atom   1 (R=0.211)  charge=  8.4541  magn=  0.1795
     atom   2 (R=0.211)  charge=  8.4544  magn=  0.1811
     atom   3 (R=0.211)  charge=  8.4547  magn=  0.1796
     atom   4 (R=0.211)  charge=  8.4552  magn=  0.1801
     atom   5 (R=0.211)  charge=  5.4756  magn= -0.0127
     atom   6 (R=0.211)  charge=  5.4757  magn= -0.0129
     atom   7 (R=0.211)  charge=  5.4757  magn= -0.0137
     atom   8 (R=0.211)  charge=  5.4758  magn= -0.0125
     atom   9 (R=0.211)  charge=  5.4756  magn= -0.0135
     atom  10 (R=0.211)  charge=  5.4758  magn= -0.0125
     atom  11 (R=0.211)  charge=  5.4756  magn= -0.0128
     atom  12 (R=0.211)  charge=  5.4757  magn= -0.0127

     total cpu time spent up to now is        6.8 secs

     End of self-consistent calculation
OSCDFT DEBUG: oscdft_new_ns from oscdft_print_ns
 
OSCDFT: occupation #  1: F   UP 2(3D); tr[ns]:   1.5612
OSCDFT: eigenvalue
OSCDFT:    0.2509  0.2970  0.2970  0.3233  0.3930
OSCDFT: eigenvector (column)
OSCDFT:   -0.0000 -0.0000 -0.0000  0.0000  1.0000
OSCDFT:   -0.0000 -0.7207 -0.6932 -0.0000 -0.0000
OSCDFT:   -0.0000 -0.6932  0.7207 -0.0000 -0.0000
OSCDFT:    0.0000  0.0000  0.0000 -1.0000  0.0000
OSCDFT:    1.0000 -0.0000  0.0000  0.0000  0.0000
OSCDFT: matrix (before diag.)
OSCDFT:    0.3930 -0.0000 -0.0000  0.0000  0.0000
OSCDFT:   -0.0000  0.2970 -0.0000  0.0000  0.0000
OSCDFT:   -0.0000 -0.0000  0.2970  0.0000  0.0000
OSCDFT:    0.0000  0.0000  0.0000  0.3233 -0.0000
OSCDFT:    0.0000  0.0000  0.0000 -0.0000  0.2509
OSCDFT: occupation #  2: F DOWN 2(3D); tr[ns]:   1.2785
OSCDFT: eigenvalue
OSCDFT:    0.0000  0.2866  0.2866  0.3193  0.3861
OSCDFT: eigenvector (column)
OSCDFT:   -0.0000  0.0000  0.0000  0.0000  1.0000
OSCDFT:   -0.0000  0.6246  0.7810 -0.0000 -0.0000
OSCDFT:   -0.0000  0.7810 -0.6246 -0.0000 -0.0000
OSCDFT:    0.0000 -0.0000 -0.0000 -1.0000  0.0000
OSCDFT:    1.0000  0.0000  0.0000  0.0000  0.0000
OSCDFT: matrix (before diag.)
OSCDFT:    0.3861 -0.0000 -0.0000  0.0000  0.0000
OSCDFT:   -0.0000  0.2866 -0.0000  0.0000  0.0000
OSCDFT:   -0.0000 -0.0000  0.2866  0.0000  0.0000
OSCDFT:    0.0000  0.0000  0.0000  0.3193 -0.0000
OSCDFT:    0.0000  0.0000  0.0000 -0.0000  0.0000

 ------ SPIN UP ------------


          k = 0.0000 0.0000 0.0000 (  1260 PWs)   bands (ev):

   -49.0713 -49.0415 -49.0413 -49.0120 -25.4430 -25.4430 -25.4208 -25.4208
   -25.3499 -25.3499 -25.3248 -25.3248 -25.2719 -25.0795 -25.0793 -24.8807
    -9.7879  -9.1850  -9.1847  -8.7590  -8.5745  -8.5353  -8.5349  -8.2657
     3.7873   3.9735   3.9736   3.9811   3.9815   4.0721   4.0721   4.2100
     5.7050   5.7050   5.7263   5.7263   5.7979   6.5612   6.5618   6.6011
     6.6011   7.1391   7.1392   7.1650   7.4668   7.4668   7.8543   7.8543
     9.1326   9.4825   9.4829   9.8571  11.1987  11.1987  11.4749  11.4749
    11.5497  11.5498  11.8424

 ------ SPIN DOWN ----------


          k = 0.0000 0.0000 0.0000 (  1260 PWs)   bands (ev):

   -48.7872 -48.7575 -48.7560 -48.7267 -25.1849 -25.0902 -25.0902 -25.0675
   -25.0674 -24.9947 -24.9947 -24.9922 -24.9913 -24.9691 -24.9690 -24.7920
    -9.7903  -9.1922  -9.1921  -8.7687  -8.5909  -8.5513  -8.5512  -8.2856
     3.8213   4.0029   4.0030   4.0195   4.0196   4.1174   4.1175   4.2124
     5.7315   5.7315   5.7545   5.7545   5.8021   6.5492   6.5493   6.6168
     6.6168   7.1547   7.1562   7.1563   7.4530   7.4530   7.8370   7.8371
     9.7468  10.1146  10.1160  10.5112  11.3736  11.3736  11.6217  11.6217
    11.6857  11.6858  11.9514

     the Fermi energy is     9.2926 ev

!    total energy              =    -722.71663725 Ry
     estimated scf accuracy    <       0.00000083 Ry
     smearing contrib. (-TS)   =      -0.00150867 Ry
     internal energy E=F+TS    =    -722.71512858 Ry

     The total energy is F=E-TS. E is the sum of the following terms:
     one-electron contribution =    -324.57111066 Ry
     hartree contribution      =     206.43354056 Ry
     xc contribution           =    -115.82010558 Ry
     ewald contribution        =    -488.75745290 Ry

     total magnetization       =     1.00 Bohr mag/cell
     absolute magnetization    =     1.23 Bohr mag/cell

     convergence has been achieved in  20 iterations

     Forces acting on atoms (cartesian axes, Ry/au):

     atom    1 type  1   force =     0.00000000    0.00000000    0.00000000
     atom    2 type  2   force =     0.00000000    0.00000000    0.00000000
     atom    3 type  1   force =     0.00000000    0.00000000   -0.00000519
     atom    4 type  1   force =     0.00000000    0.00000000    0.00000519
     atom    5 type  3   force =     0.00000000    0.00000000   -0.22197942
     atom    6 type  3   force =     0.00000000    0.00000000   -0.22191401
     atom    7 type  3   force =     0.00000000    0.00000000   -0.22197005
     atom    8 type  3   force =     0.00000000    0.00000000   -0.22197419
     atom    9 type  3   force =     0.00000000    0.00000000    0.22197005
     atom   10 type  3   force =     0.00000000    0.00000000    0.22197419
     atom   11 type  3   force =     0.00000000    0.00000000    0.22191401
     atom   12 type  3   force =     0.00000000    0.00000000    0.22197942

     Total force =     0.627796     Total SCF correction =     0.002889

     Writing all to output data dir ./anatase.save/
 
     init_run     :      0.14s CPU      0.20s WALL (       1 calls)
     electrons    :      5.43s CPU      6.49s WALL (       1 calls)
     forces       :      0.17s CPU      0.17s WALL (       1 calls)

     Called by init_run:
     wfcinit      :      0.03s CPU      0.03s WALL (       1 calls)
     potinit      :      0.01s CPU      0.03s WALL (       1 calls)
     hinit0       :      0.04s CPU      0.06s WALL (       1 calls)

     Called by electrons:
     c_bands      :      1.15s CPU      1.59s WALL (      20 calls)
     sum_band     :      2.48s CPU      2.69s WALL (      20 calls)
     v_of_rho     :      0.37s CPU      0.46s WALL (      21 calls)
     newd         :      1.33s CPU      1.66s WALL (      21 calls)
     mix_rho      :      0.07s CPU      0.09s WALL (      20 calls)

     Called by c_bands:
     init_us_2    :      0.02s CPU      0.03s WALL (      86 calls)
     init_us_2:cp :      0.02s CPU      0.03s WALL (      86 calls)
     regterg      :      1.09s CPU      1.53s WALL (      40 calls)

     Called by *egterg:
     rdiaghg      :      0.28s CPU      0.30s WALL (     164 calls)
     h_psi        :      0.59s CPU      0.94s WALL (     166 calls)
     s_psi        :      0.02s CPU      0.04s WALL (     168 calls)
     g_psi        :      0.00s CPU      0.00s WALL (     124 calls)

     Called by h_psi:
     h_psi:calbec :      0.07s CPU      0.12s WALL (     166 calls)
     vloc_psi     :      0.47s CPU      0.75s WALL (     166 calls)
     add_vuspsi   :      0.04s CPU      0.07s WALL (     166 calls)

     General routines
     calbec       :      0.09s CPU      0.16s WALL (     248 calls)
     fft          :      0.19s CPU      0.29s WALL (     379 calls)
     ffts         :      0.01s CPU      0.02s WALL (      62 calls)
     fftw         :      0.52s CPU      0.83s WALL (    6714 calls)
     interpolate  :      0.04s CPU      0.05s WALL (      42 calls)
 
     Parallel routines

     OSCDFT routines
     oscdft_init  :      0.00s CPU      0.00s WALL (       1 calls)
     oscdft_wfcO  :      0.00s CPU      0.00s WALL (       1 calls)
     oscdft_ns    :      0.01s CPU      0.01s WALL (      16 calls)
 
     PWSCF        :      5.82s CPU      6.99s WALL

 
   This run was terminated on:   4:12:28  19Oct2023            

=------------------------------------------------------------------------------=
   JOB DONE.
=------------------------------------------------------------------------------=
