
     Program PWSCF v.7.2 starts on 19Oct2023 at  4:10:28 
        Git branch: oscdft_unify_calbec_reboot
        Last git commit: f0d5c9d0f559bcfc1f89133dacc61ed06192ba3c-dirty
        Last git commit date: Wed Oct 18 12:50:11 2023 +0200
        Last git commit subject: Update stres_hub with the new calbec

     This program is part of the open-source Quantum ESPRESSO suite
     for quantum simulation of materials; please cite
         "P. Giannozzi et al., J. Phys.:Condens. Matter 21 395502 (2009);
         "P. Giannozzi et al., J. Phys.:Condens. Matter 29 465901 (2017);
         "P. Giannozzi et al., J. Chem. Phys. 152 154105 (2020);
          URL http://www.quantum-espresso.org", 
     in publications or presentations arising from this work. More details at
     http://www.quantum-espresso.org/quote

     Parallel version (MPI & OpenMP), running on       8 processor cores
     Number of MPI processes:                 8
     Threads/MPI process:                     1

     MPI processes distributed on     1 nodes
     5219 MiB available memory on the printing compute node when the environment starts
 
     Waiting for input...
     Reading input from standard input

     Current dimensions of program PWSCF are:
     Max number of different atomic species (ntypx) = 10
     Max number of k-points (npk) =  40000
     Max angular momentum in pseudopotentials (lmaxx) =  4

     File ./anatase.md deleted, as requested

     File ./anatase.bfgs deleted, as requested

     gamma-point specific algorithms are used
     Message from routine setup:
     Dynamics, you should have no symmetries
 
     R & G space division:  proc/nbgrp/npool/nimage =       8
     Subspace diagonalization in iterative solution of the eigenvalue problem:
     a serial algorithm will be used

 
     Parallelization info
     --------------------
     sticks:   dense  smooth     PW     G-vecs:    dense   smooth      PW
     Min         120      59     14                 7188     2529     306
     Max         122      62     16                 7206     2554     320
     Sum         973     489    121                57589    20319    2519
 
     Using Slab Decomposition
 


     bravais-lattice index     =            6
     lattice parameter (alat)  =       7.1432  a.u.
     unit-cell volume          =     916.9818 (a.u.)^3
     number of atoms/cell      =           12
     number of atomic types    =            3
     number of electrons       =        97.00
     number of Kohn-Sham states=           59
     kinetic-energy cutoff     =      30.0000  Ry
     charge density cutoff     =     240.0000  Ry
     scf convergence threshold =      1.0E-06
     mixing beta               =       0.2000
     number of iterations used =            8  plain     mixing
     energy convergence thresh.=      1.0E-04
     force convergence thresh. =      1.0E-03
     Exchange-correlation=  SLA  PW   PBE  PBE
                           (   1   4   3   4   0   0   0)
     nstep                     =           50


     celldm(1)=   7.143165  celldm(2)=   0.000000  celldm(3)=   2.515873
     celldm(4)=   0.000000  celldm(5)=   0.000000  celldm(6)=   0.000000

     crystal axes: (cart. coord. in units of alat)
               a(1) = (   1.000000   0.000000   0.000000 )  
               a(2) = (   0.000000   1.000000   0.000000 )  
               a(3) = (   0.000000   0.000000   2.515873 )  

     reciprocal axes: (cart. coord. in units 2 pi/alat)
               b(1) = (  1.000000  0.000000  0.000000 )  
               b(2) = (  0.000000  1.000000  0.000000 )  
               b(3) = (  0.000000  0.000000  0.397476 )  


     PseudoPot. # 1 for Ti read from file:
     /home/calvin/projects/q-e/test-suite/..//pseudo/Ti.pbe-sp-van_ak.UPF
     MD5 check sum: 86c7352f6111e58f0e15d2572cfb5481
     Pseudo is Ultrasoft, Zval = 12.0
     Generated by new atomic code, or converted to UPF format
     Using radial grid of  851 points,  6 beta functions with: 
                l(1) =   0
                l(2) =   0
                l(3) =   1
                l(4) =   1
                l(5) =   2
                l(6) =   2
     Q(r) pseudized with  8 coefficients,  rinner =    1.000   1.000   1.000
                                                       1.000   1.000

     PseudoPot. # 2 for Ti read from file:
     /home/calvin/projects/q-e/test-suite/..//pseudo/Ti.pbe-sp-van_ak.UPF
     MD5 check sum: 86c7352f6111e58f0e15d2572cfb5481
     Pseudo is Ultrasoft, Zval = 12.0
     Generated by new atomic code, or converted to UPF format
     Using radial grid of  851 points,  6 beta functions with: 
                l(1) =   0
                l(2) =   0
                l(3) =   1
                l(4) =   1
                l(5) =   2
                l(6) =   2
     Q(r) pseudized with  8 coefficients,  rinner =    1.000   1.000   1.000
                                                       1.000   1.000

     PseudoPot. # 3 for O  read from file:
     /home/calvin/projects/q-e/test-suite/..//pseudo/O.pbe-van_ak.UPF
     MD5 check sum: 78c19812648e8988a0fe644b0f25305e
     Pseudo is Ultrasoft, Zval =  6.0
     Generated by new atomic code, or converted to UPF format
     Using radial grid of  737 points,  4 beta functions with: 
                l(1) =   0
                l(2) =   0
                l(3) =   1
                l(4) =   1
     Q(r) pseudized with  8 coefficients,  rinner =    0.800   0.800   0.800


     atomic species   valence    mass     pseudopotential
     Ti               12.00    47.86700     Ti( 1.00)
     Ti1              12.00    47.86700     Ti( 1.00)
     O                 6.00    15.99900     O ( 1.00)

     Starting magnetic structure 
     atomic species   magnetization
     Ti              0.000
     Ti1             0.100
     O               0.000

      8 Sym. Ops. (no inversion) found



   Cartesian axes

     site n.     atom                  positions (alat units)
         1        Ti     tau(   1) = (   0.0000000   0.0000000   0.0000000  )
         2        Ti1    tau(   2) = (   0.5000000   0.5000000   1.2579365  )
         3        Ti     tau(   3) = (   0.0000000   0.5000000   0.6289683  )
         4        Ti     tau(   4) = (   0.5000000   0.0000000   1.8869048  )
         5        O      tau(   5) = (   0.0000000   0.0000000   0.5233016  )
         6        O      tau(   6) = (   0.5000000   0.5000000   1.7812381  )
         7        O      tau(   7) = (   0.0000000   0.5000000   1.1522698  )
         8        O      tau(   8) = (   0.5000000   0.0000000   2.4102063  )
         9        O      tau(   9) = (   0.5000000   0.0000000   1.3636032  )
        10        O      tau(  10) = (   0.0000000   0.5000000   0.1056667  )
        11        O      tau(  11) = (   0.5000000   0.5000000   0.7346349  )
        12        O      tau(  12) = (   0.0000000   0.0000000   1.9925714  )

     number of k points=     1  Gaussian smearing, width (Ry)=  0.0100
                       cart. coord. in units 2pi/alat
        k(    1) = (   0.0000000   0.0000000   0.0000000), wk =   1.0000000

     Dense  grid:    28795 G-vectors     FFT dimensions: (  36,  36,  90)

     Smooth grid:    10160 G-vectors     FFT dimensions: (  25,  25,  64)

     Estimated max dynamical RAM per process >      20.47 MB

     Estimated total dynamical RAM >     163.76 MB
OSCDFT: iteration type 0: micro-iteration of OS-CDFT multipliers inside iteration of rho
OSCDFT DEBUG: k-point npool:   1; distribution:     2
 
OSCDFT DEBUG: ===UPF pseudopotentials===
OSCDFT DEBUG: nt:  1; psd: Ti
OSCDFT DEBUG: |-  1: 3S (n =  3; l =  0)
OSCDFT DEBUG: |-  2: 3P (n =  3; l =  1)
OSCDFT DEBUG: |-  3: 4S (n =  4; l =  0)
OSCDFT DEBUG: |-  4: 3D (n =  3; l =  2)
OSCDFT DEBUG: nt:  2; psd: Ti
OSCDFT DEBUG: |-  1: 3S (n =  3; l =  0)
OSCDFT DEBUG: |-  2: 3P (n =  3; l =  1)
OSCDFT DEBUG: |-  3: 4S (n =  4; l =  0)
OSCDFT DEBUG: |-  4: 3D (n =  3; l =  2)
OSCDFT DEBUG: nt:  3; psd: O 
OSCDFT DEBUG: |-  1: 2S (n =  2; l =  0)
OSCDFT DEBUG: |-  2: 2P (n =  2; l =  1)
OSCDFT DEBUG: ==========================
 
OSCDFT: Orbital Information
OSCDFT: ioscdft:     1 spin: UP
OSCDFT: |-  1: atom #    2; orbital 3d(z2,xz,yz,x2-y2,xy)
OSCDFT: ioscdft:     2 spin: DW
OSCDFT: |-  2: atom #    2; orbital 3d(z2,xz,yz,x2-y2,xy)
 
OSCDFT DEBUG: iorb2isocdft:   1   2
OSCDFT DEBUG: nconstr:   1
OSCDFT DEBUG: iconstr2ioscdft:   1
OSCDFT DEBUG: ioscdft2iconstr:   1   0
OSCDFT DEBUG: ns_dim:   5   5
OSCDFT DEBUG: max_ns_dim:   5
OSCDFT DEBUG: occupation index:   5   0
OSCDFT DEBUG: isym:   1; atom_sym:   2   2
OSCDFT DEBUG: isym:   2; atom_sym:   2   2
OSCDFT DEBUG: isym:   3; atom_sym:   2   2
OSCDFT DEBUG: isym:   4; atom_sym:   2   2
OSCDFT DEBUG: isym:   5; atom_sym:   2   2
OSCDFT DEBUG: isym:   6; atom_sym:   2   2
OSCDFT DEBUG: isym:   7; atom_sym:   2   2
OSCDFT DEBUG: isym:   8; atom_sym:   2   2
OSCDFT DEBUG: constr%norb:   1
OSCDFT DEBUG: constr%icorb2iorb:   1
OSCDFT DEBUG: constr%iorb2icorb:   1   0
OSCDFT DEBUG: constr%icorb_start:   1
OSCDFT DEBUG: constr%icorb_end:   1
OSCDFT DEBUG: ns_dim  (:,    1):     5
OSCDFT DEBUG: ins2iorb(:,    1):     1     1     1     1     1
OSCDFT DEBUG: ins2ioff(:,    1):     1     2     3     4     5
OSCDFT DEBUG: ns_dim  (:,    2):     5
OSCDFT DEBUG: ins2iorb(:,    2):     2     2     2     2     2
OSCDFT DEBUG: ins2ioff(:,    2):     1     2     3     4     5
OSCDFT DEBUG: constr: ins2iorb(:,    1):     1     1     1     1     1
OSCDFT DEBUG: constr: ins2ioff(:,    1):     1     2     3     4     5
OSCDFT DEBUG: NELUP:  4.9000000E+01; NELDW:  4.8000000E+01; NBND:    59
OSCDFT DEBUG: max_cg_iter: 100
     Generating pointlists ...
     new r_m :   0.2108 (alat units)  1.5058 (a.u.) for type    1
     new r_m :   0.2108 (alat units)  1.5058 (a.u.) for type    2
     new r_m :   0.2108 (alat units)  1.5058 (a.u.) for type    3

     Initial potential from superposition of free atoms

     starting charge      91.9998, renormalised to      97.0000
     Starting wfcs are   72 randomized atomic wfcs
 
OSCDFT DEBUG: OSCDFT_INIT_WFCO
OSCDFT DEBUG: wfcO: 5 atomic wfcs; desc: S*atwfc to apply constraint
OSCDFT DEBUG: |-offset: 0
OSCDFT DEBUG: |-source: 15
 
OSCDFT DEBUG: wfcS: 5 atomic wfcs; desc: S*atwfc to calc ns
OSCDFT DEBUG: |-offset( 1): 0 0
OSCDFT DEBUG: |-offset( 2): 0 0
OSCDFT DEBUG: |-offset( 3): 0 0
OSCDFT DEBUG: |-offset( 4): 0 0
OSCDFT DEBUG: |-offset( 5): 0 0
OSCDFT DEBUG: |-offset( 6): 0 0
OSCDFT DEBUG: |-offset( 7): 0 0
OSCDFT DEBUG: |-offset( 8): 0 0
OSCDFT DEBUG: |-source( 1): 15 15
OSCDFT DEBUG: |-source( 2): 15 15
OSCDFT DEBUG: |-source( 3): 15 15
OSCDFT DEBUG: |-source( 4): 15 15
OSCDFT DEBUG: |-source( 5): 15 15
OSCDFT DEBUG: |-source( 6): 15 15
OSCDFT DEBUG: |-source( 7): 15 15
OSCDFT DEBUG: |-source( 8): 15 15
 
OSCDFT DEBUG: wfcF: 5 atomic wfcs; desc: atwfc to calc forces
OSCDFT DEBUG: |-offset( 1): 0
OSCDFT DEBUG: |-offset( 2): 0
OSCDFT DEBUG: |-offset( 3): 0
OSCDFT DEBUG: |-offset( 4): 0
OSCDFT DEBUG: |-offset( 5): 0
OSCDFT DEBUG: |-offset( 6): 0
OSCDFT DEBUG: |-offset( 7): 0
OSCDFT DEBUG: |-offset( 8): 0
OSCDFT DEBUG: |-source( 1): 15
OSCDFT DEBUG: |-source( 2): 15
OSCDFT DEBUG: |-source( 3): 15
OSCDFT DEBUG: |-source( 4): 15
OSCDFT DEBUG: |-source( 5): 15
OSCDFT DEBUG: |-source( 6): 15
OSCDFT DEBUG: |-source( 7): 15
OSCDFT DEBUG: |-source( 8): 15
 

     total cpu time spent up to now is        0.3 secs

     per-process dynamical memory:    97.0 Mb

     Self-consistent Calculation

     iteration #  1     ecut=    30.00 Ry     beta= 0.20
OSCDFT: warm up loop #    1; constraints are NOT applied
     Davidson diagonalization with overlap
     ethr =  1.00E-02,  avg # of iterations =  3.0

     total cpu time spent up to now is        0.7 secs

     total energy              =    -722.46697068 Ry
     estimated scf accuracy    <       3.32351522 Ry

     total magnetization       =     0.78 Bohr mag/cell
     absolute magnetization    =     0.91 Bohr mag/cell

     iteration #  2     ecut=    30.00 Ry     beta= 0.20
OSCDFT: warm up loop #    2; constraints are NOT applied
     Davidson diagonalization with overlap
     ethr =  3.43E-03,  avg # of iterations =  2.0

     total cpu time spent up to now is        1.0 secs

     total energy              =    -722.47110670 Ry
     estimated scf accuracy    <       0.99027659 Ry

     total magnetization       =     0.14 Bohr mag/cell
     absolute magnetization    =     0.36 Bohr mag/cell

     iteration #  3     ecut=    30.00 Ry     beta= 0.20
OSCDFT: warm up loop #    3; constraints are NOT applied
     Davidson diagonalization with overlap
     ethr =  1.02E-03,  avg # of iterations =  5.5

     total cpu time spent up to now is        1.4 secs

     total energy              =    -722.68146663 Ry
     estimated scf accuracy    <       1.04180879 Ry

     total magnetization       =     1.00 Bohr mag/cell
     absolute magnetization    =     1.23 Bohr mag/cell

     iteration #  4     ecut=    30.00 Ry     beta= 0.20
OSCDFT: warm up loop #    4; constraints are NOT applied
     Davidson diagonalization with overlap
     ethr =  1.02E-03,  avg # of iterations =  1.0

     total cpu time spent up to now is        1.7 secs

     total energy              =    -722.70974200 Ry
     estimated scf accuracy    <       0.31343891 Ry

     total magnetization       =     0.49 Bohr mag/cell
     absolute magnetization    =     0.69 Bohr mag/cell

     iteration #  5     ecut=    30.00 Ry     beta= 0.20
OSCDFT: warm up loop #    5; constraints are NOT applied
     Davidson diagonalization with overlap
     ethr =  3.23E-04,  avg # of iterations =  1.5

     total cpu time spent up to now is        2.0 secs

     total energy              =    -722.67644973 Ry
     estimated scf accuracy    <       0.12471819 Ry

     total magnetization       =     0.66 Bohr mag/cell
     absolute magnetization    =     0.86 Bohr mag/cell

     iteration #  6     ecut=    30.00 Ry     beta= 0.20
OSCDFT: main loop #    6; constraints are applied
OSCDFT: oscdft loop #    1

     total cpu time spent up to now is        2.0 secs
     Davidson diagonalization with overlap
     ethr =  1.29E-04,  avg # of iterations =  7.0
OSCDFT DEBUG: oscdft_new_ns from oscdft_electrons
 
OSCDFT: occupation #  1: T   UP 2(3D); tr[ns]:   1.2863
OSCDFT: eigenvalue
OSCDFT:    0.0082  0.2851  0.2851  0.3227  0.3853
OSCDFT: eigenvector (column)
OSCDFT:   -0.0000  0.0000  0.0000  0.0000  1.0000
OSCDFT:   -0.0000  0.6619  0.7496 -0.0000 -0.0000
OSCDFT:   -0.0000  0.7496 -0.6619 -0.0000 -0.0000
OSCDFT:    0.0000 -0.0000 -0.0000 -1.0000  0.0000
OSCDFT:    1.0000  0.0000  0.0000  0.0000  0.0000
OSCDFT: matrix (before diag.)
OSCDFT:    0.3853 -0.0000 -0.0000  0.0000  0.0000
OSCDFT:   -0.0000  0.2851 -0.0000  0.0000  0.0000
OSCDFT:   -0.0000 -0.0000  0.2851  0.0000  0.0000
OSCDFT:    0.0000  0.0000  0.0000  0.3227 -0.0000
OSCDFT:    0.0000  0.0000  0.0000 -0.0000  0.0082
OSCDFT: occupation #  2: F DOWN 2(3D); tr[ns]:   1.2018
OSCDFT: eigenvalue
OSCDFT:    0.0003  0.2605  0.2605  0.3109  0.3696
OSCDFT: eigenvector (column)
OSCDFT:   -0.0000 -0.0000 -0.0000  0.0000  1.0000
OSCDFT:   -0.0000 -0.6649 -0.7470 -0.0000 -0.0000
OSCDFT:   -0.0000 -0.7470  0.6649 -0.0000 -0.0000
OSCDFT:    0.0000  0.0000  0.0000 -1.0000  0.0000
OSCDFT:    1.0000 -0.0000 -0.0000  0.0000  0.0000
OSCDFT: matrix (before diag.)
OSCDFT:    0.3696 -0.0000 -0.0000  0.0000  0.0000
OSCDFT:   -0.0000  0.2605 -0.0000  0.0000  0.0000
OSCDFT:   -0.0000 -0.0000  0.2605  0.0000  0.0000
OSCDFT:    0.0000  0.0000  0.0000  0.3109 -0.0000
OSCDFT:    0.0000  0.0000  0.0000 -0.0000  0.0003
OSCDFT: gradient
OSCDFT:   -5.9054694E-01
OSCDFT: global_start_index mask
OSCDFT:    1.0000000E+00
OSCDFT: gamma:  5.0000000E-01
OSCDFT: current multipliers
OSCDFT:    0.0000000E+00
OSCDFT: updated multipliers
OSCDFT:   -2.9527347E-01
OSCDFT: convergence test of 5.9054694E-01 vs. inner convergence threshold of 5.0000000E-01
OSCDFT: inner convergence test: FAILED
OSCDFT: oscdft loop #    2

     total cpu time spent up to now is        2.1 secs
     Davidson diagonalization with overlap
     ethr =  1.29E-04,  avg # of iterations =  6.0
OSCDFT DEBUG: oscdft_new_ns from oscdft_electrons
 
OSCDFT: occupation #  1: T   UP 2(3D); tr[ns]:   1.4733
OSCDFT: eigenvalue
OSCDFT:    0.0082  0.2851  0.2851  0.3200  0.5749
OSCDFT: eigenvector (column)
OSCDFT:   -0.0000  0.0000  0.0000 -0.0000 -1.0000
OSCDFT:   -0.0000  0.6109  0.7917  0.0000  0.0000
OSCDFT:   -0.0000  0.7917 -0.6109  0.0000  0.0000
OSCDFT:    0.0000 -0.0000 -0.0000  1.0000 -0.0000
OSCDFT:    1.0000  0.0000  0.0000 -0.0000 -0.0000
OSCDFT: matrix (before diag.)
OSCDFT:    0.5749 -0.0000 -0.0000  0.0000  0.0000
OSCDFT:   -0.0000  0.2851 -0.0000  0.0000  0.0000
OSCDFT:   -0.0000 -0.0000  0.2851  0.0000  0.0000
OSCDFT:    0.0000  0.0000  0.0000  0.3200 -0.0000
OSCDFT:    0.0000  0.0000  0.0000 -0.0000  0.0082
OSCDFT: occupation #  2: F DOWN 2(3D); tr[ns]:   1.1995
OSCDFT: eigenvalue
OSCDFT:    0.0003  0.2606  0.2606  0.3089  0.3691
OSCDFT: eigenvector (column)
OSCDFT:   -0.0000 -0.0000 -0.0000  0.0000  1.0000
OSCDFT:   -0.0000 -0.6329 -0.7742 -0.0000 -0.0000
OSCDFT:   -0.0000 -0.7742  0.6329 -0.0000 -0.0000
OSCDFT:    0.0000  0.0000  0.0000 -1.0000  0.0000
OSCDFT:    1.0000 -0.0000 -0.0000  0.0000  0.0000
OSCDFT: matrix (before diag.)
OSCDFT:    0.3691 -0.0000 -0.0000  0.0000  0.0000
OSCDFT:   -0.0000  0.2606 -0.0000  0.0000  0.0000
OSCDFT:   -0.0000 -0.0000  0.2606  0.0000  0.0000
OSCDFT:    0.0000  0.0000  0.0000  0.3089 -0.0000
OSCDFT:    0.0000  0.0000  0.0000 -0.0000  0.0003
OSCDFT: gradient
OSCDFT:   -4.0091008E-01
OSCDFT: global_start_index mask
OSCDFT:    1.0000000E+00
OSCDFT: gamma:  5.0000000E-01
OSCDFT: current multipliers
OSCDFT:   -2.9527347E-01
OSCDFT: updated multipliers
OSCDFT:   -4.9572851E-01
OSCDFT: convergence test of 4.0091008E-01 vs. inner convergence threshold of 5.0000000E-01
OSCDFT: inner convergence test: PASSED
OSCDFT: multipliers converge, decreasing multiplier conv_thr

     total cpu time spent up to now is        2.4 secs

     total energy              =    -722.36620110 Ry
     estimated scf accuracy    <       0.77530244 Ry

     total magnetization       =     0.38 Bohr mag/cell
     absolute magnetization    =     0.85 Bohr mag/cell

     iteration #  7     ecut=    30.00 Ry     beta= 0.20
OSCDFT: main loop #    7; constraints are applied
OSCDFT: oscdft loop #    1

     total cpu time spent up to now is        2.4 secs
     Davidson diagonalization with overlap
     ethr =  1.29E-04,  avg # of iterations =  3.0
OSCDFT DEBUG: oscdft_new_ns from oscdft_electrons
 
OSCDFT: occupation #  1: T   UP 2(3D); tr[ns]:   1.7111
OSCDFT: eigenvalue
OSCDFT:    0.1276  0.2830  0.2830  0.3184  0.6991
OSCDFT: eigenvector (column)
OSCDFT:   -0.0000 -0.0000 -0.0000  0.0000  1.0000
OSCDFT:   -0.0000 -0.6523 -0.7579 -0.0000 -0.0000
OSCDFT:   -0.0000 -0.7579  0.6523 -0.0000 -0.0000
OSCDFT:    0.0000  0.0000  0.0000 -1.0000  0.0000
OSCDFT:    1.0000 -0.0000  0.0000  0.0000  0.0000
OSCDFT: matrix (before diag.)
OSCDFT:    0.6991 -0.0000 -0.0000  0.0000  0.0000
OSCDFT:   -0.0000  0.2830 -0.0000  0.0000  0.0000
OSCDFT:   -0.0000 -0.0000  0.2830  0.0000  0.0000
OSCDFT:    0.0000  0.0000  0.0000  0.3184 -0.0000
OSCDFT:    0.0000  0.0000  0.0000 -0.0000  0.1276
OSCDFT: occupation #  2: F DOWN 2(3D); tr[ns]:   1.2019
OSCDFT: eigenvalue
OSCDFT:    0.0070  0.2595  0.2595  0.3080  0.3679
OSCDFT: eigenvector (column)
OSCDFT:   -0.0000 -0.0000 -0.0000  0.0000  1.0000
OSCDFT:   -0.0000 -0.6445 -0.7646 -0.0000 -0.0000
OSCDFT:   -0.0000 -0.7646  0.6445 -0.0000 -0.0000
OSCDFT:    0.0000  0.0000  0.0000 -1.0000  0.0000
OSCDFT:    1.0000 -0.0000 -0.0000  0.0000  0.0000
OSCDFT: matrix (before diag.)
OSCDFT:    0.3679 -0.0000 -0.0000  0.0000  0.0000
OSCDFT:   -0.0000  0.2595 -0.0000  0.0000  0.0000
OSCDFT:   -0.0000 -0.0000  0.2595  0.0000  0.0000
OSCDFT:    0.0000  0.0000  0.0000  0.3080 -0.0000
OSCDFT:    0.0000  0.0000  0.0000 -0.0000  0.0070
OSCDFT: gradient
OSCDFT:   -2.7669866E-01
OSCDFT: global_start_index mask
OSCDFT:    1.0000000E+00
OSCDFT: gamma:  5.0000000E-01
OSCDFT: current multipliers
OSCDFT:   -4.9572851E-01
OSCDFT: updated multipliers
OSCDFT:   -6.3407784E-01
OSCDFT: convergence test of 2.7669866E-01 vs. inner convergence threshold of 4.5000000E-01
OSCDFT: inner convergence test: PASSED
OSCDFT: multipliers converge, decreasing multiplier conv_thr

     total cpu time spent up to now is        2.7 secs

     total energy              =    -722.36574414 Ry
     estimated scf accuracy    <       0.14507782 Ry

     total magnetization       =     0.74 Bohr mag/cell
     absolute magnetization    =     1.40 Bohr mag/cell

     iteration #  8     ecut=    30.00 Ry     beta= 0.20
OSCDFT: main loop #    8; constraints are applied
OSCDFT: oscdft loop #    1

     total cpu time spent up to now is        2.7 secs
     Davidson diagonalization with overlap
     ethr =  1.29E-04,  avg # of iterations =  3.0
OSCDFT DEBUG: oscdft_new_ns from oscdft_electrons
 
OSCDFT: occupation #  1: T   UP 2(3D); tr[ns]:   1.8435
OSCDFT: eigenvalue
OSCDFT:    0.1839  0.2804  0.2804  0.3178  0.7810
OSCDFT: eigenvector (column)
OSCDFT:   -0.0000 -0.0000 -0.0000  0.0000  1.0000
OSCDFT:   -0.0000 -0.6019 -0.7986 -0.0000 -0.0000
OSCDFT:   -0.0000 -0.7986  0.6019 -0.0000 -0.0000
OSCDFT:    0.0000  0.0000  0.0000 -1.0000  0.0000
OSCDFT:    1.0000 -0.0000  0.0000  0.0000  0.0000
OSCDFT: matrix (before diag.)
OSCDFT:    0.7810 -0.0000 -0.0000  0.0000  0.0000
OSCDFT:   -0.0000  0.2804 -0.0000  0.0000  0.0000
OSCDFT:   -0.0000 -0.0000  0.2804  0.0000  0.0000
OSCDFT:    0.0000  0.0000  0.0000  0.3178 -0.0000
OSCDFT:    0.0000  0.0000  0.0000 -0.0000  0.1839
OSCDFT: occupation #  2: F DOWN 2(3D); tr[ns]:   1.1945
OSCDFT: eigenvalue
OSCDFT:    0.0053  0.2581  0.2581  0.3070  0.3660
OSCDFT: eigenvector (column)
OSCDFT:   -0.0000 -0.0000 -0.0000  0.0000  1.0000
OSCDFT:   -0.0000 -0.7044 -0.7098 -0.0000 -0.0000
OSCDFT:   -0.0000 -0.7098  0.7044 -0.0000 -0.0000
OSCDFT:    0.0000  0.0000  0.0000 -1.0000  0.0000
OSCDFT:    1.0000 -0.0000 -0.0000  0.0000  0.0000
OSCDFT: matrix (before diag.)
OSCDFT:    0.3660 -0.0000 -0.0000  0.0000  0.0000
OSCDFT:   -0.0000  0.2581 -0.0000  0.0000  0.0000
OSCDFT:   -0.0000 -0.0000  0.2581  0.0000  0.0000
OSCDFT:    0.0000  0.0000  0.0000  0.3070 -0.0000
OSCDFT:    0.0000  0.0000  0.0000 -0.0000  0.0053
OSCDFT: gradient
OSCDFT:   -1.9476653E-01
OSCDFT: global_start_index mask
OSCDFT:    1.0000000E+00
OSCDFT: gamma:  5.0000000E-01
OSCDFT: current multipliers
OSCDFT:   -6.3407784E-01
OSCDFT: updated multipliers
OSCDFT:   -7.3146110E-01
OSCDFT: convergence test of 1.9476653E-01 vs. inner convergence threshold of 4.0500000E-01
OSCDFT: inner convergence test: PASSED
OSCDFT: multipliers converge, decreasing multiplier conv_thr

     total cpu time spent up to now is        3.0 secs

     total energy              =    -722.37572822 Ry
     estimated scf accuracy    <       0.08228340 Ry

     total magnetization       =     0.93 Bohr mag/cell
     absolute magnetization    =     1.58 Bohr mag/cell

     iteration #  9     ecut=    30.00 Ry     beta= 0.20
OSCDFT: main loop #    9; constraints are applied
OSCDFT: oscdft loop #    1

     total cpu time spent up to now is        3.0 secs
     Davidson diagonalization with overlap
     ethr =  8.48E-05,  avg # of iterations =  1.0
OSCDFT DEBUG: oscdft_new_ns from oscdft_electrons
 
OSCDFT: occupation #  1: T   UP 2(3D); tr[ns]:   1.8979
OSCDFT: eigenvalue
OSCDFT:    0.0354  0.2802  0.2802  0.3171  0.9850
OSCDFT: eigenvector (column)
OSCDFT:   -0.0000 -0.0000  0.0000 -0.0000 -1.0000
OSCDFT:   -0.0000 -0.5756 -0.8178  0.0000  0.0000
OSCDFT:   -0.0000 -0.8178  0.5756  0.0000  0.0000
OSCDFT:    0.0000  0.0000  0.0000  1.0000 -0.0000
OSCDFT:    1.0000 -0.0000 -0.0000 -0.0000 -0.0000
OSCDFT: matrix (before diag.)
OSCDFT:    0.9850 -0.0000 -0.0000  0.0000  0.0000
OSCDFT:   -0.0000  0.2802 -0.0000  0.0000  0.0000
OSCDFT:   -0.0000 -0.0000  0.2802  0.0000  0.0000
OSCDFT:    0.0000  0.0000  0.0000  0.3171 -0.0000
OSCDFT:    0.0000  0.0000  0.0000 -0.0000  0.0354
OSCDFT: occupation #  2: F DOWN 2(3D); tr[ns]:   1.1893
OSCDFT: eigenvalue
OSCDFT:    0.0014  0.2578  0.2578  0.3066  0.3656
OSCDFT: eigenvector (column)
OSCDFT:   -0.0000 -0.0000 -0.0000  0.0000  1.0000
OSCDFT:   -0.0000 -0.6293 -0.7771 -0.0000 -0.0000
OSCDFT:   -0.0000 -0.7771  0.6293 -0.0000 -0.0000
OSCDFT:    0.0000  0.0000  0.0000 -1.0000  0.0000
OSCDFT:    1.0000 -0.0000 -0.0000  0.0000  0.0000
OSCDFT: matrix (before diag.)
OSCDFT:    0.3656 -0.0000 -0.0000  0.0000  0.0000
OSCDFT:   -0.0000  0.2578 -0.0000  0.0000  0.0000
OSCDFT:   -0.0000 -0.0000  0.2578  0.0000  0.0000
OSCDFT:    0.0000  0.0000  0.0000  0.3066 -0.0000
OSCDFT:    0.0000  0.0000  0.0000 -0.0000  0.0014
OSCDFT: gradient
OSCDFT:    9.2407138E-03
OSCDFT: global_start_index mask
OSCDFT:    1.0000000E+00
OSCDFT: gamma:  5.0000000E-01
OSCDFT: current multipliers
OSCDFT:   -7.3146110E-01
OSCDFT: updated multipliers
OSCDFT:   -7.2684075E-01
OSCDFT: convergence test of 9.2407138E-03 vs. inner convergence threshold of 3.6450000E-01
OSCDFT: inner convergence test: PASSED
OSCDFT: multipliers converge, decreasing multiplier conv_thr

     total cpu time spent up to now is        3.3 secs

     total energy              =    -722.46676930 Ry
     estimated scf accuracy    <       0.25138076 Ry

     total magnetization       =     1.00 Bohr mag/cell
     absolute magnetization    =     1.16 Bohr mag/cell

     iteration # 10     ecut=    30.00 Ry     beta= 0.20
OSCDFT: main loop #   10; constraints are applied
OSCDFT: oscdft loop #    1

     total cpu time spent up to now is        3.3 secs
     Davidson diagonalization with overlap
     ethr =  8.48E-05,  avg # of iterations =  1.0
OSCDFT DEBUG: oscdft_new_ns from oscdft_electrons
 
OSCDFT: occupation #  1: T   UP 2(3D); tr[ns]:   1.8852
OSCDFT: eigenvalue
OSCDFT:    0.0442  0.2785  0.2785  0.3164  0.9676
OSCDFT: eigenvector (column)
OSCDFT:   -0.0000 -0.0000  0.0000 -0.0000 -1.0000
OSCDFT:   -0.0000 -0.6647 -0.7471  0.0000  0.0000
OSCDFT:   -0.0000 -0.7471  0.6647  0.0000  0.0000
OSCDFT:    0.0000  0.0000  0.0000  1.0000 -0.0000
OSCDFT:    1.0000 -0.0000 -0.0000 -0.0000 -0.0000
OSCDFT: matrix (before diag.)
OSCDFT:    0.9676 -0.0000 -0.0000  0.0000  0.0000
OSCDFT:   -0.0000  0.2785 -0.0000  0.0000  0.0000
OSCDFT:   -0.0000 -0.0000  0.2785  0.0000  0.0000
OSCDFT:    0.0000  0.0000  0.0000  0.3164 -0.0000
OSCDFT:    0.0000  0.0000  0.0000 -0.0000  0.0442
OSCDFT: occupation #  2: F DOWN 2(3D); tr[ns]:   1.1813
OSCDFT: eigenvalue
OSCDFT:    0.0000  0.2563  0.2563  0.3058  0.3629
OSCDFT: eigenvector (column)
OSCDFT:   -0.0000 -0.0000 -0.0000  0.0000  1.0000
OSCDFT:   -0.0000 -0.6205 -0.7842 -0.0000 -0.0000
OSCDFT:   -0.0000 -0.7842  0.6205 -0.0000 -0.0000
OSCDFT:    0.0000  0.0000  0.0000 -1.0000  0.0000
OSCDFT:    1.0000 -0.0000 -0.0000  0.0000  0.0000
OSCDFT: matrix (before diag.)
OSCDFT:    0.3629 -0.0000 -0.0000  0.0000  0.0000
OSCDFT:   -0.0000  0.2563 -0.0000  0.0000  0.0000
OSCDFT:   -0.0000 -0.0000  0.2563  0.0000  0.0000
OSCDFT:    0.0000  0.0000  0.0000  0.3058 -0.0000
OSCDFT:    0.0000  0.0000  0.0000 -0.0000  0.0000
OSCDFT: gradient
OSCDFT:   -8.2031419E-03
OSCDFT: global_start_index mask
OSCDFT:    1.0000000E+00
OSCDFT: gamma:  5.0000000E-01
OSCDFT: current multipliers
OSCDFT:   -7.2684075E-01
OSCDFT: updated multipliers
OSCDFT:   -7.3094232E-01
OSCDFT: convergence test of 8.2031419E-03 vs. inner convergence threshold of 3.2805000E-01
OSCDFT: inner convergence test: PASSED
OSCDFT: multipliers converge, decreasing multiplier conv_thr

     total cpu time spent up to now is        3.6 secs

     total energy              =    -722.44537423 Ry
     estimated scf accuracy    <       0.21301573 Ry

     total magnetization       =     1.00 Bohr mag/cell
     absolute magnetization    =     1.21 Bohr mag/cell

     iteration # 11     ecut=    30.00 Ry     beta= 0.20
OSCDFT: main loop #   11; constraints are applied
OSCDFT: oscdft loop #    1

     total cpu time spent up to now is        3.6 secs
     Davidson diagonalization with overlap
     ethr =  8.48E-05,  avg # of iterations =  2.5
OSCDFT DEBUG: oscdft_new_ns from oscdft_electrons
 
OSCDFT: occupation #  1: T   UP 2(3D); tr[ns]:   1.7474
OSCDFT: eigenvalue
OSCDFT:    0.0242  0.2662  0.2662  0.3148  0.8760
OSCDFT: eigenvector (column)
OSCDFT:   -0.0000 -0.0000  0.0000 -0.0000 -1.0000
OSCDFT:   -0.0000 -0.6510 -0.7590  0.0000  0.0000
OSCDFT:   -0.0000 -0.7590  0.6510  0.0000  0.0000
OSCDFT:    0.0000  0.0000  0.0000  1.0000 -0.0000
OSCDFT:    1.0000 -0.0000 -0.0000 -0.0000 -0.0000
OSCDFT: matrix (before diag.)
OSCDFT:    0.8760 -0.0000 -0.0000  0.0000  0.0000
OSCDFT:   -0.0000  0.2662 -0.0000  0.0000  0.0000
OSCDFT:   -0.0000 -0.0000  0.2662  0.0000  0.0000
OSCDFT:    0.0000  0.0000  0.0000  0.3148 -0.0000
OSCDFT:    0.0000  0.0000  0.0000 -0.0000  0.0242
OSCDFT: occupation #  2: F DOWN 2(3D); tr[ns]:   1.1471
OSCDFT: eigenvalue
OSCDFT:    0.0000  0.2464  0.2464  0.3025  0.3519
OSCDFT: eigenvector (column)
OSCDFT:   -0.0000  0.0000  0.0000  0.0000  1.0000
OSCDFT:   -0.0000  0.6846  0.7289 -0.0000 -0.0000
OSCDFT:   -0.0000  0.7289 -0.6846 -0.0000 -0.0000
OSCDFT:    0.0000 -0.0000 -0.0000 -1.0000  0.0000
OSCDFT:    1.0000  0.0000  0.0000  0.0000  0.0000
OSCDFT: matrix (before diag.)
OSCDFT:    0.3519 -0.0000 -0.0000  0.0000  0.0000
OSCDFT:   -0.0000  0.2464 -0.0000  0.0000  0.0000
OSCDFT:   -0.0000 -0.0000  0.2464  0.0000  0.0000
OSCDFT:    0.0000  0.0000  0.0000  0.3025 -0.0000
OSCDFT:    0.0000  0.0000  0.0000 -0.0000  0.0000
OSCDFT: gradient
OSCDFT:   -9.9789944E-02
OSCDFT: global_start_index mask
OSCDFT:    1.0000000E+00
OSCDFT: gamma:  5.0000000E-01
OSCDFT: current multipliers
OSCDFT:   -7.3094232E-01
OSCDFT: updated multipliers
OSCDFT:   -7.8083729E-01
OSCDFT: convergence test of 9.9789944E-02 vs. inner convergence threshold of 2.9524500E-01
OSCDFT: inner convergence test: PASSED
OSCDFT: multipliers converge, decreasing multiplier conv_thr

     total cpu time spent up to now is        3.9 secs

     total energy              =    -722.39934716 Ry
     estimated scf accuracy    <       0.07790573 Ry

     total magnetization       =     1.00 Bohr mag/cell
     absolute magnetization    =     1.74 Bohr mag/cell

     iteration # 12     ecut=    30.00 Ry     beta= 0.20
OSCDFT: main loop #   12; constraints are applied
OSCDFT: oscdft loop #    1

     total cpu time spent up to now is        3.9 secs
     Davidson diagonalization with overlap
     ethr =  8.03E-05,  avg # of iterations =  5.5
OSCDFT DEBUG: oscdft_new_ns from oscdft_electrons
 
OSCDFT: occupation #  1: T   UP 2(3D); tr[ns]:   1.7308
OSCDFT: eigenvalue
OSCDFT:    0.0532  0.2544  0.2544  0.3106  0.8582
OSCDFT: eigenvector (column)
OSCDFT:   -0.0000 -0.0000  0.0000 -0.0000 -1.0000
OSCDFT:   -0.0000 -0.6841 -0.7293  0.0000  0.0000
OSCDFT:   -0.0000 -0.7293  0.6841  0.0000  0.0000
OSCDFT:    0.0000  0.0000  0.0000  1.0000 -0.0000
OSCDFT:    1.0000 -0.0000 -0.0000 -0.0000 -0.0000
OSCDFT: matrix (before diag.)
OSCDFT:    0.8582 -0.0000 -0.0000  0.0000  0.0000
OSCDFT:   -0.0000  0.2544 -0.0000  0.0000  0.0000
OSCDFT:   -0.0000 -0.0000  0.2544  0.0000  0.0000
OSCDFT:    0.0000  0.0000  0.0000  0.3106 -0.0000
OSCDFT:    0.0000  0.0000  0.0000 -0.0000  0.0532
OSCDFT: occupation #  2: F DOWN 2(3D); tr[ns]:   1.1027
OSCDFT: eigenvalue
OSCDFT:    0.0000  0.2374  0.2374  0.2973  0.3307
OSCDFT: eigenvector (column)
OSCDFT:   -0.0000  0.0000  0.0000  0.0000  1.0000
OSCDFT:   -0.0000  0.6573  0.7537 -0.0000 -0.0000
OSCDFT:   -0.0000  0.7537 -0.6573 -0.0000 -0.0000
OSCDFT:    0.0000 -0.0000 -0.0000 -1.0000  0.0000
OSCDFT:    1.0000  0.0000  0.0000  0.0000  0.0000
OSCDFT: matrix (before diag.)
OSCDFT:    0.3307 -0.0000 -0.0000  0.0000  0.0000
OSCDFT:   -0.0000  0.2374 -0.0000  0.0000  0.0000
OSCDFT:   -0.0000 -0.0000  0.2374  0.0000  0.0000
OSCDFT:    0.0000  0.0000  0.0000  0.2973 -0.0000
OSCDFT:    0.0000  0.0000  0.0000 -0.0000  0.0000
OSCDFT: gradient
OSCDFT:   -1.1764515E-01
OSCDFT: global_start_index mask
OSCDFT:    1.0000000E+00
OSCDFT: gamma:  5.0000000E-01
OSCDFT: current multipliers
OSCDFT:   -7.8083729E-01
OSCDFT: updated multipliers
OSCDFT:   -8.3965986E-01
OSCDFT: convergence test of 1.1764515E-01 vs. inner convergence threshold of 2.6572050E-01
OSCDFT: inner convergence test: PASSED
OSCDFT: multipliers converge, decreasing multiplier conv_thr

     total cpu time spent up to now is        4.3 secs

     total energy              =    -722.39930947 Ry
     estimated scf accuracy    <       0.10606123 Ry

     total magnetization       =     1.00 Bohr mag/cell
     absolute magnetization    =     1.63 Bohr mag/cell

     iteration # 13     ecut=    30.00 Ry     beta= 0.20
OSCDFT: main loop #   13; constraints are applied
OSCDFT: oscdft loop #    1

     total cpu time spent up to now is        4.3 secs
     Davidson diagonalization with overlap
     ethr =  8.03E-05,  avg # of iterations =  1.0
OSCDFT DEBUG: oscdft_new_ns from oscdft_electrons
 
OSCDFT: occupation #  1: T   UP 2(3D); tr[ns]:   1.7967
OSCDFT: eigenvalue
OSCDFT:    0.0329  0.2561  0.2561  0.3106  0.9409
OSCDFT: eigenvector (column)
OSCDFT:   -0.0000 -0.0000  0.0000 -0.0000 -1.0000
OSCDFT:   -0.0000 -0.6554 -0.7553  0.0000  0.0000
OSCDFT:   -0.0000 -0.7553  0.6554  0.0000  0.0000
OSCDFT:    0.0000  0.0000  0.0000  1.0000 -0.0000
OSCDFT:    1.0000 -0.0000 -0.0000 -0.0000 -0.0000
OSCDFT: matrix (before diag.)
OSCDFT:    0.9409 -0.0000 -0.0000  0.0000  0.0000
OSCDFT:   -0.0000  0.2561 -0.0000  0.0000  0.0000
OSCDFT:   -0.0000 -0.0000  0.2561  0.0000  0.0000
OSCDFT:    0.0000  0.0000  0.0000  0.3106 -0.0000
OSCDFT:    0.0000  0.0000  0.0000 -0.0000  0.0329
OSCDFT: occupation #  2: F DOWN 2(3D); tr[ns]:   1.1087
OSCDFT: eigenvalue
OSCDFT:    0.0000  0.2400  0.2400  0.2973  0.3314
OSCDFT: eigenvector (column)
OSCDFT:   -0.0000  0.0000  0.0000  0.0000  1.0000
OSCDFT:   -0.0000  0.6953  0.7187 -0.0000 -0.0000
OSCDFT:   -0.0000  0.7187 -0.6953 -0.0000 -0.0000
OSCDFT:    0.0000 -0.0000 -0.0000 -1.0000  0.0000
OSCDFT:    1.0000  0.0000  0.0000  0.0000  0.0000
OSCDFT: matrix (before diag.)
OSCDFT:    0.3314 -0.0000 -0.0000  0.0000  0.0000
OSCDFT:   -0.0000  0.2400 -0.0000  0.0000  0.0000
OSCDFT:   -0.0000 -0.0000  0.2400  0.0000  0.0000
OSCDFT:    0.0000  0.0000  0.0000  0.2973 -0.0000
OSCDFT:    0.0000  0.0000  0.0000 -0.0000  0.0000
OSCDFT: gradient
OSCDFT:   -3.4866093E-02
OSCDFT: global_start_index mask
OSCDFT:    1.0000000E+00
OSCDFT: gamma:  5.0000000E-01
OSCDFT: current multipliers
OSCDFT:   -8.3965986E-01
OSCDFT: updated multipliers
OSCDFT:   -8.5709291E-01
OSCDFT: convergence test of 3.4866093E-02 vs. inner convergence threshold of 2.3914845E-01
OSCDFT: inner convergence test: PASSED
OSCDFT: multipliers converge, decreasing multiplier conv_thr

     total cpu time spent up to now is        4.6 secs

     total energy              =    -722.44021933 Ry
     estimated scf accuracy    <       0.21329909 Ry

     total magnetization       =     1.00 Bohr mag/cell
     absolute magnetization    =     1.36 Bohr mag/cell

     iteration # 14     ecut=    30.00 Ry     beta= 0.20
OSCDFT: main loop #   14; constraints are applied
OSCDFT: oscdft loop #    1

     total cpu time spent up to now is        4.6 secs
     Davidson diagonalization with overlap
     ethr =  8.03E-05,  avg # of iterations =  1.0
OSCDFT DEBUG: oscdft_new_ns from oscdft_electrons
 
OSCDFT: occupation #  1: T   UP 2(3D); tr[ns]:   1.8398
OSCDFT: eigenvalue
OSCDFT:    0.0230  0.2602  0.2602  0.3110  0.9854
OSCDFT: eigenvector (column)
OSCDFT:   -0.0000 -0.0000  0.0000 -0.0000 -1.0000
OSCDFT:   -0.0000 -0.6572 -0.7537  0.0000  0.0000
OSCDFT:   -0.0000 -0.7537  0.6572  0.0000  0.0000
OSCDFT:    0.0000  0.0000  0.0000  1.0000 -0.0000
OSCDFT:    1.0000 -0.0000 -0.0000 -0.0000 -0.0000
OSCDFT: matrix (before diag.)
OSCDFT:    0.9854 -0.0000 -0.0000  0.0000  0.0000
OSCDFT:   -0.0000  0.2602 -0.0000  0.0000  0.0000
OSCDFT:   -0.0000 -0.0000  0.2602  0.0000  0.0000
OSCDFT:    0.0000  0.0000  0.0000  0.3110 -0.0000
OSCDFT:    0.0000  0.0000  0.0000 -0.0000  0.0230
OSCDFT: occupation #  2: F DOWN 2(3D); tr[ns]:   1.1188
OSCDFT: eigenvalue
OSCDFT:    0.0000  0.2428  0.2428  0.2974  0.3358
OSCDFT: eigenvector (column)
OSCDFT:   -0.0000  0.0000  0.0000  0.0000  1.0000
OSCDFT:   -0.0000  0.6553  0.7554 -0.0000 -0.0000
OSCDFT:   -0.0000  0.7554 -0.6553 -0.0000 -0.0000
OSCDFT:    0.0000 -0.0000 -0.0000 -1.0000  0.0000
OSCDFT:    1.0000  0.0000  0.0000  0.0000  0.0000
OSCDFT: matrix (before diag.)
OSCDFT:    0.3358 -0.0000 -0.0000  0.0000  0.0000
OSCDFT:   -0.0000  0.2428 -0.0000  0.0000  0.0000
OSCDFT:   -0.0000 -0.0000  0.2428  0.0000  0.0000
OSCDFT:    0.0000  0.0000  0.0000  0.2974 -0.0000
OSCDFT:    0.0000  0.0000  0.0000 -0.0000  0.0000
OSCDFT: gradient
OSCDFT:    9.6427529E-03
OSCDFT: global_start_index mask
OSCDFT:    1.0000000E+00
OSCDFT: gamma:  5.0000000E-01
OSCDFT: current multipliers
OSCDFT:   -8.5709291E-01
OSCDFT: updated multipliers
OSCDFT:   -8.5227153E-01
OSCDFT: convergence test of 9.6427529E-03 vs. inner convergence threshold of 2.1523361E-01
OSCDFT: inner convergence test: PASSED
OSCDFT: multipliers converge, decreasing multiplier conv_thr

     total cpu time spent up to now is        4.9 secs

     total energy              =    -722.46385849 Ry
     estimated scf accuracy    <       0.26923986 Ry

     total magnetization       =     1.00 Bohr mag/cell
     absolute magnetization    =     1.24 Bohr mag/cell

     iteration # 15     ecut=    30.00 Ry     beta= 0.20
OSCDFT: main loop #   15; constraints are applied
OSCDFT: oscdft loop #    1

     total cpu time spent up to now is        4.9 secs
     Davidson diagonalization with overlap
     ethr =  8.03E-05,  avg # of iterations =  1.0
OSCDFT DEBUG: oscdft_new_ns from oscdft_electrons
 
OSCDFT: occupation #  1: T   UP 2(3D); tr[ns]:   1.8509
OSCDFT: eigenvalue
OSCDFT:    0.0103  0.2608  0.2608  0.3117  1.0073
OSCDFT: eigenvector (column)
OSCDFT:   -0.0000  0.0000 -0.0000 -0.0000 -1.0000
OSCDFT:   -0.0000  0.7112  0.7030  0.0000  0.0000
OSCDFT:   -0.0000  0.7030 -0.7112  0.0000  0.0000
OSCDFT:    0.0000 -0.0000 -0.0000  1.0000 -0.0000
OSCDFT:    1.0000  0.0000  0.0000 -0.0000 -0.0000
OSCDFT: matrix (before diag.)
OSCDFT:    1.0073 -0.0000 -0.0000  0.0000  0.0000
OSCDFT:   -0.0000  0.2608 -0.0000  0.0000  0.0000
OSCDFT:   -0.0000 -0.0000  0.2608  0.0000  0.0000
OSCDFT:    0.0000  0.0000  0.0000  0.3117 -0.0000
OSCDFT:    0.0000  0.0000  0.0000 -0.0000  0.0103
OSCDFT: occupation #  2: F DOWN 2(3D); tr[ns]:   1.1217
OSCDFT: eigenvalue
OSCDFT:    0.0000  0.2438  0.2438  0.2978  0.3362
OSCDFT: eigenvector (column)
OSCDFT:   -0.0000  0.0000  0.0000  0.0000  1.0000
OSCDFT:   -0.0000  0.6529  0.7575 -0.0000 -0.0000
OSCDFT:   -0.0000  0.7575 -0.6529 -0.0000 -0.0000
OSCDFT:    0.0000 -0.0000 -0.0000 -1.0000  0.0000
OSCDFT:    1.0000  0.0000  0.0000  0.0000  0.0000
OSCDFT: matrix (before diag.)
OSCDFT:    0.3362 -0.0000 -0.0000  0.0000  0.0000
OSCDFT:   -0.0000  0.2438 -0.0000  0.0000  0.0000
OSCDFT:   -0.0000 -0.0000  0.2438  0.0000  0.0000
OSCDFT:    0.0000  0.0000  0.0000  0.2978 -0.0000
OSCDFT:    0.0000  0.0000  0.0000 -0.0000  0.0000
OSCDFT: gradient
OSCDFT:    3.1523168E-02
OSCDFT: global_start_index mask
OSCDFT:    1.0000000E+00
OSCDFT: gamma:  5.0000000E-01
OSCDFT: current multipliers
OSCDFT:   -8.5227153E-01
OSCDFT: updated multipliers
OSCDFT:   -8.3650995E-01
OSCDFT: convergence test of 3.1523168E-02 vs. inner convergence threshold of 1.9371024E-01
OSCDFT: inner convergence test: PASSED
OSCDFT: multipliers converge, decreasing multiplier conv_thr

     total cpu time spent up to now is        5.2 secs

     total energy              =    -722.47761210 Ry
     estimated scf accuracy    <       0.24255776 Ry

     total magnetization       =     1.00 Bohr mag/cell
     absolute magnetization    =     1.32 Bohr mag/cell

     iteration # 16     ecut=    30.00 Ry     beta= 0.20
OSCDFT: main loop #   16; constraints are applied
OSCDFT: oscdft loop #    1

     total cpu time spent up to now is        5.2 secs
     Davidson diagonalization with overlap
     ethr =  8.03E-05,  avg # of iterations =  1.0
OSCDFT DEBUG: oscdft_new_ns from oscdft_electrons
 
OSCDFT: occupation #  1: T   UP 2(3D); tr[ns]:   1.8593
OSCDFT: eigenvalue
OSCDFT:    0.0247  0.2647  0.2647  0.3135  0.9916
OSCDFT: eigenvector (column)
OSCDFT:   -0.0000 -0.0000  0.0000 -0.0000 -1.0000
OSCDFT:   -0.0000 -0.7528 -0.6583  0.0000  0.0000
OSCDFT:   -0.0000 -0.6583  0.7528  0.0000  0.0000
OSCDFT:    0.0000  0.0000  0.0000  1.0000 -0.0000
OSCDFT:    1.0000 -0.0000 -0.0000 -0.0000 -0.0000
OSCDFT: matrix (before diag.)
OSCDFT:    0.9916 -0.0000 -0.0000  0.0000  0.0000
OSCDFT:   -0.0000  0.2647 -0.0000  0.0000  0.0000
OSCDFT:   -0.0000 -0.0000  0.2647  0.0000  0.0000
OSCDFT:    0.0000  0.0000  0.0000  0.3135 -0.0000
OSCDFT:    0.0000  0.0000  0.0000 -0.0000  0.0247
OSCDFT: occupation #  2: F DOWN 2(3D); tr[ns]:   1.1341
OSCDFT: eigenvalue
OSCDFT:    0.0000  0.2479  0.2479  0.2989  0.3393
OSCDFT: eigenvector (column)
OSCDFT:   -0.0000  0.0000  0.0000  0.0000  1.0000
OSCDFT:   -0.0000  0.6575  0.7534 -0.0000 -0.0000
OSCDFT:   -0.0000  0.7534 -0.6575 -0.0000 -0.0000
OSCDFT:    0.0000 -0.0000 -0.0000 -1.0000  0.0000
OSCDFT:    1.0000  0.0000  0.0000  0.0000  0.0000
OSCDFT: matrix (before diag.)
OSCDFT:    0.3393 -0.0000 -0.0000  0.0000  0.0000
OSCDFT:   -0.0000  0.2479 -0.0000  0.0000  0.0000
OSCDFT:   -0.0000 -0.0000  0.2479  0.0000  0.0000
OSCDFT:    0.0000  0.0000  0.0000  0.2989 -0.0000
OSCDFT:    0.0000  0.0000  0.0000 -0.0000  0.0000
OSCDFT: gradient
OSCDFT:    1.5841773E-02
OSCDFT: global_start_index mask
OSCDFT:    1.0000000E+00
OSCDFT: gamma:  5.0000000E-01
OSCDFT: current multipliers
OSCDFT:   -8.3650995E-01
OSCDFT: updated multipliers
OSCDFT:   -8.2858906E-01
OSCDFT: convergence test of 1.5841773E-02 vs. inner convergence threshold of 1.7433922E-01
OSCDFT: inner convergence test: PASSED
OSCDFT: multipliers converge, decreasing multiplier conv_thr

     total cpu time spent up to now is        5.5 secs

     total energy              =    -722.46769520 Ry
     estimated scf accuracy    <       0.24629305 Ry

     total magnetization       =     1.00 Bohr mag/cell
     absolute magnetization    =     1.33 Bohr mag/cell

     iteration # 17     ecut=    30.00 Ry     beta= 0.20
OSCDFT: main loop #   17; constraints are applied
OSCDFT: oscdft loop #    1

     total cpu time spent up to now is        5.5 secs
     Davidson diagonalization with overlap
     ethr =  8.03E-05,  avg # of iterations =  1.0
OSCDFT DEBUG: oscdft_new_ns from oscdft_electrons
 
OSCDFT: occupation #  1: T   UP 2(3D); tr[ns]:   1.8582
OSCDFT: eigenvalue
OSCDFT:    0.0256  0.2652  0.2652  0.3134  0.9888
OSCDFT: eigenvector (column)
OSCDFT:   -0.0000 -0.0000  0.0000 -0.0000 -1.0000
OSCDFT:   -0.0000 -0.6466 -0.7628  0.0000  0.0000
OSCDFT:   -0.0000 -0.7628  0.6466  0.0000  0.0000
OSCDFT:    0.0000  0.0000  0.0000  1.0000 -0.0000
OSCDFT:    1.0000 -0.0000 -0.0000 -0.0000 -0.0000
OSCDFT: matrix (before diag.)
OSCDFT:    0.9888 -0.0000 -0.0000  0.0000  0.0000
OSCDFT:   -0.0000  0.2652 -0.0000  0.0000  0.0000
OSCDFT:   -0.0000 -0.0000  0.2652  0.0000  0.0000
OSCDFT:    0.0000  0.0000  0.0000  0.3134 -0.0000
OSCDFT:    0.0000  0.0000  0.0000 -0.0000  0.0256
OSCDFT: occupation #  2: F DOWN 2(3D); tr[ns]:   1.1327
OSCDFT: eigenvalue
OSCDFT:    0.0000  0.2476  0.2476  0.2987  0.3388
OSCDFT: eigenvector (column)
OSCDFT:   -0.0000  0.0000  0.0000  0.0000  1.0000
OSCDFT:   -0.0000  0.5928  0.8054 -0.0000 -0.0000
OSCDFT:   -0.0000  0.8054 -0.5928 -0.0000 -0.0000
OSCDFT:    0.0000 -0.0000 -0.0000 -1.0000  0.0000
OSCDFT:    1.0000  0.0000  0.0000  0.0000  0.0000
OSCDFT: matrix (before diag.)
OSCDFT:    0.3388 -0.0000 -0.0000  0.0000  0.0000
OSCDFT:   -0.0000  0.2476 -0.0000  0.0000  0.0000
OSCDFT:   -0.0000 -0.0000  0.2476  0.0000  0.0000
OSCDFT:    0.0000  0.0000  0.0000  0.2987 -0.0000
OSCDFT:    0.0000  0.0000  0.0000 -0.0000  0.0000
OSCDFT: gradient
OSCDFT:    1.2965747E-02
OSCDFT: global_start_index mask
OSCDFT:    1.0000000E+00
OSCDFT: gamma:  5.0000000E-01
OSCDFT: current multipliers
OSCDFT:   -8.2858906E-01
OSCDFT: updated multipliers
OSCDFT:   -8.2210619E-01
OSCDFT: convergence test of 1.2965747E-02 vs. inner convergence threshold of 1.5690530E-01
OSCDFT: inner convergence test: PASSED
OSCDFT: multipliers converge, decreasing multiplier conv_thr

     total cpu time spent up to now is        5.8 secs

     total energy              =    -722.46081485 Ry
     estimated scf accuracy    <       0.23592218 Ry

     total magnetization       =     1.00 Bohr mag/cell
     absolute magnetization    =     1.36 Bohr mag/cell

     iteration # 18     ecut=    30.00 Ry     beta= 0.20
OSCDFT: main loop #   18; constraints are applied
OSCDFT: oscdft loop #    1

     total cpu time spent up to now is        5.8 secs
     Davidson diagonalization with overlap
     ethr =  8.03E-05,  avg # of iterations =  1.0
OSCDFT DEBUG: oscdft_new_ns from oscdft_electrons
 
OSCDFT: occupation #  1: T   UP 2(3D); tr[ns]:   1.8519
OSCDFT: eigenvalue
OSCDFT:    0.0222  0.2646  0.2646  0.3135  0.9870
OSCDFT: eigenvector (column)
OSCDFT:   -0.0000 -0.0000  0.0000 -0.0000 -1.0000
OSCDFT:   -0.0000 -0.5746 -0.8184  0.0000  0.0000
OSCDFT:   -0.0000 -0.8184  0.5746  0.0000  0.0000
OSCDFT:    0.0000  0.0000  0.0000  1.0000 -0.0000
OSCDFT:    1.0000 -0.0000 -0.0000 -0.0000 -0.0000
OSCDFT: matrix (before diag.)
OSCDFT:    0.9870 -0.0000 -0.0000  0.0000  0.0000
OSCDFT:   -0.0000  0.2646 -0.0000  0.0000  0.0000
OSCDFT:   -0.0000 -0.0000  0.2646  0.0000  0.0000
OSCDFT:    0.0000  0.0000  0.0000  0.3135 -0.0000
OSCDFT:    0.0000  0.0000  0.0000 -0.0000  0.0222
OSCDFT: occupation #  2: F DOWN 2(3D); tr[ns]:   1.1263
OSCDFT: eigenvalue
OSCDFT:    0.0000  0.2461  0.2461  0.2983  0.3358
OSCDFT: eigenvector (column)
OSCDFT:   -0.0000  0.0000  0.0000  0.0000  1.0000
OSCDFT:   -0.0000  0.6655  0.7464 -0.0000 -0.0000
OSCDFT:   -0.0000  0.7464 -0.6655 -0.0000 -0.0000
OSCDFT:    0.0000 -0.0000 -0.0000 -1.0000  0.0000
OSCDFT:    1.0000  0.0000  0.0000  0.0000  0.0000
OSCDFT: matrix (before diag.)
OSCDFT:    0.3358 -0.0000 -0.0000  0.0000  0.0000
OSCDFT:   -0.0000  0.2461 -0.0000  0.0000  0.0000
OSCDFT:   -0.0000 -0.0000  0.2461  0.0000  0.0000
OSCDFT:    0.0000  0.0000  0.0000  0.2983 -0.0000
OSCDFT:    0.0000  0.0000  0.0000 -0.0000  0.0000
OSCDFT: gradient
OSCDFT:    1.1188675E-02
OSCDFT: global_start_index mask
OSCDFT:    1.0000000E+00
OSCDFT: gamma:  5.0000000E-01
OSCDFT: current multipliers
OSCDFT:   -8.2210619E-01
OSCDFT: updated multipliers
OSCDFT:   -8.1651185E-01
OSCDFT: convergence test of 1.1188675E-02 vs. inner convergence threshold of 1.4121477E-01
OSCDFT: inner convergence test: PASSED
OSCDFT: multipliers converge, decreasing multiplier conv_thr

     total cpu time spent up to now is        6.1 secs

     total energy              =    -722.45868455 Ry
     estimated scf accuracy    <       0.17956545 Ry

     total magnetization       =     1.00 Bohr mag/cell
     absolute magnetization    =     1.48 Bohr mag/cell

     iteration # 19     ecut=    30.00 Ry     beta= 0.20
OSCDFT: main loop #   19; constraints are applied
OSCDFT: oscdft loop #    1

     total cpu time spent up to now is        6.1 secs
     Davidson diagonalization with overlap
     ethr =  8.03E-05,  avg # of iterations =  1.0
OSCDFT DEBUG: oscdft_new_ns from oscdft_electrons
 
OSCDFT: occupation #  1: T   UP 2(3D); tr[ns]:   1.8436
OSCDFT: eigenvalue
OSCDFT:    0.0263  0.2644  0.2644  0.3142  0.9743
OSCDFT: eigenvector (column)
OSCDFT:   -0.0000 -0.0000  0.0000 -0.0000 -1.0000
OSCDFT:   -0.0000 -0.5742 -0.8187  0.0000  0.0000
OSCDFT:   -0.0000 -0.8187  0.5742  0.0000  0.0000
OSCDFT:    0.0000  0.0000  0.0000  1.0000 -0.0000
OSCDFT:    1.0000 -0.0000 -0.0000 -0.0000 -0.0000
OSCDFT: matrix (before diag.)
OSCDFT:    0.9743 -0.0000 -0.0000  0.0000  0.0000
OSCDFT:   -0.0000  0.2644 -0.0000  0.0000  0.0000
OSCDFT:   -0.0000 -0.0000  0.2644  0.0000  0.0000
OSCDFT:    0.0000  0.0000  0.0000  0.3142 -0.0000
OSCDFT:    0.0000  0.0000  0.0000 -0.0000  0.0263
OSCDFT: occupation #  2: F DOWN 2(3D); tr[ns]:   1.1246
OSCDFT: eigenvalue
OSCDFT:    0.0000  0.2459  0.2459  0.2984  0.3344
OSCDFT: eigenvector (column)
OSCDFT:   -0.0000  0.0000  0.0000  0.0000  1.0000
OSCDFT:   -0.0000  0.6617  0.7498 -0.0000 -0.0000
OSCDFT:   -0.0000  0.7498 -0.6617 -0.0000 -0.0000
OSCDFT:    0.0000 -0.0000 -0.0000 -1.0000  0.0000
OSCDFT:    1.0000  0.0000  0.0000  0.0000  0.0000
OSCDFT: matrix (before diag.)
OSCDFT:    0.3344 -0.0000 -0.0000  0.0000  0.0000
OSCDFT:   -0.0000  0.2459 -0.0000  0.0000  0.0000
OSCDFT:   -0.0000 -0.0000  0.2459  0.0000  0.0000
OSCDFT:    0.0000  0.0000  0.0000  0.2984 -0.0000
OSCDFT:    0.0000  0.0000  0.0000 -0.0000  0.0000
OSCDFT: gradient
OSCDFT:   -1.4753236E-03
OSCDFT: global_start_index mask
OSCDFT:    1.0000000E+00
OSCDFT: gamma:  5.0000000E-01
OSCDFT: current multipliers
OSCDFT:   -8.1651185E-01
OSCDFT: updated multipliers
OSCDFT:   -8.1724951E-01
OSCDFT: convergence test of 1.4753236E-03 vs. inner convergence threshold of 1.2709329E-01
OSCDFT: inner convergence test: PASSED
OSCDFT: multipliers converge, decreasing multiplier conv_thr

     total cpu time spent up to now is        6.4 secs

     total energy              =    -722.44812236 Ry
     estimated scf accuracy    <       0.12953016 Ry

     total magnetization       =     1.00 Bohr mag/cell
     absolute magnetization    =     1.58 Bohr mag/cell

     iteration # 20     ecut=    30.00 Ry     beta= 0.20
OSCDFT: main loop #   20; constraints are applied
OSCDFT: oscdft loop #    1

     total cpu time spent up to now is        6.4 secs
     Davidson diagonalization with overlap
     ethr =  8.03E-05,  avg # of iterations =  1.0
OSCDFT DEBUG: oscdft_new_ns from oscdft_electrons
 
OSCDFT: occupation #  1: T   UP 2(3D); tr[ns]:   1.7905
OSCDFT: eigenvalue
OSCDFT:    0.0360  0.2626  0.2626  0.3144  0.9149
OSCDFT: eigenvector (column)
OSCDFT:   -0.0000 -0.0000  0.0000 -0.0000 -1.0000
OSCDFT:   -0.0000 -0.7103 -0.7039  0.0000  0.0000
OSCDFT:   -0.0000 -0.7039  0.7103  0.0000  0.0000
OSCDFT:    0.0000  0.0000  0.0000  1.0000 -0.0000
OSCDFT:    1.0000 -0.0000 -0.0000 -0.0000 -0.0000
OSCDFT: matrix (before diag.)
OSCDFT:    0.9149 -0.0000 -0.0000  0.0000  0.0000
OSCDFT:   -0.0000  0.2626 -0.0000  0.0000  0.0000
OSCDFT:   -0.0000 -0.0000  0.2626  0.0000  0.0000
OSCDFT:    0.0000  0.0000  0.0000  0.3144 -0.0000
OSCDFT:    0.0000  0.0000  0.0000 -0.0000  0.0360
OSCDFT: occupation #  2: F DOWN 2(3D); tr[ns]:   1.1170
OSCDFT: eigenvalue
OSCDFT:    0.0000  0.2434  0.2434  0.2983  0.3319
OSCDFT: eigenvector (column)
OSCDFT:   -0.0000  0.0000  0.0000  0.0000  1.0000
OSCDFT:   -0.0000  0.6705  0.7420 -0.0000 -0.0000
OSCDFT:   -0.0000  0.7420 -0.6705 -0.0000 -0.0000
OSCDFT:    0.0000 -0.0000 -0.0000 -1.0000  0.0000
OSCDFT:    1.0000  0.0000  0.0000  0.0000  0.0000
OSCDFT: matrix (before diag.)
OSCDFT:    0.3319 -0.0000 -0.0000  0.0000  0.0000
OSCDFT:   -0.0000  0.2434 -0.0000  0.0000  0.0000
OSCDFT:   -0.0000 -0.0000  0.2434  0.0000  0.0000
OSCDFT:    0.0000  0.0000  0.0000  0.2983 -0.0000
OSCDFT:    0.0000  0.0000  0.0000 -0.0000  0.0000
OSCDFT: gradient
OSCDFT:   -6.0880260E-02
OSCDFT: global_start_index mask
OSCDFT:    1.0000000E+00
OSCDFT: gamma:  5.0000000E-01
OSCDFT: current multipliers
OSCDFT:   -8.1724951E-01
OSCDFT: updated multipliers
OSCDFT:   -8.4768964E-01
OSCDFT: convergence test of 6.0880260E-02 vs. inner convergence threshold of 1.1438396E-01
OSCDFT: inner convergence test: PASSED
OSCDFT: multipliers converge, decreasing multiplier conv_thr

     total cpu time spent up to now is        6.7 secs

     total energy              =    -722.41669610 Ry
     estimated scf accuracy    <       0.04242694 Ry

     total magnetization       =     1.00 Bohr mag/cell
     absolute magnetization    =     1.80 Bohr mag/cell

     iteration # 21     ecut=    30.00 Ry     beta= 0.20
OSCDFT: main loop #   21; constraints are applied
OSCDFT: oscdft loop #    1

     total cpu time spent up to now is        6.7 secs
     Davidson diagonalization with overlap
     ethr =  4.37E-05,  avg # of iterations =  1.5
OSCDFT DEBUG: oscdft_new_ns from oscdft_electrons
 
OSCDFT: occupation #  1: T   UP 2(3D); tr[ns]:   1.7811
OSCDFT: eigenvalue
OSCDFT:    0.0230  0.2587  0.2587  0.3150  0.9258
OSCDFT: eigenvector (column)
OSCDFT:   -0.0000 -0.0000  0.0000 -0.0000 -1.0000
OSCDFT:   -0.0000 -0.7145 -0.6996  0.0000  0.0000
OSCDFT:   -0.0000 -0.6996  0.7145  0.0000  0.0000
OSCDFT:    0.0000  0.0000  0.0000  1.0000 -0.0000
OSCDFT:    1.0000 -0.0000 -0.0000 -0.0000 -0.0000
OSCDFT: matrix (before diag.)
OSCDFT:    0.9258 -0.0000 -0.0000  0.0000  0.0000
OSCDFT:   -0.0000  0.2587 -0.0000  0.0000  0.0000
OSCDFT:   -0.0000 -0.0000  0.2587  0.0000  0.0000
OSCDFT:    0.0000  0.0000  0.0000  0.3150 -0.0000
OSCDFT:    0.0000  0.0000  0.0000 -0.0000  0.0230
OSCDFT: occupation #  2: F DOWN 2(3D); tr[ns]:   1.1039
OSCDFT: eigenvalue
OSCDFT:    0.0000  0.2392  0.2392  0.2984  0.3270
OSCDFT: eigenvector (column)
OSCDFT:   -0.0000  0.0000 -0.0000  0.0000  1.0000
OSCDFT:   -0.0000  0.7091  0.7051 -0.0000 -0.0000
OSCDFT:   -0.0000  0.7051 -0.7091 -0.0000 -0.0000
OSCDFT:    0.0000 -0.0000 -0.0000 -1.0000  0.0000
OSCDFT:    1.0000  0.0000  0.0000  0.0000  0.0000
OSCDFT: matrix (before diag.)
OSCDFT:    0.3270 -0.0000 -0.0000  0.0000  0.0000
OSCDFT:   -0.0000  0.2392 -0.0000  0.0000  0.0000
OSCDFT:   -0.0000 -0.0000  0.2392  0.0000  0.0000
OSCDFT:    0.0000  0.0000  0.0000  0.2984 -0.0000
OSCDFT:    0.0000  0.0000  0.0000 -0.0000  0.0000
OSCDFT: gradient
OSCDFT:   -5.0047148E-02
OSCDFT: global_start_index mask
OSCDFT:    1.0000000E+00
OSCDFT: gamma:  5.0000000E-01
OSCDFT: current multipliers
OSCDFT:   -8.4768964E-01
OSCDFT: updated multipliers
OSCDFT:   -8.7271322E-01
OSCDFT: convergence test of 5.0047148E-02 vs. inner convergence threshold of 1.0294557E-01
OSCDFT: inner convergence test: PASSED
OSCDFT: multipliers converge, decreasing multiplier conv_thr

     total cpu time spent up to now is        7.0 secs

     total energy              =    -722.42089228 Ry
     estimated scf accuracy    <       0.00700665 Ry

     total magnetization       =     1.00 Bohr mag/cell
     absolute magnetization    =     1.96 Bohr mag/cell

     iteration # 22     ecut=    30.00 Ry     beta= 0.20
OSCDFT: main loop #   22; constraints are applied
OSCDFT: oscdft loop #    1

     total cpu time spent up to now is        7.0 secs
     Davidson diagonalization with overlap
     ethr =  7.22E-06,  avg # of iterations =  7.0
OSCDFT DEBUG: oscdft_new_ns from oscdft_electrons
 
OSCDFT: occupation #  1: T   UP 2(3D); tr[ns]:   1.7527
OSCDFT: eigenvalue
OSCDFT:    0.0209  0.2539  0.2539  0.3150  0.9091
OSCDFT: eigenvector (column)
OSCDFT:   -0.0000 -0.0000  0.0000 -0.0000 -1.0000
OSCDFT:   -0.0000 -0.6087 -0.7934  0.0000  0.0000
OSCDFT:   -0.0000 -0.7934  0.6087  0.0000  0.0000
OSCDFT:    0.0000  0.0000  0.0000  1.0000 -0.0000
OSCDFT:    1.0000 -0.0000 -0.0000 -0.0000 -0.0000
OSCDFT: matrix (before diag.)
OSCDFT:    0.9091 -0.0000 -0.0000  0.0000  0.0000
OSCDFT:   -0.0000  0.2539 -0.0000  0.0000  0.0000
OSCDFT:   -0.0000 -0.0000  0.2539  0.0000  0.0000
OSCDFT:    0.0000  0.0000  0.0000  0.3150 -0.0000
OSCDFT:    0.0000  0.0000  0.0000 -0.0000  0.0209
OSCDFT: occupation #  2: F DOWN 2(3D); tr[ns]:   1.0956
OSCDFT: eigenvalue
OSCDFT:    0.0000  0.2360  0.2360  0.2983  0.3251
OSCDFT: eigenvector (column)
OSCDFT:   -0.0000 -0.0000 -0.0000  0.0000  1.0000
OSCDFT:   -0.0000 -0.6375 -0.7704 -0.0000 -0.0000
OSCDFT:   -0.0000 -0.7704  0.6375 -0.0000 -0.0000
OSCDFT:    0.0000  0.0000  0.0000 -1.0000  0.0000
OSCDFT:    1.0000 -0.0000 -0.0000  0.0000  0.0000
OSCDFT: matrix (before diag.)
OSCDFT:    0.3251 -0.0000 -0.0000  0.0000  0.0000
OSCDFT:   -0.0000  0.2360 -0.0000  0.0000  0.0000
OSCDFT:   -0.0000 -0.0000  0.2360  0.0000  0.0000
OSCDFT:    0.0000  0.0000  0.0000  0.2983 -0.0000
OSCDFT:    0.0000  0.0000  0.0000 -0.0000  0.0000
OSCDFT: gradient
OSCDFT:   -6.6697580E-02
OSCDFT: global_start_index mask
OSCDFT:    1.0000000E+00
OSCDFT: gamma:  5.0000000E-01
OSCDFT: current multipliers
OSCDFT:   -8.7271322E-01
OSCDFT: updated multipliers
OSCDFT:   -9.0606201E-01
OSCDFT: convergence test of 6.6697580E-02 vs. inner convergence threshold of 1.0000000E-01
OSCDFT: inner convergence test: PASSED
OSCDFT: multipliers converge, checking for final_conv_thr convergence
OSCDFT: convergence test of 6.6697580E-02 vs. outer convergence threshold of 1.0000000E-03
OSCDFT: outer convergence test: FAILED

     total cpu time spent up to now is        7.4 secs

     total energy              =    -722.41072872 Ry
     estimated scf accuracy    <       0.00791259 Ry

     total magnetization       =     1.00 Bohr mag/cell
     absolute magnetization    =     1.93 Bohr mag/cell

     iteration # 23     ecut=    30.00 Ry     beta= 0.20
OSCDFT: main loop #   23; constraints are applied
OSCDFT: oscdft loop #    1

     total cpu time spent up to now is        7.4 secs
     Davidson diagonalization with overlap
     ethr =  7.22E-06,  avg # of iterations =  1.0
OSCDFT DEBUG: oscdft_new_ns from oscdft_electrons
 
OSCDFT: occupation #  1: T   UP 2(3D); tr[ns]:   1.7646
OSCDFT: eigenvalue
OSCDFT:    0.0227  0.2533  0.2533  0.3151  0.9203
OSCDFT: eigenvector (column)
OSCDFT:   -0.0000 -0.0000  0.0000 -0.0000 -1.0000
OSCDFT:   -0.0000 -0.6897 -0.7241  0.0000  0.0000
OSCDFT:   -0.0000 -0.7241  0.6897  0.0000  0.0000
OSCDFT:    0.0000  0.0000  0.0000  1.0000 -0.0000
OSCDFT:    1.0000 -0.0000 -0.0000 -0.0000 -0.0000
OSCDFT: matrix (before diag.)
OSCDFT:    0.9203 -0.0000 -0.0000  0.0000  0.0000
OSCDFT:   -0.0000  0.2533 -0.0000  0.0000  0.0000
OSCDFT:   -0.0000 -0.0000  0.2533  0.0000  0.0000
OSCDFT:    0.0000  0.0000  0.0000  0.3151 -0.0000
OSCDFT:    0.0000  0.0000  0.0000 -0.0000  0.0227
OSCDFT: occupation #  2: F DOWN 2(3D); tr[ns]:   1.0933
OSCDFT: eigenvalue
OSCDFT:    0.0000  0.2356  0.2356  0.2984  0.3238
OSCDFT: eigenvector (column)
OSCDFT:   -0.0000  0.0000  0.0000  0.0000  1.0000
OSCDFT:   -0.0000  0.6438  0.7652 -0.0000 -0.0000
OSCDFT:   -0.0000  0.7652 -0.6438 -0.0000 -0.0000
OSCDFT:    0.0000 -0.0000 -0.0000 -1.0000  0.0000
OSCDFT:    1.0000  0.0000  0.0000  0.0000  0.0000
OSCDFT: matrix (before diag.)
OSCDFT:    0.3238 -0.0000 -0.0000  0.0000  0.0000
OSCDFT:   -0.0000  0.2356 -0.0000  0.0000  0.0000
OSCDFT:   -0.0000 -0.0000  0.2356  0.0000  0.0000
OSCDFT:    0.0000  0.0000  0.0000  0.2984 -0.0000
OSCDFT:    0.0000  0.0000  0.0000 -0.0000  0.0000
OSCDFT: gradient
OSCDFT:   -5.5516868E-02
OSCDFT: global_start_index mask
OSCDFT:    1.0000000E+00
OSCDFT: gamma:  5.0000000E-01
OSCDFT: current multipliers
OSCDFT:   -9.0606201E-01
OSCDFT: updated multipliers
OSCDFT:   -9.3382044E-01
OSCDFT: convergence test of 5.5516868E-02 vs. inner convergence threshold of 1.0000000E-01
OSCDFT: inner convergence test: PASSED
OSCDFT: multipliers converge, checking for final_conv_thr convergence
OSCDFT: convergence test of 5.5516868E-02 vs. outer convergence threshold of 1.0000000E-03
OSCDFT: outer convergence test: FAILED

     total cpu time spent up to now is        7.7 secs

     total energy              =    -722.41483366 Ry
     estimated scf accuracy    <       0.01936138 Ry

     total magnetization       =     1.00 Bohr mag/cell
     absolute magnetization    =     1.84 Bohr mag/cell

     iteration # 24     ecut=    30.00 Ry     beta= 0.20
OSCDFT: main loop #   24; constraints are applied
OSCDFT: oscdft loop #    1

     total cpu time spent up to now is        7.7 secs
     Davidson diagonalization with overlap
     ethr =  7.22E-06,  avg # of iterations =  1.0
OSCDFT DEBUG: oscdft_new_ns from oscdft_electrons
 
OSCDFT: occupation #  1: T   UP 2(3D); tr[ns]:   1.7961
OSCDFT: eigenvalue
OSCDFT:    0.0134  0.2532  0.2532  0.3150  0.9614
OSCDFT: eigenvector (column)
OSCDFT:   -0.0000 -0.0000  0.0000 -0.0000 -1.0000
OSCDFT:   -0.0000 -0.7648 -0.6443  0.0000  0.0000
OSCDFT:   -0.0000 -0.6443  0.7648  0.0000  0.0000
OSCDFT:    0.0000  0.0000  0.0000  1.0000 -0.0000
OSCDFT:    1.0000 -0.0000 -0.0000 -0.0000 -0.0000
OSCDFT: matrix (before diag.)
OSCDFT:    0.9614 -0.0000 -0.0000  0.0000  0.0000
OSCDFT:   -0.0000  0.2532 -0.0000  0.0000  0.0000
OSCDFT:   -0.0000 -0.0000  0.2532  0.0000  0.0000
OSCDFT:    0.0000  0.0000  0.0000  0.3150 -0.0000
OSCDFT:    0.0000  0.0000  0.0000 -0.0000  0.0134
OSCDFT: occupation #  2: F DOWN 2(3D); tr[ns]:   1.0924
OSCDFT: eigenvalue
OSCDFT:    0.0000  0.2353  0.2353  0.2983  0.3235
OSCDFT: eigenvector (column)
OSCDFT:   -0.0000  0.0000  0.0000  0.0000  1.0000
OSCDFT:   -0.0000  0.6759  0.7370 -0.0000 -0.0000
OSCDFT:   -0.0000  0.7370 -0.6759 -0.0000 -0.0000
OSCDFT:    0.0000 -0.0000 -0.0000 -1.0000  0.0000
OSCDFT:    1.0000  0.0000  0.0000  0.0000  0.0000
OSCDFT: matrix (before diag.)
OSCDFT:    0.3235 -0.0000 -0.0000  0.0000  0.0000
OSCDFT:   -0.0000  0.2353 -0.0000  0.0000  0.0000
OSCDFT:   -0.0000 -0.0000  0.2353  0.0000  0.0000
OSCDFT:    0.0000  0.0000  0.0000  0.2983 -0.0000
OSCDFT:    0.0000  0.0000  0.0000 -0.0000  0.0000
OSCDFT: gradient
OSCDFT:   -1.4441951E-02
OSCDFT: global_start_index mask
OSCDFT:    1.0000000E+00
OSCDFT: gamma:  5.0000000E-01
OSCDFT: current multipliers
OSCDFT:   -9.3382044E-01
OSCDFT: updated multipliers
OSCDFT:   -9.4104141E-01
OSCDFT: convergence test of 1.4441951E-02 vs. inner convergence threshold of 1.0000000E-01
OSCDFT: inner convergence test: PASSED
OSCDFT: multipliers converge, checking for final_conv_thr convergence
OSCDFT: convergence test of 1.4441951E-02 vs. outer convergence threshold of 1.0000000E-03
OSCDFT: outer convergence test: FAILED

     total cpu time spent up to now is        8.0 secs

     total energy              =    -722.43587163 Ry
     estimated scf accuracy    <       0.03379884 Ry

     total magnetization       =     1.00 Bohr mag/cell
     absolute magnetization    =     1.73 Bohr mag/cell

     iteration # 25     ecut=    30.00 Ry     beta= 0.20
OSCDFT: main loop #   25; constraints are applied
OSCDFT: oscdft loop #    1

     total cpu time spent up to now is        8.0 secs
     Davidson diagonalization with overlap
     ethr =  7.22E-06,  avg # of iterations =  1.0
OSCDFT DEBUG: oscdft_new_ns from oscdft_electrons
 
OSCDFT: occupation #  1: T   UP 2(3D); tr[ns]:   1.8000
OSCDFT: eigenvalue
OSCDFT:    0.0178  0.2541  0.2541  0.3152  0.9589
OSCDFT: eigenvector (column)
OSCDFT:   -0.0000 -0.0000  0.0000 -0.0000 -1.0000
OSCDFT:   -0.0000 -0.6577 -0.7533  0.0000  0.0000
OSCDFT:   -0.0000 -0.7533  0.6577  0.0000  0.0000
OSCDFT:    0.0000  0.0000  0.0000  1.0000 -0.0000
OSCDFT:    1.0000 -0.0000 -0.0000 -0.0000 -0.0000
OSCDFT: matrix (before diag.)
OSCDFT:    0.9589 -0.0000 -0.0000  0.0000  0.0000
OSCDFT:   -0.0000  0.2541 -0.0000  0.0000  0.0000
OSCDFT:   -0.0000 -0.0000  0.2541  0.0000  0.0000
OSCDFT:    0.0000  0.0000  0.0000  0.3152 -0.0000
OSCDFT:    0.0000  0.0000  0.0000 -0.0000  0.0178
OSCDFT: occupation #  2: F DOWN 2(3D); tr[ns]:   1.0962
OSCDFT: eigenvalue
OSCDFT:    0.0000  0.2368  0.2368  0.2985  0.3241
OSCDFT: eigenvector (column)
OSCDFT:   -0.0000  0.0000  0.0000  0.0000  1.0000
OSCDFT:   -0.0000  0.6734  0.7393 -0.0000 -0.0000
OSCDFT:   -0.0000  0.7393 -0.6734 -0.0000 -0.0000
OSCDFT:    0.0000 -0.0000 -0.0000 -1.0000  0.0000
OSCDFT:    1.0000  0.0000  0.0000  0.0000  0.0000
OSCDFT: matrix (before diag.)
OSCDFT:    0.3241 -0.0000 -0.0000  0.0000  0.0000
OSCDFT:   -0.0000  0.2368 -0.0000  0.0000  0.0000
OSCDFT:   -0.0000 -0.0000  0.2368  0.0000  0.0000
OSCDFT:    0.0000  0.0000  0.0000  0.2985 -0.0000
OSCDFT:    0.0000  0.0000  0.0000 -0.0000  0.0000
OSCDFT: gradient
OSCDFT:   -1.6869833E-02
OSCDFT: global_start_index mask
OSCDFT:    1.0000000E+00
OSCDFT: gamma:  5.0000000E-01
OSCDFT: current multipliers
OSCDFT:   -9.4104141E-01
OSCDFT: updated multipliers
OSCDFT:   -9.4947633E-01
OSCDFT: convergence test of 1.6869833E-02 vs. inner convergence threshold of 1.0000000E-01
OSCDFT: inner convergence test: PASSED
OSCDFT: multipliers converge, checking for final_conv_thr convergence
OSCDFT: convergence test of 1.6869833E-02 vs. outer convergence threshold of 1.0000000E-03
OSCDFT: outer convergence test: FAILED

     total cpu time spent up to now is        8.3 secs

     total energy              =    -722.43611535 Ry
     estimated scf accuracy    <       0.08964003 Ry

     total magnetization       =     1.00 Bohr mag/cell
     absolute magnetization    =     1.54 Bohr mag/cell

     iteration # 26     ecut=    30.00 Ry     beta= 0.20
OSCDFT: main loop #   26; constraints are applied
OSCDFT: oscdft loop #    1

     total cpu time spent up to now is        8.3 secs
     Davidson diagonalization with overlap
     ethr =  7.22E-06,  avg # of iterations =  1.0
OSCDFT DEBUG: oscdft_new_ns from oscdft_electrons
 
OSCDFT: occupation #  1: T   UP 2(3D); tr[ns]:   1.8235
OSCDFT: eigenvalue
OSCDFT:    0.0124  0.2553  0.2553  0.3155  0.9851
OSCDFT: eigenvector (column)
OSCDFT:   -0.0000 -0.0000  0.0000 -0.0000 -1.0000
OSCDFT:   -0.0000 -0.6511 -0.7590  0.0000  0.0000
OSCDFT:   -0.0000 -0.7590  0.6511  0.0000  0.0000
OSCDFT:    0.0000  0.0000  0.0000  1.0000 -0.0000
OSCDFT:    1.0000 -0.0000 -0.0000 -0.0000 -0.0000
OSCDFT: matrix (before diag.)
OSCDFT:    0.9851 -0.0000 -0.0000  0.0000  0.0000
OSCDFT:   -0.0000  0.2553 -0.0000  0.0000  0.0000
OSCDFT:   -0.0000 -0.0000  0.2553  0.0000  0.0000
OSCDFT:    0.0000  0.0000  0.0000  0.3155 -0.0000
OSCDFT:    0.0000  0.0000  0.0000 -0.0000  0.0124
OSCDFT: occupation #  2: F DOWN 2(3D); tr[ns]:   1.1006
OSCDFT: eigenvalue
OSCDFT:    0.0000  0.2383  0.2383  0.2990  0.3251
OSCDFT: eigenvector (column)
OSCDFT:   -0.0000 -0.0000 -0.0000  0.0000  1.0000
OSCDFT:   -0.0000 -0.6205 -0.7842 -0.0000 -0.0000
OSCDFT:   -0.0000 -0.7842  0.6205 -0.0000 -0.0000
OSCDFT:    0.0000  0.0000  0.0000 -1.0000  0.0000
OSCDFT:    1.0000 -0.0000 -0.0000  0.0000  0.0000
OSCDFT: matrix (before diag.)
OSCDFT:    0.3251 -0.0000 -0.0000  0.0000  0.0000
OSCDFT:   -0.0000  0.2383 -0.0000  0.0000  0.0000
OSCDFT:   -0.0000 -0.0000  0.2383  0.0000  0.0000
OSCDFT:    0.0000  0.0000  0.0000  0.2990 -0.0000
OSCDFT:    0.0000  0.0000  0.0000 -0.0000  0.0000
OSCDFT: gradient
OSCDFT:    9.2973819E-03
OSCDFT: global_start_index mask
OSCDFT:    1.0000000E+00
OSCDFT: gamma:  5.0000000E-01
OSCDFT: current multipliers
OSCDFT:   -9.4947633E-01
OSCDFT: updated multipliers
OSCDFT:   -9.4482764E-01
OSCDFT: convergence test of 9.2973819E-03 vs. inner convergence threshold of 1.0000000E-01
OSCDFT: inner convergence test: PASSED
OSCDFT: multipliers converge, checking for final_conv_thr convergence
OSCDFT: convergence test of 9.2973819E-03 vs. outer convergence threshold of 1.0000000E-03
OSCDFT: outer convergence test: FAILED

     total cpu time spent up to now is        8.6 secs

     total energy              =    -722.44752289 Ry
     estimated scf accuracy    <       0.11803562 Ry

     total magnetization       =     1.00 Bohr mag/cell
     absolute magnetization    =     1.47 Bohr mag/cell

     iteration # 27     ecut=    30.00 Ry     beta= 0.20
OSCDFT: main loop #   27; constraints are applied
OSCDFT: oscdft loop #    1

     total cpu time spent up to now is        8.6 secs
     Davidson diagonalization with overlap
     ethr =  7.22E-06,  avg # of iterations =  1.0
OSCDFT DEBUG: oscdft_new_ns from oscdft_electrons
 
OSCDFT: occupation #  1: T   UP 2(3D); tr[ns]:   1.8280
OSCDFT: eigenvalue
OSCDFT:    0.0085  0.2550  0.2550  0.3154  0.9941
OSCDFT: eigenvector (column)
OSCDFT:   -0.0000 -0.0000  0.0000 -0.0000 -1.0000
OSCDFT:   -0.0000 -0.5752 -0.8180  0.0000  0.0000
OSCDFT:   -0.0000 -0.8180  0.5752  0.0000  0.0000
OSCDFT:    0.0000  0.0000  0.0000  1.0000 -0.0000
OSCDFT:    1.0000 -0.0000 -0.0000 -0.0000 -0.0000
OSCDFT: matrix (before diag.)
OSCDFT:    0.9941 -0.0000 -0.0000  0.0000  0.0000
OSCDFT:   -0.0000  0.2550 -0.0000  0.0000  0.0000
OSCDFT:   -0.0000 -0.0000  0.2550  0.0000  0.0000
OSCDFT:    0.0000  0.0000  0.0000  0.3154 -0.0000
OSCDFT:    0.0000  0.0000  0.0000 -0.0000  0.0085
OSCDFT: occupation #  2: F DOWN 2(3D); tr[ns]:   1.0985
OSCDFT: eigenvalue
OSCDFT:    0.0000  0.2375  0.2375  0.2988  0.3247
OSCDFT: eigenvector (column)
OSCDFT:   -0.0000  0.0000  0.0000  0.0000  1.0000
OSCDFT:   -0.0000  0.6449  0.7643 -0.0000 -0.0000
OSCDFT:   -0.0000  0.7643 -0.6449 -0.0000 -0.0000
OSCDFT:    0.0000 -0.0000 -0.0000 -1.0000  0.0000
OSCDFT:    1.0000  0.0000  0.0000  0.0000  0.0000
OSCDFT: matrix (before diag.)
OSCDFT:    0.3247 -0.0000 -0.0000  0.0000  0.0000
OSCDFT:   -0.0000  0.2375 -0.0000  0.0000  0.0000
OSCDFT:   -0.0000 -0.0000  0.2375  0.0000  0.0000
OSCDFT:    0.0000  0.0000  0.0000  0.2988 -0.0000
OSCDFT:    0.0000  0.0000  0.0000 -0.0000  0.0000
OSCDFT: gradient
OSCDFT:    1.8264697E-02
OSCDFT: global_start_index mask
OSCDFT:    1.0000000E+00
OSCDFT: gamma:  5.0000000E-01
OSCDFT: current multipliers
OSCDFT:   -9.4482764E-01
OSCDFT: updated multipliers
OSCDFT:   -9.3569529E-01
OSCDFT: convergence test of 1.8264697E-02 vs. inner convergence threshold of 1.0000000E-01
OSCDFT: inner convergence test: PASSED
OSCDFT: multipliers converge, checking for final_conv_thr convergence
OSCDFT: convergence test of 1.8264697E-02 vs. outer convergence threshold of 1.0000000E-03
OSCDFT: outer convergence test: FAILED

     total cpu time spent up to now is        8.9 secs

     total energy              =    -722.45360610 Ry
     estimated scf accuracy    <       0.08916284 Ry

     total magnetization       =     1.00 Bohr mag/cell
     absolute magnetization    =     1.55 Bohr mag/cell

     iteration # 28     ecut=    30.00 Ry     beta= 0.20
OSCDFT: main loop #   28; constraints are applied
OSCDFT: oscdft loop #    1

     total cpu time spent up to now is        8.9 secs
     Davidson diagonalization with overlap
     ethr =  7.22E-06,  avg # of iterations =  1.0
OSCDFT DEBUG: oscdft_new_ns from oscdft_electrons
 
OSCDFT: occupation #  1: T   UP 2(3D); tr[ns]:   1.8239
OSCDFT: eigenvalue
OSCDFT:    0.0126  0.2558  0.2558  0.3157  0.9839
OSCDFT: eigenvector (column)
OSCDFT:   -0.0000 -0.0000  0.0000 -0.0000 -1.0000
OSCDFT:   -0.0000 -0.5608 -0.8280  0.0000  0.0000
OSCDFT:   -0.0000 -0.8280  0.5608  0.0000  0.0000
OSCDFT:    0.0000  0.0000  0.0000  1.0000 -0.0000
OSCDFT:    1.0000 -0.0000 -0.0000 -0.0000 -0.0000
OSCDFT: matrix (before diag.)
OSCDFT:    0.9839 -0.0000 -0.0000  0.0000  0.0000
OSCDFT:   -0.0000  0.2558 -0.0000  0.0000  0.0000
OSCDFT:   -0.0000 -0.0000  0.2558  0.0000  0.0000
OSCDFT:    0.0000  0.0000  0.0000  0.3157 -0.0000
OSCDFT:    0.0000  0.0000  0.0000 -0.0000  0.0126
OSCDFT: occupation #  2: F DOWN 2(3D); tr[ns]:   1.1023
OSCDFT: eigenvalue
OSCDFT:    0.0000  0.2388  0.2388  0.2993  0.3254
OSCDFT: eigenvector (column)
OSCDFT:   -0.0000  0.0000  0.0000  0.0000  1.0000
OSCDFT:   -0.0000  0.7261  0.6876 -0.0000 -0.0000
OSCDFT:   -0.0000  0.6876 -0.7261 -0.0000 -0.0000
OSCDFT:    0.0000 -0.0000 -0.0000 -1.0000  0.0000
OSCDFT:    1.0000  0.0000  0.0000  0.0000  0.0000
OSCDFT: matrix (before diag.)
OSCDFT:    0.3254 -0.0000 -0.0000  0.0000  0.0000
OSCDFT:   -0.0000  0.2388 -0.0000  0.0000  0.0000
OSCDFT:   -0.0000 -0.0000  0.2388  0.0000  0.0000
OSCDFT:    0.0000  0.0000  0.0000  0.2993 -0.0000
OSCDFT:    0.0000  0.0000  0.0000 -0.0000  0.0000
OSCDFT: gradient
OSCDFT:    8.1045020E-03
OSCDFT: global_start_index mask
OSCDFT:    1.0000000E+00
OSCDFT: gamma:  5.0000000E-01
OSCDFT: current multipliers
OSCDFT:   -9.3569529E-01
OSCDFT: updated multipliers
OSCDFT:   -9.3164304E-01
OSCDFT: convergence test of 8.1045020E-03 vs. inner convergence threshold of 1.0000000E-01
OSCDFT: inner convergence test: PASSED
OSCDFT: multipliers converge, checking for final_conv_thr convergence
OSCDFT: convergence test of 8.1045020E-03 vs. outer convergence threshold of 1.0000000E-03
OSCDFT: outer convergence test: FAILED

     total cpu time spent up to now is        9.2 secs

     total energy              =    -722.44805496 Ry
     estimated scf accuracy    <       0.10552235 Ry

     total magnetization       =     1.00 Bohr mag/cell
     absolute magnetization    =     1.50 Bohr mag/cell

     iteration # 29     ecut=    30.00 Ry     beta= 0.20
OSCDFT: main loop #   29; constraints are applied
OSCDFT: oscdft loop #    1

     total cpu time spent up to now is        9.2 secs
     Davidson diagonalization with overlap
     ethr =  7.22E-06,  avg # of iterations =  1.0
OSCDFT DEBUG: oscdft_new_ns from oscdft_electrons
 
OSCDFT: occupation #  1: T   UP 2(3D); tr[ns]:   1.8257
OSCDFT: eigenvalue
OSCDFT:    0.0100  0.2558  0.2558  0.3157  0.9885
OSCDFT: eigenvector (column)
OSCDFT:   -0.0000  0.0000 -0.0000 -0.0000 -1.0000
OSCDFT:   -0.0000  0.6172  0.7868  0.0000  0.0000
OSCDFT:   -0.0000  0.7868 -0.6172  0.0000  0.0000
OSCDFT:    0.0000 -0.0000 -0.0000  1.0000 -0.0000
OSCDFT:    1.0000  0.0000  0.0000 -0.0000 -0.0000
OSCDFT: matrix (before diag.)
OSCDFT:    0.9885 -0.0000 -0.0000  0.0000  0.0000
OSCDFT:   -0.0000  0.2558 -0.0000  0.0000  0.0000
OSCDFT:   -0.0000 -0.0000  0.2558  0.0000  0.0000
OSCDFT:    0.0000  0.0000  0.0000  0.3157 -0.0000
OSCDFT:    0.0000  0.0000  0.0000 -0.0000  0.0100
OSCDFT: occupation #  2: F DOWN 2(3D); tr[ns]:   1.1014
OSCDFT: eigenvalue
OSCDFT:    0.0000  0.2384  0.2384  0.2993  0.3254
OSCDFT: eigenvector (column)
OSCDFT:   -0.0000  0.0000  0.0000  0.0000  1.0000
OSCDFT:   -0.0000  0.6734  0.7393 -0.0000 -0.0000
OSCDFT:   -0.0000  0.7393 -0.6734 -0.0000 -0.0000
OSCDFT:    0.0000 -0.0000 -0.0000 -1.0000  0.0000
OSCDFT:    1.0000  0.0000  0.0000  0.0000  0.0000
OSCDFT: matrix (before diag.)
OSCDFT:    0.3254 -0.0000 -0.0000  0.0000  0.0000
OSCDFT:   -0.0000  0.2384 -0.0000  0.0000  0.0000
OSCDFT:   -0.0000 -0.0000  0.2384  0.0000  0.0000
OSCDFT:    0.0000  0.0000  0.0000  0.2993 -0.0000
OSCDFT:    0.0000  0.0000  0.0000 -0.0000  0.0000
OSCDFT: gradient
OSCDFT:    1.2691557E-02
OSCDFT: global_start_index mask
OSCDFT:    1.0000000E+00
OSCDFT: gamma:  5.0000000E-01
OSCDFT: current multipliers
OSCDFT:   -9.3164304E-01
OSCDFT: updated multipliers
OSCDFT:   -9.2529726E-01
OSCDFT: convergence test of 1.2691557E-02 vs. inner convergence threshold of 1.0000000E-01
OSCDFT: inner convergence test: PASSED
OSCDFT: multipliers converge, checking for final_conv_thr convergence
OSCDFT: convergence test of 1.2691557E-02 vs. outer convergence threshold of 1.0000000E-03
OSCDFT: outer convergence test: FAILED

     total cpu time spent up to now is        9.5 secs

     total energy              =    -722.45116798 Ry
     estimated scf accuracy    <       0.08942158 Ry

     total magnetization       =     1.00 Bohr mag/cell
     absolute magnetization    =     1.53 Bohr mag/cell

     iteration # 30     ecut=    30.00 Ry     beta= 0.20
OSCDFT: main loop #   30; constraints are applied
OSCDFT: oscdft loop #    1

     total cpu time spent up to now is        9.5 secs
     Davidson diagonalization with overlap
     ethr =  7.22E-06,  avg # of iterations =  1.0
OSCDFT DEBUG: oscdft_new_ns from oscdft_electrons
 
OSCDFT: occupation #  1: T   UP 2(3D); tr[ns]:   1.8249
OSCDFT: eigenvalue
OSCDFT:    0.0125  0.2565  0.2565  0.3160  0.9834
OSCDFT: eigenvector (column)
OSCDFT:   -0.0000 -0.0000  0.0000 -0.0000 -1.0000
OSCDFT:   -0.0000 -0.5763 -0.8172  0.0000  0.0000
OSCDFT:   -0.0000 -0.8172  0.5763  0.0000  0.0000
OSCDFT:    0.0000  0.0000  0.0000  1.0000 -0.0000
OSCDFT:    1.0000 -0.0000 -0.0000 -0.0000 -0.0000
OSCDFT: matrix (before diag.)
OSCDFT:    0.9834 -0.0000 -0.0000  0.0000  0.0000
OSCDFT:   -0.0000  0.2565 -0.0000  0.0000  0.0000
OSCDFT:   -0.0000 -0.0000  0.2565  0.0000  0.0000
OSCDFT:    0.0000  0.0000  0.0000  0.3160 -0.0000
OSCDFT:    0.0000  0.0000  0.0000 -0.0000  0.0125
OSCDFT: occupation #  2: F DOWN 2(3D); tr[ns]:   1.1045
OSCDFT: eigenvalue
OSCDFT:    0.0000  0.2393  0.2393  0.2996  0.3262
OSCDFT: eigenvector (column)
OSCDFT:   -0.0000 -0.0000 -0.0000  0.0000  1.0000
OSCDFT:   -0.0000 -0.6162 -0.7876 -0.0000 -0.0000
OSCDFT:   -0.0000 -0.7876  0.6162 -0.0000 -0.0000
OSCDFT:    0.0000  0.0000  0.0000 -1.0000  0.0000
OSCDFT:    1.0000 -0.0000 -0.0000  0.0000  0.0000
OSCDFT: matrix (before diag.)
OSCDFT:    0.3262 -0.0000 -0.0000  0.0000  0.0000
OSCDFT:   -0.0000  0.2393 -0.0000  0.0000  0.0000
OSCDFT:   -0.0000 -0.0000  0.2393  0.0000  0.0000
OSCDFT:    0.0000  0.0000  0.0000  0.2996 -0.0000
OSCDFT:    0.0000  0.0000  0.0000 -0.0000  0.0000
OSCDFT: gradient
OSCDFT:    7.6236474E-03
OSCDFT: global_start_index mask
OSCDFT:    1.0000000E+00
OSCDFT: gamma:  5.0000000E-01
OSCDFT: current multipliers
OSCDFT:   -9.2529726E-01
OSCDFT: updated multipliers
OSCDFT:   -9.2148544E-01
OSCDFT: convergence test of 7.6236474E-03 vs. inner convergence threshold of 1.0000000E-01
OSCDFT: inner convergence test: PASSED
OSCDFT: multipliers converge, checking for final_conv_thr convergence
OSCDFT: convergence test of 7.6236474E-03 vs. outer convergence threshold of 1.0000000E-03
OSCDFT: outer convergence test: FAILED

     total cpu time spent up to now is        9.8 secs

     total energy              =    -722.44838192 Ry
     estimated scf accuracy    <       0.09936607 Ry

     total magnetization       =     1.00 Bohr mag/cell
     absolute magnetization    =     1.51 Bohr mag/cell

     iteration # 31     ecut=    30.00 Ry     beta= 0.20
OSCDFT: main loop #   31; constraints are applied
OSCDFT: oscdft loop #    1

     total cpu time spent up to now is        9.8 secs
     Davidson diagonalization with overlap
     ethr =  7.22E-06,  avg # of iterations =  1.0
OSCDFT DEBUG: oscdft_new_ns from oscdft_electrons
 
OSCDFT: occupation #  1: T   UP 2(3D); tr[ns]:   1.8258
OSCDFT: eigenvalue
OSCDFT:    0.0117  0.2565  0.2565  0.3160  0.9852
OSCDFT: eigenvector (column)
OSCDFT:   -0.0000  0.0000 -0.0000 -0.0000 -1.0000
OSCDFT:   -0.0000  0.6847  0.7288  0.0000  0.0000
OSCDFT:   -0.0000  0.7288 -0.6847  0.0000  0.0000
OSCDFT:    0.0000 -0.0000 -0.0000  1.0000 -0.0000
OSCDFT:    1.0000  0.0000  0.0000 -0.0000 -0.0000
OSCDFT: matrix (before diag.)
OSCDFT:    0.9852 -0.0000 -0.0000  0.0000  0.0000
OSCDFT:   -0.0000  0.2565 -0.0000  0.0000  0.0000
OSCDFT:   -0.0000 -0.0000  0.2565  0.0000  0.0000
OSCDFT:    0.0000  0.0000  0.0000  0.3160 -0.0000
OSCDFT:    0.0000  0.0000  0.0000 -0.0000  0.0117
OSCDFT: occupation #  2: F DOWN 2(3D); tr[ns]:   1.1047
OSCDFT: eigenvalue
OSCDFT:    0.0000  0.2393  0.2393  0.2996  0.3264
OSCDFT: eigenvector (column)
OSCDFT:   -0.0000  0.0000  0.0000  0.0000  1.0000
OSCDFT:   -0.0000  0.6802  0.7330 -0.0000 -0.0000
OSCDFT:   -0.0000  0.7330 -0.6802 -0.0000 -0.0000
OSCDFT:    0.0000 -0.0000 -0.0000 -1.0000  0.0000
OSCDFT:    1.0000  0.0000  0.0000  0.0000  0.0000
OSCDFT: matrix (before diag.)
OSCDFT:    0.3264 -0.0000 -0.0000  0.0000  0.0000
OSCDFT:   -0.0000  0.2393 -0.0000  0.0000  0.0000
OSCDFT:   -0.0000 -0.0000  0.2393  0.0000  0.0000
OSCDFT:    0.0000  0.0000  0.0000  0.2996 -0.0000
OSCDFT:    0.0000  0.0000  0.0000 -0.0000  0.0000
OSCDFT: gradient
OSCDFT:    9.4045466E-03
OSCDFT: global_start_index mask
OSCDFT:    1.0000000E+00
OSCDFT: gamma:  5.0000000E-01
OSCDFT: current multipliers
OSCDFT:   -9.2148544E-01
OSCDFT: updated multipliers
OSCDFT:   -9.1678317E-01
OSCDFT: convergence test of 9.4045466E-03 vs. inner convergence threshold of 1.0000000E-01
OSCDFT: inner convergence test: PASSED
OSCDFT: multipliers converge, checking for final_conv_thr convergence
OSCDFT: convergence test of 9.4045466E-03 vs. outer convergence threshold of 1.0000000E-03
OSCDFT: outer convergence test: FAILED

     total cpu time spent up to now is       10.1 secs

     total energy              =    -722.44336583 Ry
     estimated scf accuracy    <       0.08762075 Ry

     total magnetization       =     1.00 Bohr mag/cell
     absolute magnetization    =     1.53 Bohr mag/cell

     iteration # 32     ecut=    30.00 Ry     beta= 0.20
OSCDFT: main loop #   32; constraints are applied
OSCDFT: oscdft loop #    1

     total cpu time spent up to now is       10.1 secs
[...]
OSCDFT DEBUG: oscdft_new_ns from oscdft_electrons
 
OSCDFT: occupation #  1: T   UP 2(3D); tr[ns]:   1.8151
OSCDFT: eigenvalue
OSCDFT:    0.0041  0.2600  0.2600  0.3153  0.9757
OSCDFT: eigenvector (column)
OSCDFT:   -0.0000  0.0000 -0.0000 -0.0000 -1.0000
OSCDFT:   -0.0000  0.6038  0.7971  0.0000  0.0000
OSCDFT:   -0.0000  0.7971 -0.6038  0.0000  0.0000
OSCDFT:    0.0000 -0.0000 -0.0000  1.0000 -0.0000
OSCDFT:    1.0000  0.0000  0.0000 -0.0000 -0.0000
OSCDFT: matrix (before diag.)
OSCDFT:    0.9757 -0.0000 -0.0000  0.0000  0.0000
OSCDFT:   -0.0000  0.2600 -0.0000  0.0000  0.0000
OSCDFT:   -0.0000 -0.0000  0.2600  0.0000  0.0000
OSCDFT:    0.0000  0.0000  0.0000  0.3153 -0.0000
OSCDFT:    0.0000  0.0000  0.0000 -0.0000  0.0041
OSCDFT: occupation #  2: F DOWN 2(3D); tr[ns]:   1.1193
OSCDFT: eigenvalue
OSCDFT:    0.0000  0.2454  0.2454  0.2996  0.3289
OSCDFT: eigenvector (column)
OSCDFT:   -0.0000 -0.0000 -0.0000  0.0000  1.0000
OSCDFT:   -0.0000 -0.6248 -0.7808 -0.0000 -0.0000
OSCDFT:   -0.0000 -0.7808  0.6248 -0.0000 -0.0000
OSCDFT:    0.0000  0.0000  0.0000 -1.0000  0.0000
OSCDFT:    1.0000 -0.0000 -0.0000  0.0000  0.0000
OSCDFT: matrix (before diag.)
OSCDFT:    0.3289 -0.0000 -0.0000  0.0000  0.0000
OSCDFT:   -0.0000  0.2454 -0.0000  0.0000  0.0000
OSCDFT:   -0.0000 -0.0000  0.2454  0.0000  0.0000
OSCDFT:    0.0000  0.0000  0.0000  0.2996 -0.0000
OSCDFT:    0.0000  0.0000  0.0000 -0.0000  0.0000
OSCDFT: gradient
OSCDFT:   -6.1773878E-05
OSCDFT: global_start_index mask
OSCDFT:    1.0000000E+00
OSCDFT: gamma:  5.0000000E-01
OSCDFT: current multipliers
OSCDFT:   -1.1174714E+00
OSCDFT: updated multipliers
OSCDFT:   -1.1175023E+00
OSCDFT: convergence test of 6.1773878E-05 vs. inner convergence threshold of 1.0000000E-01
OSCDFT: inner convergence test: PASSED
OSCDFT: multipliers converge, checking for final_conv_thr convergence
OSCDFT: convergence test of 6.1773878E-05 vs. outer convergence threshold of 1.0000000E-03
OSCDFT: outer convergence test: PASSED

     total cpu time spent up to now is       73.6 secs

     total energy              =    -722.67343947 Ry
     estimated scf accuracy    <       0.00001212 Ry

     total magnetization       =     1.00 Bohr mag/cell
     absolute magnetization    =     1.47 Bohr mag/cell

     iteration #  8     ecut=    30.00 Ry     beta= 0.20
OSCDFT: main loop #    8; constraints are applied
OSCDFT: oscdft loop #    1

     total cpu time spent up to now is       73.6 secs
     Davidson diagonalization with overlap
     ethr =  1.25E-08,  avg # of iterations =  3.0
OSCDFT DEBUG: oscdft_new_ns from oscdft_electrons
 
OSCDFT: occupation #  1: T   UP 2(3D); tr[ns]:   1.8161
OSCDFT: eigenvalue
OSCDFT:    0.0039  0.2600  0.2600  0.3154  0.9769
OSCDFT: eigenvector (column)
OSCDFT:   -0.0000 -0.0000  0.0000 -0.0000 -1.0000
OSCDFT:   -0.0000 -0.6417 -0.7670  0.0000  0.0000
OSCDFT:   -0.0000 -0.7670  0.6417  0.0000  0.0000
OSCDFT:    0.0000  0.0000  0.0000  1.0000 -0.0000
OSCDFT:    1.0000 -0.0000 -0.0000 -0.0000 -0.0000
OSCDFT: matrix (before diag.)
OSCDFT:    0.9769 -0.0000 -0.0000  0.0000  0.0000
OSCDFT:   -0.0000  0.2600 -0.0000  0.0000  0.0000
OSCDFT:   -0.0000 -0.0000  0.2600  0.0000  0.0000
OSCDFT:    0.0000  0.0000  0.0000  0.3154 -0.0000
OSCDFT:    0.0000  0.0000  0.0000 -0.0000  0.0039
OSCDFT: occupation #  2: F DOWN 2(3D); tr[ns]:   1.1193
OSCDFT: eigenvalue
OSCDFT:    0.0000  0.2454  0.2454  0.2996  0.3289
OSCDFT: eigenvector (column)
OSCDFT:   -0.0000  0.0000  0.0000  0.0000  1.0000
OSCDFT:   -0.0000  0.6976  0.7165 -0.0000 -0.0000
OSCDFT:   -0.0000  0.7165 -0.6976 -0.0000 -0.0000
OSCDFT:    0.0000 -0.0000 -0.0000 -1.0000  0.0000
OSCDFT:    1.0000  0.0000  0.0000  0.0000  0.0000
OSCDFT: matrix (before diag.)
OSCDFT:    0.3289 -0.0000 -0.0000  0.0000  0.0000
OSCDFT:   -0.0000  0.2454 -0.0000  0.0000  0.0000
OSCDFT:   -0.0000 -0.0000  0.2454  0.0000  0.0000
OSCDFT:    0.0000  0.0000  0.0000  0.2996 -0.0000
OSCDFT:    0.0000  0.0000  0.0000 -0.0000  0.0000
OSCDFT: gradient
OSCDFT:    1.0998597E-03
OSCDFT: global_start_index mask
OSCDFT:    1.0000000E+00
OSCDFT: gamma:  5.0000000E-01
OSCDFT: current multipliers
OSCDFT:   -1.1175023E+00
OSCDFT: updated multipliers
OSCDFT:   -1.1169523E+00
OSCDFT: convergence test of 1.0998597E-03 vs. inner convergence threshold of 1.0000000E-01
OSCDFT: inner convergence test: PASSED
OSCDFT: multipliers converge, checking for final_conv_thr convergence
OSCDFT: convergence test of 1.0998597E-03 vs. outer convergence threshold of 1.0000000E-03
OSCDFT: outer convergence test: FAILED

     total cpu time spent up to now is       73.9 secs

     total energy              =    -722.67400816 Ry
     estimated scf accuracy    <       0.00001280 Ry

     total magnetization       =     1.00 Bohr mag/cell
     absolute magnetization    =     1.48 Bohr mag/cell

     iteration #  9     ecut=    30.00 Ry     beta= 0.20
OSCDFT: main loop #    9; constraints are applied
OSCDFT: oscdft loop #    1

     total cpu time spent up to now is       73.9 secs
     Davidson diagonalization with overlap
     ethr =  1.25E-08,  avg # of iterations =  1.0
OSCDFT DEBUG: oscdft_new_ns from oscdft_electrons
 
OSCDFT: occupation #  1: T   UP 2(3D); tr[ns]:   1.8152
OSCDFT: eigenvalue
OSCDFT:    0.0040  0.2600  0.2600  0.3154  0.9758
OSCDFT: eigenvector (column)
OSCDFT:   -0.0000 -0.0000  0.0000 -0.0000 -1.0000
OSCDFT:   -0.0000 -0.6503 -0.7597  0.0000  0.0000
OSCDFT:   -0.0000 -0.7597  0.6503  0.0000  0.0000
OSCDFT:    0.0000  0.0000  0.0000  1.0000 -0.0000
OSCDFT:    1.0000 -0.0000 -0.0000 -0.0000 -0.0000
OSCDFT: matrix (before diag.)
OSCDFT:    0.9758 -0.0000 -0.0000  0.0000  0.0000
OSCDFT:   -0.0000  0.2600 -0.0000  0.0000  0.0000
OSCDFT:   -0.0000 -0.0000  0.2600  0.0000  0.0000
OSCDFT:    0.0000  0.0000  0.0000  0.3154 -0.0000
OSCDFT:    0.0000  0.0000  0.0000 -0.0000  0.0040
OSCDFT: occupation #  2: F DOWN 2(3D); tr[ns]:   1.1194
OSCDFT: eigenvalue
OSCDFT:    0.0000  0.2454  0.2454  0.2996  0.3289
OSCDFT: eigenvector (column)
OSCDFT:   -0.0000  0.0000  0.0000  0.0000  1.0000
OSCDFT:   -0.0000  0.6855  0.7280 -0.0000 -0.0000
OSCDFT:   -0.0000  0.7280 -0.6855 -0.0000 -0.0000
OSCDFT:    0.0000 -0.0000 -0.0000 -1.0000  0.0000
OSCDFT:    1.0000  0.0000  0.0000  0.0000  0.0000
OSCDFT: matrix (before diag.)
OSCDFT:    0.3289 -0.0000 -0.0000  0.0000  0.0000
OSCDFT:   -0.0000  0.2454 -0.0000  0.0000  0.0000
OSCDFT:   -0.0000 -0.0000  0.2454  0.0000  0.0000
OSCDFT:    0.0000  0.0000  0.0000  0.2996 -0.0000
OSCDFT:    0.0000  0.0000  0.0000 -0.0000  0.0000
OSCDFT: gradient
OSCDFT:    2.5260479E-05
OSCDFT: global_start_index mask
OSCDFT:    1.0000000E+00
OSCDFT: gamma:  5.0000000E-01
OSCDFT: current multipliers
OSCDFT:   -1.1169523E+00
OSCDFT: updated multipliers
OSCDFT:   -1.1169397E+00
OSCDFT: convergence test of 2.5260479E-05 vs. inner convergence threshold of 1.0000000E-01
OSCDFT: inner convergence test: PASSED
OSCDFT: multipliers converge, checking for final_conv_thr convergence
OSCDFT: convergence test of 2.5260479E-05 vs. outer convergence threshold of 1.0000000E-03
OSCDFT: outer convergence test: PASSED

     total cpu time spent up to now is       74.2 secs

     total energy              =    -722.67348381 Ry
     estimated scf accuracy    <       0.00000573 Ry

     total magnetization       =     1.00 Bohr mag/cell
     absolute magnetization    =     1.48 Bohr mag/cell

     iteration # 10     ecut=    30.00 Ry     beta= 0.20
OSCDFT: main loop #   10; constraints are applied
OSCDFT: oscdft loop #    1

     total cpu time spent up to now is       74.2 secs
     Davidson diagonalization with overlap
     ethr =  5.91E-09,  avg # of iterations =  1.5
OSCDFT DEBUG: oscdft_new_ns from oscdft_electrons
 
OSCDFT: occupation #  1: T   UP 2(3D); tr[ns]:   1.8154
OSCDFT: eigenvalue
OSCDFT:    0.0041  0.2600  0.2600  0.3154  0.9759
OSCDFT: eigenvector (column)
OSCDFT:   -0.0000  0.0000 -0.0000 -0.0000 -1.0000
OSCDFT:   -0.0000  0.6714  0.7411  0.0000  0.0000
OSCDFT:   -0.0000  0.7411 -0.6714  0.0000  0.0000
OSCDFT:    0.0000 -0.0000 -0.0000  1.0000 -0.0000
OSCDFT:    1.0000  0.0000  0.0000 -0.0000 -0.0000
OSCDFT: matrix (before diag.)
OSCDFT:    0.9759 -0.0000 -0.0000  0.0000  0.0000
OSCDFT:   -0.0000  0.2600 -0.0000  0.0000  0.0000
OSCDFT:   -0.0000 -0.0000  0.2600  0.0000  0.0000
OSCDFT:    0.0000  0.0000  0.0000  0.3154 -0.0000
OSCDFT:    0.0000  0.0000  0.0000 -0.0000  0.0041
OSCDFT: occupation #  2: F DOWN 2(3D); tr[ns]:   1.1195
OSCDFT: eigenvalue
OSCDFT:    0.0000  0.2454  0.2454  0.2997  0.3289
OSCDFT: eigenvector (column)
OSCDFT:   -0.0000  0.0000  0.0000  0.0000  1.0000
OSCDFT:   -0.0000  0.6445  0.7646 -0.0000 -0.0000
OSCDFT:   -0.0000  0.7646 -0.6445 -0.0000 -0.0000
OSCDFT:    0.0000 -0.0000 -0.0000 -1.0000  0.0000
OSCDFT:    1.0000  0.0000  0.0000  0.0000  0.0000
OSCDFT: matrix (before diag.)
OSCDFT:    0.3289 -0.0000 -0.0000  0.0000  0.0000
OSCDFT:   -0.0000  0.2454 -0.0000  0.0000  0.0000
OSCDFT:   -0.0000 -0.0000  0.2454  0.0000  0.0000
OSCDFT:    0.0000  0.0000  0.0000  0.2997 -0.0000
OSCDFT:    0.0000  0.0000  0.0000 -0.0000  0.0000
OSCDFT: gradient
OSCDFT:    1.2598270E-04
OSCDFT: global_start_index mask
OSCDFT:    1.0000000E+00
OSCDFT: gamma:  5.0000000E-01
OSCDFT: current multipliers
OSCDFT:   -1.1169397E+00
OSCDFT: updated multipliers
OSCDFT:   -1.1168767E+00
OSCDFT: convergence test of 1.2598270E-04 vs. inner convergence threshold of 1.0000000E-01
OSCDFT: inner convergence test: PASSED
OSCDFT: multipliers converge, checking for final_conv_thr convergence
OSCDFT: convergence test of 1.2598270E-04 vs. outer convergence threshold of 1.0000000E-03
OSCDFT: outer convergence test: PASSED
 
     Magnetic moment per site  (integrated on atomic sphere of radius R)
     atom   1 (R=0.197)  charge=  8.0988  magn=  0.1417
     atom   2 (R=0.206)  charge=  8.4830  magn=  0.6109
     atom   3 (R=0.197)  charge=  8.0796  magn=  0.0740
     atom   4 (R=0.197)  charge=  8.0797  magn=  0.0740
     atom   5 (R=0.197)  charge=  5.1659  magn= -0.0067
     atom   6 (R=0.197)  charge=  5.1308  magn= -0.0667
     atom   7 (R=0.197)  charge=  5.1484  magn= -0.0199
     atom   8 (R=0.197)  charge=  5.1660  magn= -0.0100
     atom   9 (R=0.197)  charge=  5.1484  magn= -0.0199
     atom  10 (R=0.197)  charge=  5.1660  magn= -0.0100
     atom  11 (R=0.197)  charge=  5.1308  magn= -0.0667
     atom  12 (R=0.197)  charge=  5.1659  magn= -0.0067

     total cpu time spent up to now is       74.5 secs

     End of self-consistent calculation
OSCDFT DEBUG: oscdft_new_ns from oscdft_print_ns
 
OSCDFT: occupation #  1: T   UP 2(3D); tr[ns]:   1.8157
OSCDFT: eigenvalue
OSCDFT:    0.0040  0.2600  0.2600  0.3154  0.9763
OSCDFT: eigenvector (column)
OSCDFT:   -0.0000  0.0000 -0.0000 -0.0000 -1.0000
OSCDFT:   -0.0000  0.6510  0.7591  0.0000  0.0000
OSCDFT:   -0.0000  0.7591 -0.6510  0.0000  0.0000
OSCDFT:    0.0000 -0.0000 -0.0000  1.0000 -0.0000
OSCDFT:    1.0000  0.0000  0.0000 -0.0000 -0.0000
OSCDFT: matrix (before diag.)
OSCDFT:    0.9763 -0.0000 -0.0000  0.0000  0.0000
OSCDFT:   -0.0000  0.2600 -0.0000  0.0000  0.0000
OSCDFT:   -0.0000 -0.0000  0.2600  0.0000  0.0000
OSCDFT:    0.0000  0.0000  0.0000  0.3154 -0.0000
OSCDFT:    0.0000  0.0000  0.0000 -0.0000  0.0040
OSCDFT: occupation #  2: F DOWN 2(3D); tr[ns]:   1.1195
OSCDFT: eigenvalue
OSCDFT:    0.0000  0.2454  0.2454  0.2997  0.3289
OSCDFT: eigenvector (column)
OSCDFT:   -0.0000 -0.0000 -0.0000  0.0000  1.0000
OSCDFT:   -0.0000 -0.5691 -0.8223 -0.0000 -0.0000
OSCDFT:   -0.0000 -0.8223  0.5691 -0.0000 -0.0000
OSCDFT:    0.0000  0.0000  0.0000 -1.0000  0.0000
OSCDFT:    1.0000 -0.0000 -0.0000  0.0000  0.0000
OSCDFT: matrix (before diag.)
OSCDFT:    0.3289 -0.0000 -0.0000  0.0000  0.0000
OSCDFT:   -0.0000  0.2454 -0.0000  0.0000  0.0000
OSCDFT:   -0.0000 -0.0000  0.2454  0.0000  0.0000
OSCDFT:    0.0000  0.0000  0.0000  0.2997 -0.0000
OSCDFT:    0.0000  0.0000  0.0000 -0.0000  0.0000

 ------ SPIN UP ------------


          k = 0.0000 0.0000 0.0000 (  1260 PWs)   bands (ev):

   -48.9120 -48.8886 -48.8482 -47.0890 -25.3202 -25.2867 -25.2867 -25.2014
   -25.2013 -25.1496 -25.1496 -25.1155 -24.9505 -23.5740 -23.5740 -23.1380
   -12.6319 -10.0413  -9.3248  -9.0908  -8.7645  -8.5041  -8.4517  -7.8498
    -1.7141   3.0775   3.0775   3.2336   3.6635   3.7250   3.7250   4.6025
     5.1016   5.1595   5.1595   5.7073   5.7073   6.5183   6.5223   6.8289
     6.8289   7.2728   7.4550   7.4550   7.6738   7.6738   8.1654   8.1654
     9.3179   9.3755   9.7415   9.9661  11.0812  11.5952  11.5953  12.1257
    12.1257  12.5231  12.5231

 ------ SPIN DOWN ----------


          k = 0.0000 0.0000 0.0000 (  1260 PWs)   bands (ev):

   -48.7661 -48.7605 -48.6163 -46.1883 -25.2555 -25.1286 -25.1285 -25.0577
   -25.0338 -25.0337 -24.8840 -24.8731 -24.8731 -23.0284 -23.0284 -21.8147
   -10.0689  -9.3344  -9.1435  -8.8131  -8.5165  -8.4822  -8.1628  -7.9109
     3.1061   3.1061   3.1477   3.6704   3.7341   3.7341   4.0203   4.5768
     5.1787   5.1787   5.3932   5.7078   5.7078   6.4643   6.4953   6.8332
     6.8332   7.1846   7.4465   7.4465   7.6601   7.6601   8.1386   8.1386
     9.7344   9.9731  10.3871  11.6170  11.7085  11.7085  12.1883  12.1883
    12.4594  12.6274  12.6274

     the Fermi energy is     9.3467 ev

!    total energy              =    -722.67353343 Ry
     estimated scf accuracy    <       0.00000009 Ry
     smearing contrib. (-TS)   =      -0.00539662 Ry
     internal energy E=F+TS    =    -722.66813680 Ry
     OSCDFT energy             =       1.08984829 Ry

     total magnetization       =     1.00 Bohr mag/cell
     absolute magnetization    =     1.48 Bohr mag/cell

     convergence has been achieved in  10 iterations
OSCDFT DEBUG: oscdft_new_ns from oscdft_get_forces

     Forces acting on atoms (cartesian axes, Ry/au):

     atom    1 type  1   force =     0.00000000    0.00000000    0.00000000
     atom    2 type  2   force =     0.00000000    0.00000000    0.00000000
     atom    3 type  1   force =     0.00000000    0.00000000   -0.00033946
     atom    4 type  1   force =     0.00000000    0.00000000    0.00033946
     atom    5 type  3   force =     0.00000000    0.00000000   -0.00070342
     atom    6 type  3   force =     0.00000000    0.00000000   -0.00021284
     atom    7 type  3   force =     0.00000000    0.00000000   -0.00043285
     atom    8 type  3   force =     0.00000000    0.00000000    0.00036261
     atom    9 type  3   force =     0.00000000    0.00000000    0.00043285
     atom   10 type  3   force =     0.00000000    0.00000000   -0.00036261
     atom   11 type  3   force =     0.00000000    0.00000000    0.00021284
     atom   12 type  3   force =     0.00000000    0.00000000    0.00070342

     OS-CDFT contribution to forces:
     atom    1 type  1   oscdft force =     0.00000000    0.00000000    0.00000000
     atom    2 type  2   oscdft force =     0.00000000    0.00000000    0.00000000
     atom    3 type  1   oscdft force =     0.00000000    0.00000000   -0.00003040
     atom    4 type  1   oscdft force =     0.00000000    0.00000000    0.00003040
     atom    5 type  3   oscdft force =     0.00000000    0.00000000   -0.00000132
     atom    6 type  3   oscdft force =     0.00000000    0.00000000    0.00127891
     atom    7 type  3   oscdft force =     0.00000000    0.00000000   -0.00103490
     atom    8 type  3   oscdft force =     0.00000000    0.00000000   -0.00000092
     atom    9 type  3   oscdft force =     0.00000000    0.00000000    0.00103490
     atom   10 type  3   oscdft force =     0.00000000    0.00000000    0.00000092
     atom   11 type  3   oscdft force =     0.00000000    0.00000000   -0.00127891
     atom   12 type  3   oscdft force =     0.00000000    0.00000000    0.00000132

     Total force =     0.001396     Total SCF correction =     0.000529
     SCF correction compared to forces is large: reduce conv_thr to get better values

     Damped Dynamics: convergence achieved in   8 steps

     End of damped dynamics calculation

     Final energy =    -722.6735334273 Ry

Begin final coordinates
     new unit-cell volume =    916.98180 a.u.^3 (   135.88268 Ang^3 )
     density =      3.90393 g/cm^3

CELL_PARAMETERS (alat=  7.14316475)
   1.000000000   0.000000000   0.000000000
   0.000000000   1.000000000   0.000000000
   0.000000000   0.000000000   2.515873016

ATOMIC_POSITIONS (angstrom)
Ti              -0.0000000000       -0.0000000000       -0.0000000000
Ti1              1.8900000000        1.8900000000        4.7550000000
Ti              -0.0000000000        1.8900000000        2.3343170435
Ti               1.8900000000       -0.0000000000        7.1756829565
O               -0.0000000000       -0.0000000000        1.8207771176
O                1.8900000000        1.8900000000        6.6701009555
O               -0.0000000000        1.8900000000        4.1592043182
O                1.8900000000       -0.0000000000        9.0003082087
O                1.8900000000       -0.0000000000        5.3507956818
O               -0.0000000000        1.8900000000        0.5096917913
O                1.8900000000        1.8900000000        2.8398990445
O               -0.0000000000       -0.0000000000        7.6892228824
End final coordinates



     Writing all to output data dir ./anatase.save/
 
     init_run     :      0.14s CPU      0.21s WALL (       1 calls)
     electrons    :     60.07s CPU     71.81s WALL (       9 calls)
     update_pot   :      0.18s CPU      0.20s WALL (       8 calls)
     forces       :      1.43s CPU      1.61s WALL (       9 calls)

     Called by init_run:
     wfcinit      :      0.01s CPU      0.03s WALL (       1 calls)
     potinit      :      0.01s CPU      0.03s WALL (       1 calls)
     hinit0       :      0.04s CPU      0.06s WALL (       1 calls)

     Called by electrons:
     c_bands      :     13.64s CPU     18.99s WALL (     221 calls)
     sum_band     :     26.28s CPU     28.97s WALL (     220 calls)
     v_of_rho     :      3.95s CPU      4.75s WALL (     229 calls)
     newd         :     15.23s CPU     17.79s WALL (     229 calls)
     mix_rho      :      0.76s CPU      0.94s WALL (     220 calls)

     Called by c_bands:
     init_us_2    :      0.26s CPU      0.31s WALL (     956 calls)
     init_us_2:cp :      0.26s CPU      0.31s WALL (     956 calls)
     regterg      :     12.99s CPU     18.28s WALL (     442 calls)

     Called by *egterg:
     rdiaghg      :      2.87s CPU      3.26s WALL (    1774 calls)
     h_psi        :      7.03s CPU     11.33s WALL (    1792 calls)
     s_psi        :      0.37s CPU      0.48s WALL (    1846 calls)
     g_psi        :      0.02s CPU      0.02s WALL (    1348 calls)

     Called by h_psi:
     h_psi:calbec :      0.84s CPU      1.40s WALL (    1792 calls)
     vloc_psi     :      5.26s CPU      8.58s WALL (    1792 calls)
     add_vuspsi   :      0.56s CPU      0.83s WALL (    1792 calls)

     General routines
     calbec       :      1.32s CPU      2.13s WALL (    4814 calls)
     fft          :      2.16s CPU      3.38s WALL (    4139 calls)
     ffts         :      0.13s CPU      0.19s WALL (     678 calls)
     fftw         :      5.70s CPU      9.37s WALL (   76680 calls)
     interpolate  :      0.36s CPU      0.47s WALL (     458 calls)
 
     Parallel routines

     OSCDFT routines
     oscdft_init  :      0.00s CPU      0.00s WALL (       1 calls)
     oscdft_wfcO  :      0.08s CPU      0.10s WALL (      18 calls)
     oscdft_ns    :      0.10s CPU      0.10s WALL (     234 calls)
     oscdft_hdiag :      0.01s CPU      0.01s WALL (     216 calls)
     oscdft_hpsi  :      0.29s CPU      0.42s WALL (    1754 calls)
     oscdft_force :      0.13s CPU      0.17s WALL (       9 calls)
 
     PWSCF        :   1m 2.57s CPU   1m14.72s WALL

 
   This run was terminated on:   4:11:42  19Oct2023            

=------------------------------------------------------------------------------=
   JOB DONE.
=------------------------------------------------------------------------------=
