                                                                                      
                                       ``:oss/                                        
                           `.+s+.     .+ys--yh+     `./ss+.                           
                          -sh//yy+`   +yy   +yy    -+h+-oyy                           
                          -yh- .oyy/.-sh.   .syo-.:sy-  /yh                           
                 `.-.`    `yh+   -oyyyo.     `/syys:    oys      `.`                  
               `/+ssys+-` `sh+      `                   oys`   .:osyo`                
               -yh- ./syyooyo`                          .sys+/oyo--yh/                
               `yy+    .-:-.                             `-/+/:`  -sh-                
                /yh.                                              oys                 
          ``..---hho---------`   .---------..`      `.-----.`    -hd+---.             
       `./osmNMMMMMMMMMMMMMMMs. +NNMMMMMMMMNNmh+.   yNMMMMMNm-  oNMMMMMNmo++:`        
       +sy--/sdMMMhyyyyyyyNMMh- .oyNMMmyyyyyhNMMm+` -yMMMdyyo:` .oyyNMMNhs+syy`       
       -yy/   /MMM+.`-+/``mMMy-   `mMMh:`````.dMMN:` `MMMy-`-dhhy```mMMy:``+hs        
        -yy+` /MMMo:-mMM+`-oo/.    mMMh:     `dMMN/`  dMMm:`dMMMMy..MMMo-.+yo`        
         .sys`/MMMMNNMMMs-         mMMmyooooymMMNo:   oMMM/sMMMMMM++MMN//oh:          
          `sh+/MMMhyyMMMs- `-`     mMMMMMMMMMNmy+-`   -MMMhMMMsmMMmdMMd/yy+           
    `-/+++oyy-/MMM+.`/hh/.`mNm:`   mMMd+/////:-.`      NMMMMMd/:NMMMMMy:/yyo/:.`      
   +os+//:-..-oMMMo:--:::-/MMMo. .-mMMd+---`           hMMMMN+. oMMMMMo. `-+osyso:`   
   syo     `mNMMMMMNNNNNNNNMMMo.oNNMMMMMNNNN:`         +MMMMs:`  dMMMN/`     ``:syo   
   /yh`     :syyyyyyyyyyyyyyyy+.`+syyyyyyyyo:`         .oyys:`   .oyys:`        +yh   
   -yh-        ````````````````    `````````              ``        ``          oys   
   -+h/------------------------::::::::://////++++++++++++++++++++++///////::::/yd:   
   shdddddddddddddddddddddddddddddhhhhhhhhyyyyyssssssssssssssssyyyyyyyhhhhhhhddddh`   
                                                                                      
  S. Ponce, E. R. Margine, C. Verdi, and F. Giustino,                                 
                                                Comput. Phys. Commun. 209, 116 (2016) 
                                                                                      

     Program EPW v.5.3.0 starts on 16Nov2020 at 12: 7:37 

     This program is part of the open-source Quantum ESPRESSO suite
     for quantum simulation of materials; please cite
         "P. Giannozzi et al., J. Phys.:Condens. Matter 21 395502 (2009);
         "P. Giannozzi et al., J. Phys.:Condens. Matter 29 465901 (2017);
          URL http://www.quantum-espresso.org", 
     in publications or presentations arising from this work. More details at
     http://www.quantum-espresso.org/quote

     Parallel version (MPI), running on     4 processors

     MPI processes distributed on     1 nodes
     K-points division:     npool     =       4
     Reading input from epw13.in

     Reading supplied temperature list.
                      
     ------------------------------------------------------------------------ 
                   RESTART - RESTART - RESTART - RESTART                         
     Restart is done without reading PWSCF save file.                  
     Be aware that some consistency checks are therefore not done.                  
     ------------------------------------------------------------------------ 
                      

     --                                                                         

     bravais-lattice index     =            0
     lattice parameter (a_0)   =       0.0000  a.u.
     unit-cell volume          =       0.0000 (a.u.)^3
     number of atoms/cell      =            0
     number of atomic types    =            0
     kinetic-energy cut-off    =       0.0000  Ry
     charge density cut-off    =       0.0000  Ry
     Exchange-correlation= not set
                           (  -1  -1  -1  -1  -1  -1  -1)


     celldm(1)=    0.00000  celldm(2)=    0.00000  celldm(3)=    0.00000
     celldm(4)=    0.00000  celldm(5)=    0.00000  celldm(6)=    0.00000

     crystal axes: (cart. coord. in units of a_0)
               a(1) = (  0.0000  0.0000  0.0000 )  
               a(2) = (  0.0000  0.0000  0.0000 )  
               a(3) = (  0.0000  0.0000  0.0000 )  

     reciprocal axes: (cart. coord. in units 2 pi/a_0)
               b(1) = (  0.0000  0.0000  0.0000 )  
               b(2) = (  0.0000  0.0000  0.0000 )  
               b(3) = (  0.0000  0.0000  0.0000 )  


     Atoms inside the unit cell: 

   Cartesian axes

     site n.  atom      mass           positions (a_0 units)

 
     No symmetry!

     G cutoff =    0.0000  (      0 G-vectors)     FFT grid: (  0,  0,  0)
     number of k points=    0
                       cart. coord. in units 2pi/a_0
     EPW          :      0.00s CPU      0.00s WALL

     EPW          :      0.00s CPU      0.00s WALL


     -------------------------------------------------------------------
     Using diam.ukk from disk
     -------------------------------------------------------------------

     Symmetries of Bravais lattice:  48
     Symmetries of crystal:          48

     Do not need to read .epb files; read .fmt files

     Use zone-centred Wigner-Seitz cells 
     Number of WS vectors for electrons       43
     Number of WS vectors for phonons       43
     Number of WS vectors for electron-phonon       43
     Maximum number of cores for efficient parallelization      258
     Results may improve by using use_ws == .TRUE. 

     Reading Hamiltonian, Dynamical matrix and EP vertex in Wann rep from file


     Finished reading Wann rep data from file

     ===================================================================
     Memory usage:  VmHWM =        24Mb
                   VmPeak =       586Mb
     ===================================================================
     
     Using uniform q-mesh:    6   6   6
     Size of q point mesh for interpolation:        216
     Using uniform k-mesh:    6   6   6
     Size of k point mesh for interpolation:        432
     Max number of k points per pool:              108

     Fermi energy coarse grid =  14.009579 eV

     Fermi energy is calculated from the fine k-mesh: Ef =  13.576268 eV

     Warning: check if difference with Fermi level fine grid makes sense

     ===================================================================

              ibndmin =     1  ebndmin =    -1.003 eV
              ibndmax =     4  ebndmax =    13.891 eV


     Number of ep-matrix elements per pool :         5184 ~=   40.50 Kb (@ 8 bytes/ DP)
      
     A selecq.fmt file was found but re-created because selecqread == .FALSE. 
     Number selected, total            100            100
     Number selected, total            200            200
     We only need to compute      216 q-points
      

     ===================================================================
     Phonon (Imaginary) Self-Energy in the Migdal Approximation
     ===================================================================


     Fermi Surface thickness =  15.000000 eV

     Golden Rule strictly enforced with T =   0.025852 eV
     Gaussian Broadening:   1.000000 eV, ngauss=   1
     DOS =  0.055485 states/spin/eV/Unit Cell at Ef= 13.576268 eV

     ismear =     1 iq =       1 coord.:   0.00000  0.00000  0.00000 wt:   0.00463 Temp:  300.000K
     -------------------------------------------------------------------
     lambda___(   1 )=       0.000000   gamma___=       0.000000 meV   omega=      0.0000 meV
     lambda_tr(   1 )=       0.000000   gamma_tr=       0.000000 meV   omega=      0.0000 meV
     lambda___(   2 )=       0.000000   gamma___=       0.000000 meV   omega=      0.0000 meV
     lambda_tr(   2 )=       0.000000   gamma_tr=       0.000000 meV   omega=      0.0000 meV
     lambda___(   3 )=       0.000000   gamma___=       0.000000 meV   omega=      0.0000 meV
     lambda_tr(   3 )=       0.000000   gamma_tr=       0.000000 meV   omega=      0.0000 meV
     lambda___(   4 )=       0.000000   gamma___=       0.000000 meV   omega=    115.5529 meV
     lambda_tr(   4 )=       0.000000   gamma_tr=       0.000000 meV   omega=    115.5529 meV
     lambda___(   5 )=       0.000000   gamma___=       0.000000 meV   omega=    115.5529 meV
     lambda_tr(   5 )=       0.000000   gamma_tr=       0.000000 meV   omega=    115.5529 meV
     lambda___(   6 )=       0.000000   gamma___=       0.000000 meV   omega=    115.5529 meV
     lambda_tr(   6 )=       0.000000   gamma_tr=       0.000000 meV   omega=    115.5529 meV
     lambda___( tot )=       0.000000
     lambda_tr( tot )=       0.000000
     Gaussian Broadening:   1.010000 eV, ngauss=   1
     DOS =  0.055249 states/spin/eV/Unit Cell at Ef= 13.578521 eV

     ismear =     2 iq =       1 coord.:   0.00000  0.00000  0.00000 wt:   0.00463 Temp:  300.000K
     -------------------------------------------------------------------
     lambda___(   1 )=       0.000000   gamma___=       0.000000 meV   omega=      0.0000 meV
     lambda_tr(   1 )=       0.000000   gamma_tr=       0.000000 meV   omega=      0.0000 meV
     lambda___(   2 )=       0.000000   gamma___=       0.000000 meV   omega=      0.0000 meV
     lambda_tr(   2 )=       0.000000   gamma_tr=       0.000000 meV   omega=      0.0000 meV
     lambda___(   3 )=       0.000000   gamma___=       0.000000 meV   omega=      0.0000 meV
     lambda_tr(   3 )=       0.000000   gamma_tr=       0.000000 meV   omega=      0.0000 meV
     lambda___(   4 )=       0.000000   gamma___=       0.000000 meV   omega=    115.5529 meV
     lambda_tr(   4 )=       0.000000   gamma_tr=       0.000000 meV   omega=    115.5529 meV
     lambda___(   5 )=       0.000000   gamma___=       0.000000 meV   omega=    115.5529 meV
     lambda_tr(   5 )=       0.000000   gamma_tr=       0.000000 meV   omega=    115.5529 meV
     lambda___(   6 )=       0.000000   gamma___=       0.000000 meV   omega=    115.5529 meV
     lambda_tr(   6 )=       0.000000   gamma_tr=       0.000000 meV   omega=    115.5529 meV
     lambda___( tot )=       0.000000
     lambda_tr( tot )=       0.000000

     ===================================================================
     Phonon Spectral Function Self-Energy in the Migdal Approximation (on the fly)
     ===================================================================


     Fermi Surface thickness =  15.000000 eV

     Golden Rule strictly enforced with T =   0.025852 eV
     Gaussian Broadening:   1.000000 eV, ngauss=   1
     DOS =  0.055485 states/spin/eV/Unit Cell at Ef= 13.576268 eV


     Real and Imaginary part of the phonon self-energy (omega=0) without gamma0.
     Omega(   1 )=   0.0000 eV   Re[Pi]=       0.000000 meV Im[Pi]=       0.000000 meV
     Omega(   2 )=   0.0000 eV   Re[Pi]=       0.000000 meV Im[Pi]=       0.000000 meV
     Omega(   3 )=   0.0000 eV   Re[Pi]=       0.000000 meV Im[Pi]=       0.000000 meV
     Omega(   4 )=   0.1156 eV   Re[Pi]=      -0.086939 meV Im[Pi]=      -0.000000 meV
     Omega(   5 )=   0.1156 eV   Re[Pi]=      -0.086939 meV Im[Pi]=       0.000000 meV
     Omega(   6 )=   0.1156 eV   Re[Pi]=      -0.086939 meV Im[Pi]=      -0.000000 meV
     Number of (k,k+q) pairs on the Fermi surface:      216 out of      216
     -------------------------------------------------------------------


     ismear =     1 iq =       2 coord.:   0.00000  0.00000  0.16667 wt:   0.00463 Temp:  300.000K
     -------------------------------------------------------------------
     lambda___(   1 )=       0.205823   gamma___=       0.040551 meV   omega=     33.6194 meV
     lambda_tr(   1 )=       0.205824   gamma_tr=       0.040551 meV   omega=     33.6194 meV
     lambda___(   2 )=       0.184411   gamma___=       0.039790 meV   omega=     35.1829 meV
     lambda_tr(   2 )=       0.184410   gamma_tr=       0.039790 meV   omega=     35.1829 meV
     lambda___(   3 )=       0.104383   gamma___=       0.064167 meV   omega=     59.3852 meV
     lambda_tr(   3 )=       0.104385   gamma_tr=       0.064168 meV   omega=     59.3852 meV
     lambda___(   4 )=       0.945042   gamma___=       2.646295 meV   omega=    126.7451 meV
     lambda_tr(   4 )=       0.945041   gamma_tr=       2.646293 meV   omega=    126.7451 meV
     lambda___(   5 )=       0.965975   gamma___=       2.722957 meV   omega=    127.1672 meV
     lambda_tr(   5 )=       0.965977   gamma_tr=       2.722964 meV   omega=    127.1672 meV
     lambda___(   6 )=       0.261360   gamma___=       0.831535 meV   omega=    135.1009 meV
     lambda_tr(   6 )=       0.261362   gamma_tr=       0.831542 meV   omega=    135.1009 meV
     lambda___( tot )=       2.666994
     lambda_tr( tot )=       2.667000

     ismear =     2 iq =       2 coord.:   0.00000  0.00000  0.16667 wt:   0.00463 Temp:  300.000K
     -------------------------------------------------------------------
     lambda___(   1 )=       0.204970   gamma___=       0.040211 meV   omega=     33.6194 meV
     lambda_tr(   1 )=       0.204971   gamma_tr=       0.040212 meV   omega=     33.6194 meV
     lambda___(   2 )=       0.183677   gamma___=       0.039464 meV   omega=     35.1829 meV
     lambda_tr(   2 )=       0.183676   gamma_tr=       0.039463 meV   omega=     35.1829 meV
     lambda___(   3 )=       0.102070   gamma___=       0.062478 meV   omega=     59.3852 meV
     lambda_tr(   3 )=       0.102071   gamma_tr=       0.062479 meV   omega=     59.3852 meV
     lambda___(   4 )=       0.927842   gamma___=       2.587102 meV   omega=    126.7451 meV
     lambda_tr(   4 )=       0.927841   gamma_tr=       2.587100 meV   omega=    126.7451 meV
     lambda___(   5 )=       0.948904   gamma___=       2.663484 meV   omega=    127.1672 meV
     lambda_tr(   5 )=       0.948907   gamma_tr=       2.663492 meV   omega=    127.1672 meV
     lambda___(   6 )=       0.255694   gamma___=       0.810055 meV   omega=    135.1009 meV
     lambda_tr(   6 )=       0.255696   gamma_tr=       0.810062 meV   omega=    135.1009 meV
     lambda___( tot )=       2.623157
     lambda_tr( tot )=       2.623163


     Real and Imaginary part of the phonon self-energy (omega=0) without gamma0.
     Omega(   1 )=   0.0336 eV   Re[Pi]=      -0.218862 meV Im[Pi]=      -0.019992 meV
     Omega(   2 )=   0.0352 eV   Re[Pi]=      -0.209884 meV Im[Pi]=      -0.019979 meV
     Omega(   3 )=   0.0594 eV   Re[Pi]=      -0.526614 meV Im[Pi]=       0.027101 meV
     Omega(   4 )=   0.1267 eV   Re[Pi]=      -9.253081 meV Im[Pi]=       0.603195 meV
     Omega(   5 )=   0.1272 eV   Re[Pi]=      -9.277908 meV Im[Pi]=       0.546156 meV
     Omega(   6 )=   0.1351 eV   Re[Pi]=      -6.053372 meV Im[Pi]=       0.362551 meV
     Number of (k,k+q) pairs on the Fermi surface:      216 out of      216
     -------------------------------------------------------------------


     ismear =     1 iq =       3 coord.:   0.00000  0.00000  0.33333 wt:   0.00463 Temp:  300.000K
     -------------------------------------------------------------------
     lambda___(   1 )=       0.000442   gamma___=       0.000292 meV   omega=     61.6015 meV
     lambda_tr(   1 )=       0.000442   gamma_tr=       0.000292 meV   omega=     61.6015 meV
     lambda___(   2 )=       0.000442   gamma___=       0.000292 meV   omega=     61.6015 meV
     lambda_tr(   2 )=       0.000442   gamma_tr=       0.000292 meV   omega=     61.6015 meV
     lambda___(   3 )=       0.000970   gamma___=       0.002033 meV   omega=    109.6615 meV
     lambda_tr(   3 )=       0.000970   gamma_tr=       0.002033 meV   omega=    109.6615 meV
     lambda___(   4 )=       0.015641   gamma___=       0.052713 meV   omega=    139.0488 meV
     lambda_tr(   4 )=       0.015641   gamma_tr=       0.052713 meV   omega=    139.0488 meV
     lambda___(   5 )=       0.015641   gamma___=       0.052713 meV   omega=    139.0488 meV
     lambda_tr(   5 )=       0.015641   gamma_tr=       0.052713 meV   omega=    139.0488 meV
     lambda___(   6 )=       0.004501   gamma___=       0.018866 meV   omega=    155.0731 meV
     lambda_tr(   6 )=       0.004501   gamma_tr=       0.018866 meV   omega=    155.0731 meV
     lambda___( tot )=       0.037636
     lambda_tr( tot )=       0.037636

     ismear =     2 iq =       3 coord.:   0.00000  0.00000  0.33333 wt:   0.00463 Temp:  300.000K
     -------------------------------------------------------------------
     lambda___(   1 )=       0.000483   gamma___=       0.000318 meV   omega=     61.6015 meV
     lambda_tr(   1 )=       0.000483   gamma_tr=       0.000318 meV   omega=     61.6015 meV
     lambda___(   2 )=       0.000483   gamma___=       0.000318 meV   omega=     61.6015 meV
     lambda_tr(   2 )=       0.000483   gamma_tr=       0.000318 meV   omega=     61.6015 meV
     lambda___(   3 )=       0.001058   gamma___=       0.002208 meV   omega=    109.6615 meV
     lambda_tr(   3 )=       0.001058   gamma_tr=       0.002208 meV   omega=    109.6615 meV
     lambda___(   4 )=       0.017044   gamma___=       0.057200 meV   omega=    139.0488 meV
     lambda_tr(   4 )=       0.017044   gamma_tr=       0.057200 meV   omega=    139.0488 meV
     lambda___(   5 )=       0.017044   gamma___=       0.057200 meV   omega=    139.0488 meV
     lambda_tr(   5 )=       0.017044   gamma_tr=       0.057200 meV   omega=    139.0488 meV
     lambda___(   6 )=       0.004902   gamma___=       0.020460 meV   omega=    155.0731 meV
     lambda_tr(   6 )=       0.004902   gamma_tr=       0.020460 meV   omega=    155.0731 meV
     lambda___( tot )=       0.041014
     lambda_tr( tot )=       0.041014


     Real and Imaginary part of the phonon self-energy (omega=0) without gamma0.
     Omega(   1 )=   0.0616 eV   Re[Pi]=      -0.096341 meV Im[Pi]=       0.000000 meV
     Omega(   2 )=   0.0616 eV   Re[Pi]=      -0.096341 meV Im[Pi]=       0.000000 meV
     Omega(   3 )=   0.1097 eV   Re[Pi]=      -0.410093 meV Im[Pi]=       0.000000 meV
     Omega(   4 )=   0.1390 eV   Re[Pi]=      -5.117537 meV Im[Pi]=      -0.000000 meV
     Omega(   5 )=   0.1390 eV   Re[Pi]=      -5.117537 meV Im[Pi]=      -0.000000 meV
     Omega(   6 )=   0.1551 eV   Re[Pi]=      -1.966321 meV Im[Pi]=      -0.000000 meV
     Number of (k,k+q) pairs on the Fermi surface:      216 out of      216
     -------------------------------------------------------------------


     ismear =     1 iq =       4 coord.:   0.00000  0.00000  0.50000 wt:   0.00463 Temp:  300.000K
     -------------------------------------------------------------------
     lambda___(   1 )=      -0.000000   gamma___=      -0.000000 meV   omega=     71.2586 meV
     lambda_tr(   1 )=      -0.000000   gamma_tr=      -0.000000 meV   omega=     71.2586 meV
     lambda___(   2 )=       0.000000   gamma___=       0.000000 meV   omega=     72.6047 meV
     lambda_tr(   2 )=       0.000000   gamma_tr=       0.000000 meV   omega=     72.6047 meV
     lambda___(   3 )=      -0.000000   gamma___=      -0.000000 meV   omega=    131.6830 meV
     lambda_tr(   3 )=      -0.000000   gamma_tr=      -0.000000 meV   omega=    131.6830 meV
     lambda___(   4 )=       0.000148   gamma___=       0.000511 meV   omega=    140.4826 meV
     lambda_tr(   4 )=       0.000148   gamma_tr=       0.000511 meV   omega=    140.4826 meV
     lambda___(   5 )=       0.000147   gamma___=       0.000510 meV   omega=    141.1701 meV
     lambda_tr(   5 )=       0.000147   gamma_tr=       0.000510 meV   omega=    141.1701 meV
     lambda___(   6 )=       0.000049   gamma___=       0.000209 meV   omega=    156.8495 meV
     lambda_tr(   6 )=       0.000049   gamma_tr=       0.000209 meV   omega=    156.8495 meV
     lambda___( tot )=       0.000344
     lambda_tr( tot )=       0.000344

     ismear =     2 iq =       4 coord.:   0.00000  0.00000  0.50000 wt:   0.00463 Temp:  300.000K
     -------------------------------------------------------------------
     lambda___(   1 )=      -0.000000   gamma___=      -0.000000 meV   omega=     71.2586 meV
     lambda_tr(   1 )=      -0.000000   gamma_tr=      -0.000000 meV   omega=     71.2586 meV
     lambda___(   2 )=       0.000000   gamma___=       0.000000 meV   omega=     72.6047 meV
     lambda_tr(   2 )=       0.000000   gamma_tr=       0.000000 meV   omega=     72.6047 meV
     lambda___(   3 )=      -0.000000   gamma___=      -0.000000 meV   omega=    131.6830 meV
     lambda_tr(   3 )=      -0.000000   gamma_tr=      -0.000000 meV   omega=    131.6830 meV
     lambda___(   4 )=       0.000178   gamma___=       0.000609 meV   omega=    140.4826 meV
     lambda_tr(   4 )=       0.000178   gamma_tr=       0.000609 meV   omega=    140.4826 meV
     lambda___(   5 )=       0.000176   gamma___=       0.000608 meV   omega=    141.1701 meV
     lambda_tr(   5 )=       0.000176   gamma_tr=       0.000608 meV   omega=    141.1701 meV
     lambda___(   6 )=       0.000058   gamma___=       0.000250 meV   omega=    156.8495 meV
     lambda_tr(   6 )=       0.000058   gamma_tr=       0.000250 meV   omega=    156.8495 meV
     lambda___( tot )=       0.000412
     lambda_tr( tot )=       0.000412


     Real and Imaginary part of the phonon self-energy (omega=0) without gamma0.
     Omega(   1 )=   0.0713 eV   Re[Pi]=      -0.030408 meV Im[Pi]=       0.000000 meV
     Omega(   2 )=   0.0726 eV   Re[Pi]=      -0.030908 meV Im[Pi]=       0.000000 meV
     Omega(   3 )=   0.1317 eV   Re[Pi]=      -0.316972 meV Im[Pi]=       0.000000 meV
     Omega(   4 )=   0.1405 eV   Re[Pi]=      -3.721593 meV Im[Pi]=      -0.000004 meV
     Omega(   5 )=   0.1412 eV   Re[Pi]=      -3.721212 meV Im[Pi]=      -0.000001 meV
     Omega(   6 )=   0.1568 eV   Re[Pi]=      -1.241397 meV Im[Pi]=      -0.000005 meV
     Number of (k,k+q) pairs on the Fermi surface:      216 out of      216
     -------------------------------------------------------------------


     ismear =     1 iq =       5 coord.:   0.00000  0.00000  0.66667 wt:   0.00463 Temp:  300.000K
     -------------------------------------------------------------------
     lambda___(   1 )=       0.000442   gamma___=       0.000292 meV   omega=     61.6015 meV
     lambda_tr(   1 )=       0.000442   gamma_tr=       0.000292 meV   omega=     61.6015 meV
     lambda___(   2 )=       0.000442   gamma___=       0.000292 meV   omega=     61.6015 meV
     lambda_tr(   2 )=       0.000442   gamma_tr=       0.000292 meV   omega=     61.6015 meV
     lambda___(   3 )=       0.000970   gamma___=       0.002033 meV   omega=    109.6615 meV
     lambda_tr(   3 )=       0.000970   gamma_tr=       0.002033 meV   omega=    109.6615 meV
     lambda___(   4 )=       0.015641   gamma___=       0.052713 meV   omega=    139.0488 meV
     lambda_tr(   4 )=       0.015641   gamma_tr=       0.052713 meV   omega=    139.0488 meV
     lambda___(   5 )=       0.015641   gamma___=       0.052713 meV   omega=    139.0488 meV
     lambda_tr(   5 )=       0.015641   gamma_tr=       0.052713 meV   omega=    139.0488 meV
     lambda___(   6 )=       0.004501   gamma___=       0.018866 meV   omega=    155.0731 meV
     lambda_tr(   6 )=       0.004501   gamma_tr=       0.018866 meV   omega=    155.0731 meV
     lambda___( tot )=       0.037636
     lambda_tr( tot )=       0.037636

     ismear =     2 iq =       5 coord.:   0.00000  0.00000  0.66667 wt:   0.00463 Temp:  300.000K
     -------------------------------------------------------------------
     lambda___(   1 )=       0.000483   gamma___=       0.000318 meV   omega=     61.6015 meV
     lambda_tr(   1 )=       0.000483   gamma_tr=       0.000318 meV   omega=     61.6015 meV
     lambda___(   2 )=       0.000483   gamma___=       0.000318 meV   omega=     61.6015 meV
     lambda_tr(   2 )=       0.000483   gamma_tr=       0.000318 meV   omega=     61.6015 meV
     lambda___(   3 )=       0.001058   gamma___=       0.002208 meV   omega=    109.6615 meV
     lambda_tr(   3 )=       0.001058   gamma_tr=       0.002208 meV   omega=    109.6615 meV
     lambda___(   4 )=       0.017044   gamma___=       0.057199 meV   omega=    139.0488 meV
     lambda_tr(   4 )=       0.017044   gamma_tr=       0.057199 meV   omega=    139.0488 meV
     lambda___(   5 )=       0.017044   gamma___=       0.057199 meV   omega=    139.0488 meV
     lambda_tr(   5 )=       0.017044   gamma_tr=       0.057199 meV   omega=    139.0488 meV
     lambda___(   6 )=       0.004902   gamma___=       0.020460 meV   omega=    155.0731 meV
     lambda_tr(   6 )=       0.004902   gamma_tr=       0.020460 meV   omega=    155.0731 meV
     lambda___( tot )=       0.041014
     lambda_tr( tot )=       0.041014


     Real and Imaginary part of the phonon self-energy (omega=0) without gamma0.
     Omega(   1 )=   0.0616 eV   Re[Pi]=      -0.096341 meV Im[Pi]=      -0.000000 meV
     Omega(   2 )=   0.0616 eV   Re[Pi]=      -0.096341 meV Im[Pi]=      -0.000000 meV
     Omega(   3 )=   0.1097 eV   Re[Pi]=      -0.410093 meV Im[Pi]=      -0.000000 meV
     Omega(   4 )=   0.1390 eV   Re[Pi]=      -5.117537 meV Im[Pi]=       0.000000 meV
     Omega(   5 )=   0.1390 eV   Re[Pi]=      -5.117537 meV Im[Pi]=      -0.000000 meV
     Omega(   6 )=   0.1551 eV   Re[Pi]=      -1.966321 meV Im[Pi]=       0.000000 meV
     Number of (k,k+q) pairs on the Fermi surface:      216 out of      216
     -------------------------------------------------------------------


     ismear =     1 iq =       6 coord.:   0.00000  0.00000  0.83333 wt:   0.00463 Temp:  300.000K
     -------------------------------------------------------------------
     lambda___(   1 )=       0.205825   gamma___=       0.040551 meV   omega=     33.6194 meV
     lambda_tr(   1 )=       0.205824   gamma_tr=       0.040551 meV   omega=     33.6194 meV
     lambda___(   2 )=       0.184410   gamma___=       0.039790 meV   omega=     35.1829 meV
     lambda_tr(   2 )=       0.184411   gamma_tr=       0.039790 meV   omega=     35.1829 meV
     lambda___(   3 )=       0.104386   gamma___=       0.064169 meV   omega=     59.3852 meV
     lambda_tr(   3 )=       0.104384   gamma_tr=       0.064167 meV   omega=     59.3852 meV
     lambda___(   4 )=       0.945042   gamma___=       2.646294 meV   omega=    126.7451 meV
     lambda_tr(   4 )=       0.945044   gamma_tr=       2.646299 meV   omega=    126.7451 meV
     lambda___(   5 )=       0.965972   gamma___=       2.722950 meV   omega=    127.1672 meV
     lambda_tr(   5 )=       0.965968   gamma_tr=       2.722938 meV   omega=    127.1672 meV
     lambda___(   6 )=       0.261361   gamma___=       0.831536 meV   omega=    135.1009 meV
     lambda_tr(   6 )=       0.261359   gamma_tr=       0.831530 meV   omega=    135.1009 meV
     lambda___( tot )=       2.666995
     lambda_tr( tot )=       2.666989

     ismear =     2 iq =       6 coord.:   0.00000  0.00000  0.83333 wt:   0.00463 Temp:  300.000K
     -------------------------------------------------------------------
     lambda___(   1 )=       0.204972   gamma___=       0.040212 meV   omega=     33.6194 meV
     lambda_tr(   1 )=       0.204971   gamma_tr=       0.040211 meV   omega=     33.6194 meV
     lambda___(   2 )=       0.183677   gamma___=       0.039463 meV   omega=     35.1829 meV
     lambda_tr(   2 )=       0.183678   gamma_tr=       0.039464 meV   omega=     35.1829 meV
     lambda___(   3 )=       0.102072   gamma___=       0.062480 meV   omega=     59.3852 meV
     lambda_tr(   3 )=       0.102070   gamma_tr=       0.062479 meV   omega=     59.3852 meV
     lambda___(   4 )=       0.927841   gamma___=       2.587102 meV   omega=    126.7451 meV
     lambda_tr(   4 )=       0.927843   gamma_tr=       2.587106 meV   omega=    126.7451 meV
     lambda___(   5 )=       0.948902   gamma___=       2.663478 meV   omega=    127.1672 meV
     lambda_tr(   5 )=       0.948898   gamma_tr=       2.663466 meV   omega=    127.1672 meV
     lambda___(   6 )=       0.255694   gamma___=       0.810056 meV   omega=    135.1009 meV
     lambda_tr(   6 )=       0.255692   gamma_tr=       0.810050 meV   omega=    135.1009 meV
     lambda___( tot )=       2.623158
     lambda_tr( tot )=       2.623151


     Real and Imaginary part of the phonon self-energy (omega=0) without gamma0.
     Omega(   1 )=   0.0336 eV   Re[Pi]=      -0.218863 meV Im[Pi]=      -0.019992 meV
     Omega(   2 )=   0.0352 eV   Re[Pi]=      -0.209884 meV Im[Pi]=      -0.019979 meV
     Omega(   3 )=   0.0594 eV   Re[Pi]=      -0.526622 meV Im[Pi]=       0.027101 meV
     Omega(   4 )=   0.1267 eV   Re[Pi]=      -9.253062 meV Im[Pi]=       0.603189 meV
     Omega(   5 )=   0.1272 eV   Re[Pi]=      -9.277891 meV Im[Pi]=       0.546157 meV
     Omega(   6 )=   0.1351 eV   Re[Pi]=      -6.053394 meV Im[Pi]=       0.362555 meV
     Number of (k,k+q) pairs on the Fermi surface:      216 out of      216
     -------------------------------------------------------------------


     ismear =     1 iq =       7 coord.:   0.00000  0.16667  0.00000 wt:   0.00463 Temp:  300.000K
     -------------------------------------------------------------------
     lambda___(   1 )=      -1.832795   gamma___=      -0.081534 meV   omega=     15.9753 meV
     lambda_tr(   1 )=      -1.832829   gamma_tr=      -0.081535 meV   omega=     15.9753 meV
     lambda___(   2 )=      -1.832795   gamma___=      -0.081534 meV   omega=     15.9753 meV
     lambda_tr(   2 )=      -1.832829   gamma_tr=      -0.081535 meV   omega=     15.9753 meV
     lambda___(   3 )=       0.032538   gamma___=       0.017669 meV   omega=     55.8138 meV
     lambda_tr(   3 )=       0.032538   gamma_tr=       0.017668 meV   omega=     55.8138 meV
     lambda___(   4 )=       0.885575   gamma___=       2.631459 meV   omega=    130.5640 meV
     lambda_tr(   4 )=       0.885572   gamma_tr=       2.631450 meV   omega=    130.5640 meV
     lambda___(   5 )=       0.885575   gamma___=       2.631459 meV   omega=    130.5640 meV
     lambda_tr(   5 )=       0.885572   gamma_tr=       2.631450 meV   omega=    130.5640 meV
     lambda___(   6 )=       0.273216   gamma___=       0.888832 meV   omega=    136.6136 meV
     lambda_tr(   6 )=       0.273216   gamma_tr=       0.888829 meV   omega=    136.6136 meV
     lambda___( tot )=      -1.588686
     lambda_tr( tot )=      -1.588761

     ismear =     2 iq =       7 coord.:   0.00000  0.16667  0.00000 wt:   0.00463 Temp:  300.000K
     -------------------------------------------------------------------
     lambda___(   1 )=      -1.858818   gamma___=      -0.082340 meV   omega=     15.9753 meV
     lambda_tr(   1 )=      -1.858852   gamma_tr=      -0.082342 meV   omega=     15.9753 meV
     lambda___(   2 )=      -1.858818   gamma___=      -0.082340 meV   omega=     15.9753 meV
     lambda_tr(   2 )=      -1.858852   gamma_tr=      -0.082342 meV   omega=     15.9753 meV
     lambda___(   3 )=       0.032351   gamma___=       0.017492 meV   omega=     55.8138 meV
     lambda_tr(   3 )=       0.032351   gamma_tr=       0.017492 meV   omega=     55.8138 meV
     lambda___(   4 )=       0.870215   gamma___=       2.574843 meV   omega=    130.5640 meV
     lambda_tr(   4 )=       0.870212   gamma_tr=       2.574834 meV   omega=    130.5640 meV
     lambda___(   5 )=       0.870215   gamma___=       2.574843 meV   omega=    130.5640 meV
     lambda_tr(   5 )=       0.870212   gamma_tr=       2.574834 meV   omega=    130.5640 meV
     lambda___(   6 )=       0.267958   gamma___=       0.868026 meV   omega=    136.6136 meV
     lambda_tr(   6 )=       0.267957   gamma_tr=       0.868023 meV   omega=    136.6136 meV
     lambda___( tot )=      -1.676897
     lambda_tr( tot )=      -1.676972


     Real and Imaginary part of the phonon self-energy (omega=0) without gamma0.
     Omega(   1 )=   0.0160 eV   Re[Pi]=      -1.049574 meV Im[Pi]=       0.114260 meV
     Omega(   2 )=   0.0160 eV   Re[Pi]=      -1.049574 meV Im[Pi]=       0.114260 meV
     Omega(   3 )=   0.0558 eV   Re[Pi]=      -0.534694 meV Im[Pi]=      -0.006468 meV
     Omega(   4 )=   0.1306 eV   Re[Pi]=      -8.606106 meV Im[Pi]=       0.484045 meV
     Omega(   5 )=   0.1306 eV   Re[Pi]=      -8.606107 meV Im[Pi]=       0.484045 meV
     Omega(   6 )=   0.1366 eV   Re[Pi]=      -5.819940 meV Im[Pi]=       0.273826 meV
     Number of (k,k+q) pairs on the Fermi surface:      216 out of      216
     -------------------------------------------------------------------


     ismear =     1 iq =       8 coord.:   0.00000  0.16667  0.16667 wt:   0.00463 Temp:  300.000K
     -------------------------------------------------------------------
     lambda___(   1 )=      -0.008004   gamma___=      -0.002045 meV   omega=     38.2863 meV
     lambda_tr(   1 )=      -0.008004   gamma_tr=      -0.002045 meV   omega=     38.2863 meV
     lambda___(   2 )=       0.000009   gamma___=       0.000003 meV   omega=     41.7117 meV
     lambda_tr(   2 )=       0.000009   gamma_tr=       0.000003 meV   omega=     41.7117 meV
     lambda___(   3 )=       0.032573   gamma___=       0.022067 meV   omega=     62.3412 meV
     lambda_tr(   3 )=       0.032573   gamma_tr=       0.022067 meV   omega=     62.3412 meV
     lambda___(   4 )=       0.100025   gamma___=       0.302908 meV   omega=    131.8071 meV
     lambda_tr(   4 )=       0.100025   gamma_tr=       0.302907 meV   omega=    131.8071 meV
     lambda___(   5 )=       0.094131   gamma___=       0.289551 meV   omega=    132.8415 meV
     lambda_tr(   5 )=       0.094131   gamma_tr=       0.289551 meV   omega=    132.8415 meV
     lambda___(   6 )=       0.123473   gamma___=       0.423005 meV   omega=    140.1924 meV
     lambda_tr(   6 )=       0.123473   gamma_tr=       0.423005 meV   omega=    140.1924 meV
     lambda___( tot )=       0.342207
     lambda_tr( tot )=       0.342207

     ismear =     2 iq =       8 coord.:   0.00000  0.16667  0.16667 wt:   0.00463 Temp:  300.000K
     -------------------------------------------------------------------
     lambda___(   1 )=      -0.008886   gamma___=      -0.002261 meV   omega=     38.2863 meV
     lambda_tr(   1 )=      -0.008886   gamma_tr=      -0.002261 meV   omega=     38.2863 meV
     lambda___(   2 )=      -0.000072   gamma___=      -0.000022 meV   omega=     41.7117 meV
     lambda_tr(   2 )=      -0.000072   gamma_tr=      -0.000022 meV   omega=     41.7117 meV
     lambda___(   3 )=       0.033860   gamma___=       0.022841 meV   omega=     62.3412 meV
     lambda_tr(   3 )=       0.033860   gamma_tr=       0.022841 meV   omega=     62.3412 meV
     lambda___(   4 )=       0.104605   gamma___=       0.315433 meV   omega=    131.8071 meV
     lambda_tr(   4 )=       0.104605   gamma_tr=       0.315433 meV   omega=    131.8071 meV
     lambda___(   5 )=       0.098406   gamma___=       0.301417 meV   omega=    132.8415 meV
     lambda_tr(   5 )=       0.098406   gamma_tr=       0.301416 meV   omega=    132.8415 meV
     lambda___(   6 )=       0.128573   gamma___=       0.438608 meV   omega=    140.1924 meV
     lambda_tr(   6 )=       0.128573   gamma_tr=       0.438608 meV   omega=    140.1924 meV
     lambda___( tot )=       0.356486
     lambda_tr( tot )=       0.356486


     Real and Imaginary part of the phonon self-energy (omega=0) without gamma0.
     Omega(   1 )=   0.0383 eV   Re[Pi]=      -0.231112 meV Im[Pi]=       0.004984 meV
     Omega(   2 )=   0.0417 eV   Re[Pi]=      -0.150727 meV Im[Pi]=       0.001980 meV
     Omega(   3 )=   0.0623 eV   Re[Pi]=      -0.917436 meV Im[Pi]=       0.005067 meV
     Omega(   4 )=   0.1318 eV   Re[Pi]=      -6.947259 meV Im[Pi]=       0.042669 meV
     Omega(   5 )=   0.1328 eV   Re[Pi]=      -6.668867 meV Im[Pi]=       0.043266 meV
     Omega(   6 )=   0.1402 eV   Re[Pi]=      -6.840939 meV Im[Pi]=       0.038352 meV
     Number of (k,k+q) pairs on the Fermi surface:      216 out of      216
     -------------------------------------------------------------------


     ismear =     1 iq =       9 coord.:   0.00000  0.16667  0.33333 wt:   0.00463 Temp:  300.000K
     -------------------------------------------------------------------
     lambda___(   1 )=      -0.000003   gamma___=      -0.000002 meV   omega=     64.7469 meV
     lambda_tr(   1 )=      -0.000003   gamma_tr=      -0.000002 meV   omega=     64.7469 meV
     lambda___(   2 )=       0.000057   gamma___=       0.000045 meV   omega=     67.6066 meV
     lambda_tr(   2 )=       0.000057   gamma_tr=       0.000045 meV   omega=     67.6066 meV
     lambda___(   3 )=       0.000089   gamma___=       0.000154 meV   omega=     99.9669 meV
     lambda_tr(   3 )=       0.000089   gamma_tr=       0.000154 meV   omega=     99.9669 meV
     lambda___(   4 )=       0.000387   gamma___=       0.001347 meV   omega=    141.2938 meV
     lambda_tr(   4 )=       0.000387   gamma_tr=       0.001347 meV   omega=    141.2938 meV
     lambda___(   5 )=       0.000721   gamma___=       0.002582 meV   omega=    143.2909 meV
     lambda_tr(   5 )=       0.000721   gamma_tr=       0.002582 meV   omega=    143.2909 meV
     lambda___(   6 )=       0.000054   gamma___=       0.000225 meV   omega=    154.9864 meV
     lambda_tr(   6 )=       0.000054   gamma_tr=       0.000225 meV   omega=    154.9864 meV
     lambda___( tot )=       0.001305
     lambda_tr( tot )=       0.001305

     ismear =     2 iq =       9 coord.:   0.00000  0.16667  0.33333 wt:   0.00463 Temp:  300.000K
     -------------------------------------------------------------------
     lambda___(   1 )=      -0.000003   gamma___=      -0.000002 meV   omega=     64.7469 meV
     lambda_tr(   1 )=      -0.000003   gamma_tr=      -0.000002 meV   omega=     64.7469 meV
     lambda___(   2 )=       0.000065   gamma___=       0.000052 meV   omega=     67.6066 meV
     lambda_tr(   2 )=       0.000065   gamma_tr=       0.000052 meV   omega=     67.6066 meV
     lambda___(   3 )=       0.000102   gamma___=       0.000177 meV   omega=     99.9669 meV
     lambda_tr(   3 )=       0.000102   gamma_tr=       0.000177 meV   omega=     99.9669 meV
     lambda___(   4 )=       0.000445   gamma___=       0.001541 meV   omega=    141.2938 meV
     lambda_tr(   4 )=       0.000445   gamma_tr=       0.001541 meV   omega=    141.2938 meV
     lambda___(   5 )=       0.000827   gamma___=       0.002948 meV   omega=    143.2909 meV
     lambda_tr(   5 )=       0.000827   gamma_tr=       0.002948 meV   omega=    143.2909 meV
     lambda___(   6 )=       0.000062   gamma___=       0.000259 meV   omega=    154.9864 meV
     lambda_tr(   6 )=       0.000062   gamma_tr=       0.000259 meV   omega=    154.9864 meV
     lambda___( tot )=       0.001498
     lambda_tr( tot )=       0.001498


     Real and Imaginary part of the phonon self-energy (omega=0) without gamma0.
     Omega(   1 )=   0.0647 eV   Re[Pi]=      -0.053468 meV Im[Pi]=       0.000005 meV
     Omega(   2 )=   0.0676 eV   Re[Pi]=      -0.221856 meV Im[Pi]=       0.000002 meV
     Omega(   3 )=   0.1000 eV   Re[Pi]=      -0.475705 meV Im[Pi]=       0.000003 meV
     Omega(   4 )=   0.1413 eV   Re[Pi]=      -3.296623 meV Im[Pi]=       0.000095 meV
     Omega(   5 )=   0.1433 eV   Re[Pi]=      -3.530928 meV Im[Pi]=       0.000219 meV
     Omega(   6 )=   0.1550 eV   Re[Pi]=      -2.181707 meV Im[Pi]=       0.000041 meV
     Number of (k,k+q) pairs on the Fermi surface:      216 out of      216
     -------------------------------------------------------------------


     ismear =     1 iq =      10 coord.:   0.00000  0.16667  0.50000 wt:   0.00463 Temp:  300.000K
     -------------------------------------------------------------------
     lambda___(   1 )=       0.000000   gamma___=       0.000000 meV   omega=     77.7752 meV
     lambda_tr(   1 )=       0.000000   gamma_tr=       0.000000 meV   omega=     77.7752 meV
     lambda___(   2 )=       0.000000   gamma___=       0.000000 meV   omega=     88.0059 meV
     lambda_tr(   2 )=       0.000000   gamma_tr=       0.000000 meV   omega=     88.0059 meV
     lambda___(   3 )=       0.000000   gamma___=       0.000000 meV   omega=    125.9672 meV
     lambda_tr(   3 )=       0.000000   gamma_tr=       0.000000 meV   omega=    125.9672 meV
     lambda___(   4 )=       0.000000   gamma___=       0.000000 meV   omega=    142.0354 meV
     lambda_tr(   4 )=       0.000000   gamma_tr=       0.000000 meV   omega=    142.0354 meV
     lambda___(   5 )=       0.000000   gamma___=       0.000000 meV   omega=    146.6977 meV
     lambda_tr(   5 )=       0.000000   gamma_tr=       0.000000 meV   omega=    146.6977 meV
     lambda___(   6 )=       0.000000   gamma___=       0.000000 meV   omega=    153.5366 meV
     lambda_tr(   6 )=       0.000000   gamma_tr=       0.000000 meV   omega=    153.5366 meV
     lambda___( tot )=       0.000000
     lambda_tr( tot )=       0.000000

     ismear =     2 iq =      10 coord.:   0.00000  0.16667  0.50000 wt:   0.00463 Temp:  300.000K
     -------------------------------------------------------------------
     lambda___(   1 )=       0.000000   gamma___=       0.000000 meV   omega=     77.7752 meV
     lambda_tr(   1 )=       0.000000   gamma_tr=       0.000000 meV   omega=     77.7752 meV
     lambda___(   2 )=       0.000000   gamma___=       0.000000 meV   omega=     88.0059 meV
     lambda_tr(   2 )=       0.000000   gamma_tr=       0.000000 meV   omega=     88.0059 meV
     lambda___(   3 )=       0.000000   gamma___=       0.000000 meV   omega=    125.9672 meV
     lambda_tr(   3 )=       0.000000   gamma_tr=       0.000000 meV   omega=    125.9672 meV
     lambda___(   4 )=       0.000000   gamma___=       0.000000 meV   omega=    142.0354 meV
     lambda_tr(   4 )=       0.000000   gamma_tr=       0.000000 meV   omega=    142.0354 meV
     lambda___(   5 )=       0.000000   gamma___=       0.000000 meV   omega=    146.6977 meV
     lambda_tr(   5 )=       0.000000   gamma_tr=       0.000000 meV   omega=    146.6977 meV
     lambda___(   6 )=       0.000000   gamma___=       0.000000 meV   omega=    153.5366 meV
     lambda_tr(   6 )=       0.000000   gamma_tr=       0.000000 meV   omega=    153.5366 meV
     lambda___( tot )=       0.000000
     lambda_tr( tot )=       0.000000


     Real and Imaginary part of the phonon self-energy (omega=0) without gamma0.
     Omega(   1 )=   0.0778 eV   Re[Pi]=      -0.086942 meV Im[Pi]=      -0.000000 meV
     Omega(   2 )=   0.0880 eV   Re[Pi]=      -0.189646 meV Im[Pi]=       0.000000 meV
     Omega(   3 )=   0.1260 eV   Re[Pi]=      -0.382846 meV Im[Pi]=       0.000000 meV
     Omega(   4 )=   0.1420 eV   Re[Pi]=      -2.312964 meV Im[Pi]=       0.000000 meV
     Omega(   5 )=   0.1467 eV   Re[Pi]=      -2.083917 meV Im[Pi]=       0.000000 meV
     Omega(   6 )=   0.1535 eV   Re[Pi]=      -1.128524 meV Im[Pi]=      -0.000000 meV
     Number of (k,k+q) pairs on the Fermi surface:      216 out of      216
     -------------------------------------------------------------------


     ismear =     1 iq =      11 coord.:   0.00000  0.16667  0.66667 wt:   0.00463 Temp:  300.000K
     -------------------------------------------------------------------
     lambda___(   1 )=       0.000065   gamma___=       0.000060 meV   omega=     72.8291 meV
     lambda_tr(   1 )=       0.000065   gamma_tr=       0.000060 meV   omega=     72.8291 meV
     lambda___(   2 )=       0.000002   gamma___=       0.000003 meV   omega=     88.1581 meV
     lambda_tr(   2 )=       0.000002   gamma_tr=       0.000003 meV   omega=     88.1581 meV
     lambda___(   3 )=       0.000065   gamma___=       0.000162 meV   omega=    119.1623 meV
     lambda_tr(   3 )=       0.000065   gamma_tr=       0.000162 meV   omega=    119.1623 meV
     lambda___(   4 )=       0.000404   gamma___=       0.001410 meV   omega=    141.4732 meV
     lambda_tr(   4 )=       0.000404   gamma_tr=       0.001410 meV   omega=    141.4732 meV
     lambda___(   5 )=       0.000224   gamma___=       0.000829 meV   omega=    145.6217 meV
     lambda_tr(   5 )=       0.000224   gamma_tr=       0.000829 meV   omega=    145.6217 meV
     lambda___(   6 )=       0.000197   gamma___=       0.000800 meV   omega=    152.5916 meV
     lambda_tr(   6 )=       0.000197   gamma_tr=       0.000800 meV   omega=    152.5916 meV
     lambda___( tot )=       0.000958
     lambda_tr( tot )=       0.000958

     ismear =     2 iq =      11 coord.:   0.00000  0.16667  0.66667 wt:   0.00463 Temp:  300.000K
     -------------------------------------------------------------------
     lambda___(   1 )=       0.000075   gamma___=       0.000069 meV   omega=     72.8291 meV
     lambda_tr(   1 )=       0.000075   gamma_tr=       0.000069 meV   omega=     72.8291 meV
     lambda___(   2 )=       0.000003   gamma___=       0.000004 meV   omega=     88.1581 meV
     lambda_tr(   2 )=       0.000003   gamma_tr=       0.000004 meV   omega=     88.1581 meV
     lambda___(   3 )=       0.000076   gamma___=       0.000186 meV   omega=    119.1623 meV
     lambda_tr(   3 )=       0.000076   gamma_tr=       0.000186 meV   omega=    119.1623 meV
     lambda___(   4 )=       0.000467   gamma___=       0.001622 meV   omega=    141.4732 meV
     lambda_tr(   4 )=       0.000467   gamma_tr=       0.001622 meV   omega=    141.4732 meV
     lambda___(   5 )=       0.000259   gamma___=       0.000952 meV   omega=    145.6217 meV
     lambda_tr(   5 )=       0.000259   gamma_tr=       0.000952 meV   omega=    145.6217 meV
     lambda___(   6 )=       0.000228   gamma___=       0.000920 meV   omega=    152.5916 meV
     lambda_tr(   6 )=       0.000228   gamma_tr=       0.000920 meV   omega=    152.5916 meV
     lambda___( tot )=       0.001107
     lambda_tr( tot )=       0.001107


     Real and Imaginary part of the phonon self-energy (omega=0) without gamma0.
     Omega(   1 )=   0.0728 eV   Re[Pi]=      -0.251433 meV Im[Pi]=       0.000004 meV
     Omega(   2 )=   0.0882 eV   Re[Pi]=      -0.118141 meV Im[Pi]=       0.000000 meV
     Omega(   3 )=   0.1192 eV   Re[Pi]=      -0.453300 meV Im[Pi]=       0.000003 meV
     Omega(   4 )=   0.1415 eV   Re[Pi]=      -2.902080 meV Im[Pi]=       0.000031 meV
     Omega(   5 )=   0.1456 eV   Re[Pi]=      -2.361374 meV Im[Pi]=       0.000075 meV
     Omega(   6 )=   0.1526 eV   Re[Pi]=      -1.300401 meV Im[Pi]=      -0.000026 meV
     Number of (k,k+q) pairs on the Fermi surface:      216 out of      216
     -------------------------------------------------------------------


     ismear =     1 iq =      12 coord.:   0.00000  0.16667  0.83333 wt:   0.00463 Temp:  300.000K
     -------------------------------------------------------------------
     lambda___(   1 )=       0.094464   gamma___=       0.038833 meV   omega=     48.5629 meV
     lambda_tr(   1 )=       0.094463   gamma_tr=       0.038833 meV   omega=     48.5629 meV
     lambda___(   2 )=      -0.001594   gamma___=      -0.001070 meV   omega=     62.0560 meV
     lambda_tr(   2 )=      -0.001594   gamma_tr=      -0.001070 meV   omega=     62.0560 meV
     lambda___(   3 )=       0.021237   gamma___=       0.027599 meV   omega=     86.3460 meV
     lambda_tr(   3 )=       0.021237   gamma_tr=       0.027599 meV   omega=     86.3460 meV
     lambda___(   4 )=       0.247234   gamma___=       0.822392 meV   omega=    138.1410 meV
     lambda_tr(   4 )=       0.247233   gamma_tr=       0.822387 meV   omega=    138.1410 meV
     lambda___(   5 )=       0.235708   gamma___=       0.816825 meV   omega=    140.9987 meV
     lambda_tr(   5 )=       0.235708   gamma_tr=       0.816825 meV   omega=    140.9987 meV
     lambda___(   6 )=       0.000776   gamma___=       0.002990 meV   omega=    148.7014 meV
     lambda_tr(   6 )=       0.000776   gamma_tr=       0.002990 meV   omega=    148.7014 meV
     lambda___( tot )=       0.597825
     lambda_tr( tot )=       0.597823

     ismear =     2 iq =      12 coord.:   0.00000  0.16667  0.83333 wt:   0.00463 Temp:  300.000K
     -------------------------------------------------------------------
     lambda___(   1 )=       0.095294   gamma___=       0.039008 meV   omega=     48.5629 meV
     lambda_tr(   1 )=       0.095293   gamma_tr=       0.039008 meV   omega=     48.5629 meV
     lambda___(   2 )=      -0.001788   gamma___=      -0.001195 meV   omega=     62.0560 meV
     lambda_tr(   2 )=      -0.001788   gamma_tr=      -0.001195 meV   omega=     62.0560 meV
     lambda___(   3 )=       0.021300   gamma___=       0.027564 meV   omega=     86.3460 meV
     lambda_tr(   3 )=       0.021300   gamma_tr=       0.027564 meV   omega=     86.3460 meV
     lambda___(   4 )=       0.247799   gamma___=       0.820772 meV   omega=    138.1410 meV
     lambda_tr(   4 )=       0.247798   gamma_tr=       0.820767 meV   omega=    138.1410 meV
     lambda___(   5 )=       0.235877   gamma___=       0.813943 meV   omega=    140.9987 meV
     lambda_tr(   5 )=       0.235877   gamma_tr=       0.813942 meV   omega=    140.9987 meV
     lambda___(   6 )=       0.000784   gamma___=       0.003011 meV   omega=    148.7014 meV
     lambda_tr(   6 )=       0.000784   gamma_tr=       0.003011 meV   omega=    148.7014 meV
     lambda___( tot )=       0.599268
     lambda_tr( tot )=       0.599265


     Real and Imaginary part of the phonon self-energy (omega=0) without gamma0.
     Omega(   1 )=   0.0486 eV   Re[Pi]=      -0.503573 meV Im[Pi]=      -0.005502 meV
     Omega(   2 )=   0.0621 eV   Re[Pi]=      -0.117419 meV Im[Pi]=       0.006175 meV
     Omega(   3 )=   0.0863 eV   Re[Pi]=      -0.500001 meV Im[Pi]=       0.003932 meV
     Omega(   4 )=   0.1381 eV   Re[Pi]=      -5.691290 meV Im[Pi]=       0.139060 meV
     Omega(   5 )=   0.1410 eV   Re[Pi]=      -5.022515 meV Im[Pi]=       0.203345 meV
     Omega(   6 )=   0.1487 eV   Re[Pi]=      -2.308338 meV Im[Pi]=      -0.000727 meV
     Number of (k,k+q) pairs on the Fermi surface:      216 out of      216
     -------------------------------------------------------------------


     ismear =     1 iq =      13 coord.:   0.00000  0.33333  0.00000 wt:   0.00463 Temp:  300.000K
     -------------------------------------------------------------------
     lambda___(   1 )=       0.000442   gamma___=       0.000292 meV   omega=     61.6015 meV
     lambda_tr(   1 )=       0.000442   gamma_tr=       0.000292 meV   omega=     61.6015 meV
     lambda___(   2 )=       0.000442   gamma___=       0.000292 meV   omega=     61.6015 meV
     lambda_tr(   2 )=       0.000442   gamma_tr=       0.000292 meV   omega=     61.6015 meV
     lambda___(   3 )=       0.000970   gamma___=       0.002033 meV   omega=    109.6615 meV
     lambda_tr(   3 )=       0.000970   gamma_tr=       0.002033 meV   omega=    109.6615 meV
     lambda___(   4 )=       0.015641   gamma___=       0.052713 meV   omega=    139.0488 meV
     lambda_tr(   4 )=       0.015641   gamma_tr=       0.052713 meV   omega=    139.0488 meV
     lambda___(   5 )=       0.015641   gamma___=       0.052713 meV   omega=    139.0488 meV
     lambda_tr(   5 )=       0.015641   gamma_tr=       0.052713 meV   omega=    139.0488 meV
     lambda___(   6 )=       0.004501   gamma___=       0.018866 meV   omega=    155.0731 meV
     lambda_tr(   6 )=       0.004501   gamma_tr=       0.018866 meV   omega=    155.0731 meV
     lambda___( tot )=       0.037636
     lambda_tr( tot )=       0.037636

     ismear =     2 iq =      13 coord.:   0.00000  0.33333  0.00000 wt:   0.00463 Temp:  300.000K
     -------------------------------------------------------------------
     lambda___(   1 )=       0.000483   gamma___=       0.000318 meV   omega=     61.6015 meV
     lambda_tr(   1 )=       0.000483   gamma_tr=       0.000318 meV   omega=     61.6015 meV
     lambda___(   2 )=       0.000483   gamma___=       0.000318 meV   omega=     61.6015 meV
     lambda_tr(   2 )=       0.000483   gamma_tr=       0.000318 meV   omega=     61.6015 meV
     lambda___(   3 )=       0.001058   gamma___=       0.002208 meV   omega=    109.6615 meV
     lambda_tr(   3 )=       0.001058   gamma_tr=       0.002208 meV   omega=    109.6615 meV
     lambda___(   4 )=       0.017044   gamma___=       0.057200 meV   omega=    139.0488 meV
     lambda_tr(   4 )=       0.017044   gamma_tr=       0.057199 meV   omega=    139.0488 meV
     lambda___(   5 )=       0.017044   gamma___=       0.057200 meV   omega=    139.0488 meV
     lambda_tr(   5 )=       0.017044   gamma_tr=       0.057199 meV   omega=    139.0488 meV
     lambda___(   6 )=       0.004902   gamma___=       0.020460 meV   omega=    155.0731 meV
     lambda_tr(   6 )=       0.004902   gamma_tr=       0.020460 meV   omega=    155.0731 meV
     lambda___( tot )=       0.041014
     lambda_tr( tot )=       0.041014


     Real and Imaginary part of the phonon self-energy (omega=0) without gamma0.
     Omega(   1 )=   0.0616 eV   Re[Pi]=      -0.096341 meV Im[Pi]=      -0.000000 meV
     Omega(   2 )=   0.0616 eV   Re[Pi]=      -0.096341 meV Im[Pi]=      -0.000000 meV
     Omega(   3 )=   0.1097 eV   Re[Pi]=      -0.410093 meV Im[Pi]=      -0.000000 meV
     Omega(   4 )=   0.1390 eV   Re[Pi]=      -5.117537 meV Im[Pi]=      -0.000000 meV
     Omega(   5 )=   0.1390 eV   Re[Pi]=      -5.117537 meV Im[Pi]=       0.000000 meV
     Omega(   6 )=   0.1551 eV   Re[Pi]=      -1.966321 meV Im[Pi]=       0.000000 meV
     Number of (k,k+q) pairs on the Fermi surface:      216 out of      216
     -------------------------------------------------------------------


     ismear =     1 iq =      14 coord.:   0.00000  0.33333  0.16667 wt:   0.00463 Temp:  300.000K
     -------------------------------------------------------------------
     lambda___(   1 )=       0.000003   gamma___=       0.000002 meV   omega=     65.2751 meV
     lambda_tr(   1 )=       0.000003   gamma_tr=       0.000002 meV   omega=     65.2751 meV
     lambda___(   2 )=       0.000046   gamma___=       0.000039 meV   omega=     69.2596 meV
     lambda_tr(   2 )=       0.000046   gamma_tr=       0.000039 meV   omega=     69.2596 meV
     lambda___(   3 )=       0.000078   gamma___=       0.000139 meV   omega=    101.0242 meV
     lambda_tr(   3 )=       0.000078   gamma_tr=       0.000139 meV   omega=    101.0242 meV
     lambda___(   4 )=       0.000421   gamma___=       0.001459 meV   omega=    141.0506 meV
     lambda_tr(   4 )=       0.000421   gamma_tr=       0.001459 meV   omega=    141.0506 meV
     lambda___(   5 )=       0.000693   gamma___=       0.002446 meV   omega=    142.2953 meV
     lambda_tr(   5 )=       0.000693   gamma_tr=       0.002446 meV   omega=    142.2953 meV
     lambda___(   6 )=       0.000057   gamma___=       0.000235 meV   omega=    154.4875 meV
     lambda_tr(   6 )=       0.000057   gamma_tr=       0.000235 meV   omega=    154.4875 meV
     lambda___( tot )=       0.001298
     lambda_tr( tot )=       0.001298

     ismear =     2 iq =      14 coord.:   0.00000  0.33333  0.16667 wt:   0.00463 Temp:  300.000K
     -------------------------------------------------------------------
     lambda___(   1 )=       0.000004   gamma___=       0.000003 meV   omega=     65.2751 meV
     lambda_tr(   1 )=       0.000004   gamma_tr=       0.000003 meV   omega=     65.2751 meV
     lambda___(   2 )=       0.000053   gamma___=       0.000044 meV   omega=     69.2596 meV
     lambda_tr(   2 )=       0.000053   gamma_tr=       0.000044 meV   omega=     69.2596 meV
     lambda___(   3 )=       0.000090   gamma___=       0.000159 meV   omega=    101.0242 meV
     lambda_tr(   3 )=       0.000090   gamma_tr=       0.000159 meV   omega=    101.0242 meV
     lambda___(   4 )=       0.000484   gamma___=       0.001670 meV   omega=    141.0506 meV
     lambda_tr(   4 )=       0.000484   gamma_tr=       0.001670 meV   omega=    141.0506 meV
     lambda___(   5 )=       0.000795   gamma___=       0.002793 meV   omega=    142.2953 meV
     lambda_tr(   5 )=       0.000795   gamma_tr=       0.002793 meV   omega=    142.2953 meV
     lambda___(   6 )=       0.000065   gamma___=       0.000271 meV   omega=    154.4875 meV
     lambda_tr(   6 )=       0.000065   gamma_tr=       0.000271 meV   omega=    154.4875 meV
     lambda___( tot )=       0.001491
     lambda_tr( tot )=       0.001491


     Real and Imaginary part of the phonon self-energy (omega=0) without gamma0.
     Omega(   1 )=   0.0653 eV   Re[Pi]=      -0.047233 meV Im[Pi]=      -0.000002 meV
     Omega(   2 )=   0.0693 eV   Re[Pi]=      -0.234798 meV Im[Pi]=       0.000001 meV
     Omega(   3 )=   0.1010 eV   Re[Pi]=      -0.521782 meV Im[Pi]=       0.000017 meV
     Omega(   4 )=   0.1411 eV   Re[Pi]=      -3.382064 meV Im[Pi]=       0.000040 meV
     Omega(   5 )=   0.1423 eV   Re[Pi]=      -3.457441 meV Im[Pi]=       0.000213 meV
     Omega(   6 )=   0.1545 eV   Re[Pi]=      -2.155106 meV Im[Pi]=       0.000021 meV
     Number of (k,k+q) pairs on the Fermi surface:      216 out of      216
     -------------------------------------------------------------------


     ismear =     1 iq =      15 coord.:   0.00000  0.33333  0.33333 wt:   0.00463 Temp:  300.000K
     -------------------------------------------------------------------
     lambda___(   1 )=       0.000000   gamma___=       0.000000 meV   omega=     83.5572 meV
     lambda_tr(   1 )=       0.000000   gamma_tr=       0.000000 meV   omega=     83.5572 meV
     lambda___(   2 )=       0.000000   gamma___=       0.000000 meV   omega=     83.5572 meV
     lambda_tr(   2 )=       0.000000   gamma_tr=       0.000000 meV   omega=     83.5572 meV
     lambda___(   3 )=       0.000000   gamma___=       0.000000 meV   omega=    118.2159 meV
     lambda_tr(   3 )=       0.000000   gamma_tr=       0.000000 meV   omega=    118.2159 meV
     lambda___(   4 )=       0.000000   gamma___=       0.000000 meV   omega=    143.7018 meV
     lambda_tr(   4 )=       0.000000   gamma_tr=       0.000000 meV   omega=    143.7018 meV
     lambda___(   5 )=       0.000000   gamma___=       0.000000 meV   omega=    143.7018 meV
     lambda_tr(   5 )=       0.000000   gamma_tr=       0.000000 meV   omega=    143.7018 meV
     lambda___(   6 )=       0.000000   gamma___=       0.000000 meV   omega=    163.2712 meV
     lambda_tr(   6 )=       0.000000   gamma_tr=       0.000000 meV   omega=    163.2712 meV
     lambda___( tot )=       0.000000
     lambda_tr( tot )=       0.000000

     ismear =     2 iq =      15 coord.:   0.00000  0.33333  0.33333 wt:   0.00463 Temp:  300.000K
     -------------------------------------------------------------------
     lambda___(   1 )=       0.000000   gamma___=       0.000000 meV   omega=     83.5572 meV
     lambda_tr(   1 )=       0.000000   gamma_tr=       0.000000 meV   omega=     83.5572 meV
     lambda___(   2 )=       0.000000   gamma___=       0.000000 meV   omega=     83.5572 meV
     lambda_tr(   2 )=       0.000000   gamma_tr=       0.000000 meV   omega=     83.5572 meV
     lambda___(   3 )=       0.000000   gamma___=       0.000000 meV   omega=    118.2159 meV
     lambda_tr(   3 )=       0.000000   gamma_tr=       0.000000 meV   omega=    118.2159 meV
     lambda___(   4 )=       0.000000   gamma___=       0.000000 meV   omega=    143.7018 meV
     lambda_tr(   4 )=       0.000000   gamma_tr=       0.000000 meV   omega=    143.7018 meV
     lambda___(   5 )=       0.000000   gamma___=       0.000000 meV   omega=    143.7018 meV
     lambda_tr(   5 )=       0.000000   gamma_tr=       0.000000 meV   omega=    143.7018 meV
     lambda___(   6 )=       0.000000   gamma___=       0.000000 meV   omega=    163.2712 meV
     lambda_tr(   6 )=       0.000000   gamma_tr=       0.000000 meV   omega=    163.2712 meV
     lambda___( tot )=       0.000000
     lambda_tr( tot )=       0.000000


     Real and Imaginary part of the phonon self-energy (omega=0) without gamma0.
     Omega(   1 )=   0.0836 eV   Re[Pi]=      -0.080148 meV Im[Pi]=       0.000000 meV
     Omega(   2 )=   0.0836 eV   Re[Pi]=      -0.080148 meV Im[Pi]=      -0.000000 meV
     Omega(   3 )=   0.1182 eV   Re[Pi]=      -0.679988 meV Im[Pi]=      -0.000000 meV
     Omega(   4 )=   0.1437 eV   Re[Pi]=      -1.677073 meV Im[Pi]=      -0.000000 meV
     Omega(   5 )=   0.1437 eV   Re[Pi]=      -1.677074 meV Im[Pi]=      -0.000000 meV
     Omega(   6 )=   0.1633 eV   Re[Pi]=      -1.707670 meV Im[Pi]=       0.000000 meV
     Number of (k,k+q) pairs on the Fermi surface:      216 out of      216
     -------------------------------------------------------------------


     ismear =     1 iq =      16 coord.:   0.00000  0.33333  0.50000 wt:   0.00463 Temp:  300.000K
     -------------------------------------------------------------------
     lambda___(   1 )=       0.000000   gamma___=       0.000000 meV   omega=     95.5295 meV
     lambda_tr(   1 )=       0.000000   gamma_tr=       0.000000 meV   omega=     95.5295 meV
     lambda___(   2 )=       0.000000   gamma___=       0.000000 meV   omega=    105.6127 meV
     lambda_tr(   2 )=       0.000000   gamma_tr=       0.000000 meV   omega=    105.6127 meV
     lambda___(   3 )=       0.000000   gamma___=       0.000000 meV   omega=    130.1236 meV
     lambda_tr(   3 )=       0.000000   gamma_tr=       0.000000 meV   omega=    130.1236 meV
     lambda___(   4 )=       0.000000   gamma___=       0.000000 meV   omega=    140.6745 meV
     lambda_tr(   4 )=       0.000000   gamma_tr=       0.000000 meV   omega=    140.6745 meV
     lambda___(   5 )=       0.000000   gamma___=       0.000000 meV   omega=    143.7331 meV
     lambda_tr(   5 )=       0.000000   gamma_tr=       0.000000 meV   omega=    143.7331 meV
     lambda___(   6 )=       0.000000   gamma___=       0.000000 meV   omega=    159.5315 meV
     lambda_tr(   6 )=       0.000000   gamma_tr=       0.000000 meV   omega=    159.5315 meV
     lambda___( tot )=       0.000000
     lambda_tr( tot )=       0.000000

     ismear =     2 iq =      16 coord.:   0.00000  0.33333  0.50000 wt:   0.00463 Temp:  300.000K
     -------------------------------------------------------------------
     lambda___(   1 )=       0.000000   gamma___=       0.000000 meV   omega=     95.5295 meV
     lambda_tr(   1 )=       0.000000   gamma_tr=       0.000000 meV   omega=     95.5295 meV
     lambda___(   2 )=       0.000000   gamma___=       0.000000 meV   omega=    105.6127 meV
     lambda_tr(   2 )=       0.000000   gamma_tr=       0.000000 meV   omega=    105.6127 meV
     lambda___(   3 )=       0.000000   gamma___=       0.000000 meV   omega=    130.1236 meV
     lambda_tr(   3 )=       0.000000   gamma_tr=       0.000000 meV   omega=    130.1236 meV
     lambda___(   4 )=       0.000000   gamma___=       0.000000 meV   omega=    140.6745 meV
     lambda_tr(   4 )=       0.000000   gamma_tr=       0.000000 meV   omega=    140.6745 meV
     lambda___(   5 )=       0.000000   gamma___=       0.000000 meV   omega=    143.7331 meV
     lambda_tr(   5 )=       0.000000   gamma_tr=       0.000000 meV   omega=    143.7331 meV
     lambda___(   6 )=       0.000000   gamma___=       0.000000 meV   omega=    159.5315 meV
     lambda_tr(   6 )=       0.000000   gamma_tr=       0.000000 meV   omega=    159.5315 meV
     lambda___( tot )=       0.000000
     lambda_tr( tot )=       0.000000


     Real and Imaginary part of the phonon self-energy (omega=0) without gamma0.
     Omega(   1 )=   0.0955 eV   Re[Pi]=      -0.101256 meV Im[Pi]=       0.000000 meV
     Omega(   2 )=   0.1056 eV   Re[Pi]=      -0.172281 meV Im[Pi]=       0.000000 meV
     Omega(   3 )=   0.1301 eV   Re[Pi]=      -0.532746 meV Im[Pi]=      -0.000000 meV
     Omega(   4 )=   0.1407 eV   Re[Pi]=      -1.255723 meV Im[Pi]=       0.000000 meV
     Omega(   5 )=   0.1437 eV   Re[Pi]=      -0.877280 meV Im[Pi]=       0.000000 meV
     Omega(   6 )=   0.1595 eV   Re[Pi]=      -1.186891 meV Im[Pi]=      -0.000000 meV
     Number of (k,k+q) pairs on the Fermi surface:      216 out of      216
     -------------------------------------------------------------------


     ismear =     1 iq =      17 coord.:   0.00000  0.33333  0.66667 wt:   0.00463 Temp:  300.000K
     -------------------------------------------------------------------
     lambda___(   1 )=       0.000000   gamma___=       0.000000 meV   omega=     90.7173 meV
     lambda_tr(   1 )=       0.000000   gamma_tr=       0.000000 meV   omega=     90.7173 meV
     lambda___(   2 )=       0.000000   gamma___=       0.000000 meV   omega=    122.5414 meV
     lambda_tr(   2 )=       0.000000   gamma_tr=       0.000000 meV   omega=    122.5414 meV
     lambda___(   3 )=       0.000000   gamma___=       0.000000 meV   omega=    122.9921 meV
     lambda_tr(   3 )=       0.000000   gamma_tr=       0.000000 meV   omega=    122.9921 meV
     lambda___(   4 )=       0.000000   gamma___=       0.000000 meV   omega=    134.8487 meV
     lambda_tr(   4 )=       0.000000   gamma_tr=       0.000000 meV   omega=    134.8487 meV
     lambda___(   5 )=       0.000000   gamma___=       0.000000 meV   omega=    139.2806 meV
     lambda_tr(   5 )=       0.000000   gamma_tr=       0.000000 meV   omega=    139.2806 meV
     lambda___(   6 )=       0.000000   gamma___=       0.000000 meV   omega=    154.8528 meV
     lambda_tr(   6 )=       0.000000   gamma_tr=       0.000000 meV   omega=    154.8528 meV
     lambda___( tot )=       0.000000
     lambda_tr( tot )=       0.000000

     ismear =     2 iq =      17 coord.:   0.00000  0.33333  0.66667 wt:   0.00463 Temp:  300.000K
     -------------------------------------------------------------------
     lambda___(   1 )=       0.000000   gamma___=       0.000000 meV   omega=     90.7173 meV
     lambda_tr(   1 )=       0.000000   gamma_tr=       0.000000 meV   omega=     90.7173 meV
     lambda___(   2 )=       0.000000   gamma___=       0.000000 meV   omega=    122.5414 meV
     lambda_tr(   2 )=       0.000000   gamma_tr=       0.000000 meV   omega=    122.5414 meV
     lambda___(   3 )=       0.000000   gamma___=       0.000000 meV   omega=    122.9921 meV
     lambda_tr(   3 )=       0.000000   gamma_tr=       0.000000 meV   omega=    122.9921 meV
     lambda___(   4 )=       0.000000   gamma___=       0.000000 meV   omega=    134.8487 meV
     lambda_tr(   4 )=       0.000000   gamma_tr=       0.000000 meV   omega=    134.8487 meV
     lambda___(   5 )=       0.000000   gamma___=       0.000000 meV   omega=    139.2806 meV
     lambda_tr(   5 )=       0.000000   gamma_tr=       0.000000 meV   omega=    139.2806 meV
     lambda___(   6 )=       0.000000   gamma___=       0.000000 meV   omega=    154.8528 meV
     lambda_tr(   6 )=       0.000000   gamma_tr=       0.000000 meV   omega=    154.8528 meV
     lambda___( tot )=       0.000000
     lambda_tr( tot )=       0.000000


     Real and Imaginary part of the phonon self-energy (omega=0) without gamma0.
     Omega(   1 )=   0.0907 eV   Re[Pi]=      -0.185489 meV Im[Pi]=      -0.000000 meV
     Omega(   2 )=   0.1225 eV   Re[Pi]=      -0.416337 meV Im[Pi]=      -0.000000 meV
     Omega(   3 )=   0.1230 eV   Re[Pi]=      -0.226651 meV Im[Pi]=       0.000000 meV
     Omega(   4 )=   0.1348 eV   Re[Pi]=      -0.306946 meV Im[Pi]=       0.000000 meV
     Omega(   5 )=   0.1393 eV   Re[Pi]=      -1.569363 meV Im[Pi]=      -0.000000 meV
     Omega(   6 )=   0.1549 eV   Re[Pi]=      -1.763996 meV Im[Pi]=      -0.000000 meV
     Number of (k,k+q) pairs on the Fermi surface:      216 out of      216
     -------------------------------------------------------------------


     ismear =     1 iq =      18 coord.:   0.00000  0.33333  0.83333 wt:   0.00463 Temp:  300.000K
     -------------------------------------------------------------------
     lambda___(   1 )=       0.000062   gamma___=       0.000063 meV   omega=     76.1599 meV
     lambda_tr(   1 )=       0.000062   gamma_tr=       0.000063 meV   omega=     76.1599 meV
     lambda___(   2 )=       0.000009   gamma___=       0.000012 meV   omega=     88.7988 meV
     lambda_tr(   2 )=       0.000009   gamma_tr=       0.000012 meV   omega=     88.7988 meV
     lambda___(   3 )=       0.000064   gamma___=       0.000160 meV   omega=    119.9079 meV
     lambda_tr(   3 )=       0.000064   gamma_tr=       0.000160 meV   omega=    119.9079 meV
     lambda___(   4 )=       0.000422   gamma___=       0.001437 meV   omega=    139.7084 meV
     lambda_tr(   4 )=       0.000422   gamma_tr=       0.001437 meV   omega=    139.7084 meV
     lambda___(   5 )=       0.000222   gamma___=       0.000814 meV   omega=    145.1288 meV
     lambda_tr(   5 )=       0.000222   gamma_tr=       0.000814 meV   omega=    145.1288 meV
     lambda___(   6 )=       0.000213   gamma___=       0.000860 meV   omega=    152.1048 meV
     lambda_tr(   6 )=       0.000213   gamma_tr=       0.000860 meV   omega=    152.1048 meV
     lambda___( tot )=       0.000992
     lambda_tr( tot )=       0.000992

     ismear =     2 iq =      18 coord.:   0.00000  0.33333  0.83333 wt:   0.00463 Temp:  300.000K
     -------------------------------------------------------------------
     lambda___(   1 )=       0.000072   gamma___=       0.000073 meV   omega=     76.1599 meV
     lambda_tr(   1 )=       0.000072   gamma_tr=       0.000073 meV   omega=     76.1599 meV
     lambda___(   2 )=       0.000010   gamma___=       0.000014 meV   omega=     88.7988 meV
     lambda_tr(   2 )=       0.000010   gamma_tr=       0.000014 meV   omega=     88.7988 meV
     lambda___(   3 )=       0.000074   gamma___=       0.000184 meV   omega=    119.9079 meV
     lambda_tr(   3 )=       0.000074   gamma_tr=       0.000184 meV   omega=    119.9079 meV
     lambda___(   4 )=       0.000488   gamma___=       0.001653 meV   omega=    139.7084 meV
     lambda_tr(   4 )=       0.000488   gamma_tr=       0.001653 meV   omega=    139.7084 meV
     lambda___(   5 )=       0.000256   gamma___=       0.000936 meV   omega=    145.1288 meV
     lambda_tr(   5 )=       0.000256   gamma_tr=       0.000936 meV   omega=    145.1288 meV
     lambda___(   6 )=       0.000246   gamma___=       0.000989 meV   omega=    152.1048 meV
     lambda_tr(   6 )=       0.000246   gamma_tr=       0.000989 meV   omega=    152.1048 meV
     lambda___( tot )=       0.001146
     lambda_tr( tot )=       0.001146


     Real and Imaginary part of the phonon self-energy (omega=0) without gamma0.
     Omega(   1 )=   0.0762 eV   Re[Pi]=      -0.215286 meV Im[Pi]=      -0.000001 meV
     Omega(   2 )=   0.0888 eV   Re[Pi]=      -0.103412 meV Im[Pi]=      -0.000001 meV
     Omega(   3 )=   0.1199 eV   Re[Pi]=      -0.436477 meV Im[Pi]=       0.000002 meV
     Omega(   4 )=   0.1397 eV   Re[Pi]=      -2.998936 meV Im[Pi]=       0.000038 meV
     Omega(   5 )=   0.1451 eV   Re[Pi]=      -2.325486 meV Im[Pi]=       0.000048 meV
     Omega(   6 )=   0.1521 eV   Re[Pi]=      -1.452726 meV Im[Pi]=       0.000024 meV
     Number of (k,k+q) pairs on the Fermi surface:      216 out of      216
     -------------------------------------------------------------------


     ismear =     1 iq =      19 coord.:   0.00000  0.50000  0.00000 wt:   0.00463 Temp:  300.000K
     -------------------------------------------------------------------
     lambda___(   1 )=       0.000001   gamma___=       0.000001 meV   omega=     77.6792 meV
     lambda_tr(   1 )=       0.000001   gamma_tr=       0.000001 meV   omega=     77.6792 meV
     lambda___(   2 )=       0.000001   gamma___=       0.000001 meV   omega=     77.6792 meV
     lambda_tr(   2 )=       0.000001   gamma_tr=       0.000001 meV   omega=     77.6792 meV
     lambda___(   3 )=       0.000000   gamma___=       0.000000 meV   omega=    136.0474 meV
     lambda_tr(   3 )=       0.000000   gamma_tr=       0.000000 meV   omega=    136.0474 meV
     lambda___(   4 )=       0.000141   gamma___=       0.000465 meV   omega=    137.7416 meV
     lambda_tr(   4 )=       0.000141   gamma_tr=       0.000465 meV   omega=    137.7416 meV
     lambda___(   5 )=       0.000141   gamma___=       0.000465 meV   omega=    137.7416 meV
     lambda_tr(   5 )=       0.000141   gamma_tr=       0.000465 meV   omega=    137.7416 meV
     lambda___(   6 )=       0.000050   gamma___=       0.000206 meV   omega=    153.0793 meV
     lambda_tr(   6 )=       0.000050   gamma_tr=       0.000206 meV   omega=    153.0793 meV
     lambda___( tot )=       0.000334
     lambda_tr( tot )=       0.000334

     ismear =     2 iq =      19 coord.:   0.00000  0.50000  0.00000 wt:   0.00463 Temp:  300.000K
     -------------------------------------------------------------------
     lambda___(   1 )=       0.000001   gamma___=       0.000001 meV   omega=     77.6792 meV
     lambda_tr(   1 )=       0.000001   gamma_tr=       0.000001 meV   omega=     77.6792 meV
     lambda___(   2 )=       0.000001   gamma___=       0.000001 meV   omega=     77.6792 meV
     lambda_tr(   2 )=       0.000001   gamma_tr=       0.000001 meV   omega=     77.6792 meV
     lambda___(   3 )=       0.000000   gamma___=       0.000000 meV   omega=    136.0474 meV
     lambda_tr(   3 )=       0.000000   gamma_tr=       0.000000 meV   omega=    136.0474 meV
     lambda___(   4 )=       0.000168   gamma___=       0.000555 meV   omega=    137.7416 meV
     lambda_tr(   4 )=       0.000168   gamma_tr=       0.000555 meV   omega=    137.7416 meV
     lambda___(   5 )=       0.000168   gamma___=       0.000555 meV   omega=    137.7416 meV
     lambda_tr(   5 )=       0.000168   gamma_tr=       0.000555 meV   omega=    137.7416 meV
     lambda___(   6 )=       0.000060   gamma___=       0.000245 meV   omega=    153.0793 meV
     lambda_tr(   6 )=       0.000060   gamma_tr=       0.000245 meV   omega=    153.0793 meV
     lambda___( tot )=       0.000400
     lambda_tr( tot )=       0.000400


     Real and Imaginary part of the phonon self-energy (omega=0) without gamma0.
     Omega(   1 )=   0.0777 eV   Re[Pi]=      -0.026525 meV Im[Pi]=      -0.000001 meV
     Omega(   2 )=   0.0777 eV   Re[Pi]=      -0.026525 meV Im[Pi]=      -0.000001 meV
     Omega(   3 )=   0.1360 eV   Re[Pi]=      -0.307306 meV Im[Pi]=      -0.000000 meV
     Omega(   4 )=   0.1377 eV   Re[Pi]=      -3.637729 meV Im[Pi]=       0.000012 meV
     Omega(   5 )=   0.1377 eV   Re[Pi]=      -3.637729 meV Im[Pi]=       0.000012 meV
     Omega(   6 )=   0.1531 eV   Re[Pi]=      -1.287105 meV Im[Pi]=      -0.000002 meV
     Number of (k,k+q) pairs on the Fermi surface:      216 out of      216
     -------------------------------------------------------------------


     ismear =     1 iq =      20 coord.:   0.00000  0.50000  0.16667 wt:   0.00463 Temp:  300.000K
     -------------------------------------------------------------------
     lambda___(   1 )=       0.000000   gamma___=       0.000000 meV   omega=     83.1120 meV
     lambda_tr(   1 )=       0.000000   gamma_tr=       0.000000 meV   omega=     83.1120 meV
     lambda___(   2 )=       0.000000   gamma___=       0.000000 meV   omega=     91.5814 meV
     lambda_tr(   2 )=       0.000000   gamma_tr=       0.000000 meV   omega=     91.5814 meV
     lambda___(   3 )=       0.000000   gamma___=       0.000000 meV   omega=    128.2610 meV
     lambda_tr(   3 )=       0.000000   gamma_tr=       0.000000 meV   omega=    128.2610 meV
     lambda___(   4 )=       0.000000   gamma___=       0.000000 meV   omega=    138.9800 meV
     lambda_tr(   4 )=       0.000000   gamma_tr=       0.000000 meV   omega=    138.9800 meV
     lambda___(   5 )=       0.000000   gamma___=       0.000000 meV   omega=    145.4692 meV
     lambda_tr(   5 )=       0.000000   gamma_tr=       0.000000 meV   omega=    145.4692 meV
     lambda___(   6 )=       0.000000   gamma___=       0.000000 meV   omega=    150.6889 meV
     lambda_tr(   6 )=       0.000000   gamma_tr=       0.000000 meV   omega=    150.6889 meV
     lambda___( tot )=       0.000000
     lambda_tr( tot )=       0.000000

     ismear =     2 iq =      20 coord.:   0.00000  0.50000  0.16667 wt:   0.00463 Temp:  300.000K
     -------------------------------------------------------------------
     lambda___(   1 )=       0.000000   gamma___=       0.000000 meV   omega=     83.1120 meV
     lambda_tr(   1 )=       0.000000   gamma_tr=       0.000000 meV   omega=     83.1120 meV
     lambda___(   2 )=       0.000000   gamma___=       0.000000 meV   omega=     91.5814 meV
     lambda_tr(   2 )=       0.000000   gamma_tr=       0.000000 meV   omega=     91.5814 meV
     lambda___(   3 )=       0.000000   gamma___=       0.000000 meV   omega=    128.2610 meV
     lambda_tr(   3 )=       0.000000   gamma_tr=       0.000000 meV   omega=    128.2610 meV
     lambda___(   4 )=       0.000000   gamma___=       0.000000 meV   omega=    138.9800 meV
     lambda_tr(   4 )=       0.000000   gamma_tr=       0.000000 meV   omega=    138.9800 meV
     lambda___(   5 )=       0.000000   gamma___=       0.000000 meV   omega=    145.4692 meV
     lambda_tr(   5 )=       0.000000   gamma_tr=       0.000000 meV   omega=    145.4692 meV
     lambda___(   6 )=       0.000000   gamma___=       0.000000 meV   omega=    150.6889 meV
     lambda_tr(   6 )=       0.000000   gamma_tr=       0.000000 meV   omega=    150.6889 meV
     lambda___( tot )=       0.000000
     lambda_tr( tot )=       0.000000


     Real and Imaginary part of the phonon self-energy (omega=0) without gamma0.
     Omega(   1 )=   0.0831 eV   Re[Pi]=      -0.071479 meV Im[Pi]=       0.000000 meV
     Omega(   2 )=   0.0916 eV   Re[Pi]=      -0.191296 meV Im[Pi]=       0.000000 meV
     Omega(   3 )=   0.1283 eV   Re[Pi]=      -0.481243 meV Im[Pi]=       0.000000 meV
     Omega(   4 )=   0.1390 eV   Re[Pi]=      -2.363549 meV Im[Pi]=       0.000000 meV
     Omega(   5 )=   0.1455 eV   Re[Pi]=      -2.063510 meV Im[Pi]=       0.000000 meV
     Omega(   6 )=   0.1507 eV   Re[Pi]=      -1.103285 meV Im[Pi]=       0.000000 meV
     Number of (k,k+q) pairs on the Fermi surface:      216 out of      216
     -------------------------------------------------------------------


     ismear =     1 iq =      21 coord.:   0.00000  0.50000  0.33333 wt:   0.00463 Temp:  300.000K
     -------------------------------------------------------------------
     lambda___(   1 )=       0.000000   gamma___=       0.000000 meV   omega=     99.0222 meV
     lambda_tr(   1 )=       0.000000   gamma_tr=       0.000000 meV   omega=     99.0222 meV
     lambda___(   2 )=       0.000000   gamma___=       0.000000 meV   omega=    108.8368 meV
     lambda_tr(   2 )=       0.000000   gamma_tr=       0.000000 meV   omega=    108.8368 meV
     lambda___(   3 )=       0.000000   gamma___=       0.000000 meV   omega=    131.0354 meV
     lambda_tr(   3 )=       0.000000   gamma_tr=       0.000000 meV   omega=    131.0354 meV
     lambda___(   4 )=       0.000000   gamma___=       0.000000 meV   omega=    138.2382 meV
     lambda_tr(   4 )=       0.000000   gamma_tr=       0.000000 meV   omega=    138.2382 meV
     lambda___(   5 )=       0.000000   gamma___=       0.000000 meV   omega=    144.8447 meV
     lambda_tr(   5 )=       0.000000   gamma_tr=       0.000000 meV   omega=    144.8447 meV
     lambda___(   6 )=       0.000000   gamma___=       0.000000 meV   omega=    155.5633 meV
     lambda_tr(   6 )=       0.000000   gamma_tr=       0.000000 meV   omega=    155.5633 meV
     lambda___( tot )=       0.000000
     lambda_tr( tot )=       0.000000

     ismear =     2 iq =      21 coord.:   0.00000  0.50000  0.33333 wt:   0.00463 Temp:  300.000K
     -------------------------------------------------------------------
     lambda___(   1 )=       0.000000   gamma___=       0.000000 meV   omega=     99.0222 meV
     lambda_tr(   1 )=       0.000000   gamma_tr=       0.000000 meV   omega=     99.0222 meV
[...]
     lambda___(   6 )=       0.128574   gamma___=       0.438610 meV   omega=    140.1924 meV
     lambda_tr(   6 )=       0.128574   gamma_tr=       0.438611 meV   omega=    140.1924 meV
     lambda___( tot )=       0.356488
     lambda_tr( tot )=       0.356488


     Real and Imaginary part of the phonon self-energy (omega=0) without gamma0.
     Omega(   1 )=   0.0383 eV   Re[Pi]=      -0.231111 meV Im[Pi]=       0.004984 meV
     Omega(   2 )=   0.0417 eV   Re[Pi]=      -0.150731 meV Im[Pi]=       0.001980 meV
     Omega(   3 )=   0.0623 eV   Re[Pi]=      -0.917453 meV Im[Pi]=       0.005067 meV
     Omega(   4 )=   0.1318 eV   Re[Pi]=      -6.947289 meV Im[Pi]=       0.042669 meV
     Omega(   5 )=   0.1328 eV   Re[Pi]=      -6.668843 meV Im[Pi]=       0.043266 meV
     Omega(   6 )=   0.1402 eV   Re[Pi]=      -6.840952 meV Im[Pi]=       0.038352 meV
     Number of (k,k+q) pairs on the Fermi surface:      216 out of      216
     -------------------------------------------------------------------


     ismear =     1 iq =     212 coord.:   0.83333  0.83333  0.16667 wt:   0.00463 Temp:  300.000K
     -------------------------------------------------------------------
     lambda___(   1 )=       0.000013   gamma___=       0.000010 meV   omega=     66.0696 meV
     lambda_tr(   1 )=       0.000013   gamma_tr=       0.000010 meV   omega=     66.0696 meV
     lambda___(   2 )=       0.000045   gamma___=       0.000036 meV   omega=     68.1596 meV
     lambda_tr(   2 )=       0.000045   gamma_tr=       0.000036 meV   omega=     68.1596 meV
     lambda___(   3 )=       0.000080   gamma___=       0.000139 meV   omega=    100.2642 meV
     lambda_tr(   3 )=       0.000080   gamma_tr=       0.000139 meV   omega=    100.2642 meV
     lambda___(   4 )=       0.000418   gamma___=       0.001441 meV   omega=    140.6695 meV
     lambda_tr(   4 )=       0.000418   gamma_tr=       0.001441 meV   omega=    140.6695 meV
     lambda___(   5 )=       0.000683   gamma___=       0.002430 meV   omega=    142.9191 meV
     lambda_tr(   5 )=       0.000683   gamma_tr=       0.002430 meV   omega=    142.9191 meV
     lambda___(   6 )=       0.000061   gamma___=       0.000254 meV   omega=    154.9052 meV
     lambda_tr(   6 )=       0.000061   gamma_tr=       0.000254 meV   omega=    154.9052 meV
     lambda___( tot )=       0.001298
     lambda_tr( tot )=       0.001298

     ismear =     2 iq =     212 coord.:   0.83333  0.83333  0.16667 wt:   0.00463 Temp:  300.000K
     -------------------------------------------------------------------
     lambda___(   1 )=       0.000015   gamma___=       0.000011 meV   omega=     66.0696 meV
     lambda_tr(   1 )=       0.000015   gamma_tr=       0.000011 meV   omega=     66.0696 meV
     lambda___(   2 )=       0.000051   gamma___=       0.000041 meV   omega=     68.1596 meV
     lambda_tr(   2 )=       0.000051   gamma_tr=       0.000041 meV   omega=     68.1596 meV
     lambda___(   3 )=       0.000092   gamma___=       0.000160 meV   omega=    100.2642 meV
     lambda_tr(   3 )=       0.000092   gamma_tr=       0.000160 meV   omega=    100.2642 meV
     lambda___(   4 )=       0.000480   gamma___=       0.001649 meV   omega=    140.6695 meV
     lambda_tr(   4 )=       0.000480   gamma_tr=       0.001649 meV   omega=    140.6695 meV
     lambda___(   5 )=       0.000783   gamma___=       0.002775 meV   omega=    142.9191 meV
     lambda_tr(   5 )=       0.000783   gamma_tr=       0.002775 meV   omega=    142.9191 meV
     lambda___(   6 )=       0.000070   gamma___=       0.000292 meV   omega=    154.9052 meV
     lambda_tr(   6 )=       0.000070   gamma_tr=       0.000292 meV   omega=    154.9052 meV
     lambda___( tot )=       0.001491
     lambda_tr( tot )=       0.001491


     Real and Imaginary part of the phonon self-energy (omega=0) without gamma0.
     Omega(   1 )=   0.0661 eV   Re[Pi]=      -0.077123 meV Im[Pi]=      -0.000003 meV
     Omega(   2 )=   0.0682 eV   Re[Pi]=      -0.240713 meV Im[Pi]=       0.000006 meV
     Omega(   3 )=   0.1003 eV   Re[Pi]=      -0.542962 meV Im[Pi]=       0.000010 meV
     Omega(   4 )=   0.1407 eV   Re[Pi]=      -3.380772 meV Im[Pi]=       0.000044 meV
     Omega(   5 )=   0.1429 eV   Re[Pi]=      -3.456790 meV Im[Pi]=       0.000217 meV
     Omega(   6 )=   0.1549 eV   Re[Pi]=      -2.142348 meV Im[Pi]=       0.000021 meV
     Number of (k,k+q) pairs on the Fermi surface:      216 out of      216
     -------------------------------------------------------------------


     ismear =     1 iq =     213 coord.:   0.83333  0.83333  0.33333 wt:   0.00463 Temp:  300.000K
     -------------------------------------------------------------------
     lambda___(   1 )=       0.000000   gamma___=       0.000000 meV   omega=     79.7158 meV
     lambda_tr(   1 )=       0.000000   gamma_tr=       0.000000 meV   omega=     79.7158 meV
     lambda___(   2 )=       0.000000   gamma___=       0.000000 meV   omega=     87.7340 meV
     lambda_tr(   2 )=       0.000000   gamma_tr=       0.000000 meV   omega=     87.7340 meV
     lambda___(   3 )=       0.000000   gamma___=       0.000000 meV   omega=    126.6671 meV
     lambda_tr(   3 )=       0.000000   gamma_tr=       0.000000 meV   omega=    126.6671 meV
     lambda___(   4 )=       0.000000   gamma___=       0.000000 meV   omega=    140.9268 meV
     lambda_tr(   4 )=       0.000000   gamma_tr=       0.000000 meV   omega=    140.9268 meV
     lambda___(   5 )=       0.000000   gamma___=       0.000000 meV   omega=    146.5202 meV
     lambda_tr(   5 )=       0.000000   gamma_tr=       0.000000 meV   omega=    146.5202 meV
     lambda___(   6 )=       0.000000   gamma___=       0.000000 meV   omega=    153.3120 meV
     lambda_tr(   6 )=       0.000000   gamma_tr=       0.000000 meV   omega=    153.3120 meV
     lambda___( tot )=       0.000000
     lambda_tr( tot )=       0.000000

     ismear =     2 iq =     213 coord.:   0.83333  0.83333  0.33333 wt:   0.00463 Temp:  300.000K
     -------------------------------------------------------------------
     lambda___(   1 )=       0.000000   gamma___=       0.000000 meV   omega=     79.7158 meV
     lambda_tr(   1 )=       0.000000   gamma_tr=       0.000000 meV   omega=     79.7158 meV
     lambda___(   2 )=       0.000000   gamma___=       0.000000 meV   omega=     87.7340 meV
     lambda_tr(   2 )=       0.000000   gamma_tr=       0.000000 meV   omega=     87.7340 meV
     lambda___(   3 )=       0.000000   gamma___=       0.000000 meV   omega=    126.6671 meV
     lambda_tr(   3 )=       0.000000   gamma_tr=       0.000000 meV   omega=    126.6671 meV
     lambda___(   4 )=       0.000000   gamma___=       0.000000 meV   omega=    140.9268 meV
     lambda_tr(   4 )=       0.000000   gamma_tr=       0.000000 meV   omega=    140.9268 meV
     lambda___(   5 )=       0.000000   gamma___=       0.000000 meV   omega=    146.5202 meV
     lambda_tr(   5 )=       0.000000   gamma_tr=       0.000000 meV   omega=    146.5202 meV
     lambda___(   6 )=       0.000000   gamma___=       0.000000 meV   omega=    153.3120 meV
     lambda_tr(   6 )=       0.000000   gamma_tr=       0.000000 meV   omega=    153.3120 meV
     lambda___( tot )=       0.000000
     lambda_tr( tot )=       0.000000


     Real and Imaginary part of the phonon self-energy (omega=0) without gamma0.
     Omega(   1 )=   0.0797 eV   Re[Pi]=      -0.080939 meV Im[Pi]=       0.000000 meV
     Omega(   2 )=   0.0877 eV   Re[Pi]=      -0.192633 meV Im[Pi]=       0.000000 meV
     Omega(   3 )=   0.1267 eV   Re[Pi]=      -0.402107 meV Im[Pi]=       0.000000 meV
     Omega(   4 )=   0.1409 eV   Re[Pi]=      -2.382171 meV Im[Pi]=       0.000000 meV
     Omega(   5 )=   0.1465 eV   Re[Pi]=      -2.030831 meV Im[Pi]=       0.000000 meV
     Omega(   6 )=   0.1533 eV   Re[Pi]=      -1.206145 meV Im[Pi]=      -0.000000 meV
     Number of (k,k+q) pairs on the Fermi surface:      216 out of      216
     -------------------------------------------------------------------


     ismear =     1 iq =     214 coord.:   0.83333  0.83333  0.50000 wt:   0.00463 Temp:  300.000K
     -------------------------------------------------------------------
     lambda___(   1 )=       0.000064   gamma___=       0.000060 meV   omega=     73.6387 meV
     lambda_tr(   1 )=       0.000064   gamma_tr=       0.000060 meV   omega=     73.6387 meV
     lambda___(   2 )=       0.000011   gamma___=       0.000014 meV   omega=     86.1008 meV
     lambda_tr(   2 )=       0.000011   gamma_tr=       0.000014 meV   omega=     86.1008 meV
     lambda___(   3 )=       0.000048   gamma___=       0.000116 meV   omega=    118.3705 meV
     lambda_tr(   3 )=       0.000048   gamma_tr=       0.000116 meV   omega=    118.3705 meV
     lambda___(   4 )=       0.000424   gamma___=       0.001470 meV   omega=    141.0498 meV
     lambda_tr(   4 )=       0.000424   gamma_tr=       0.001470 meV   omega=    141.0498 meV
     lambda___(   5 )=       0.000253   gamma___=       0.000949 meV   omega=    146.7043 meV
     lambda_tr(   5 )=       0.000253   gamma_tr=       0.000949 meV   omega=    146.7043 meV
     lambda___(   6 )=       0.000191   gamma___=       0.000785 meV   omega=    153.3472 meV
     lambda_tr(   6 )=       0.000191   gamma_tr=       0.000785 meV   omega=    153.3472 meV
     lambda___( tot )=       0.000991
     lambda_tr( tot )=       0.000991

     ismear =     2 iq =     214 coord.:   0.83333  0.83333  0.50000 wt:   0.00463 Temp:  300.000K
     -------------------------------------------------------------------
     lambda___(   1 )=       0.000074   gamma___=       0.000070 meV   omega=     73.6387 meV
     lambda_tr(   1 )=       0.000074   gamma_tr=       0.000070 meV   omega=     73.6387 meV
     lambda___(   2 )=       0.000013   gamma___=       0.000016 meV   omega=     86.1008 meV
     lambda_tr(   2 )=       0.000013   gamma_tr=       0.000016 meV   omega=     86.1008 meV
     lambda___(   3 )=       0.000055   gamma___=       0.000134 meV   omega=    118.3705 meV
     lambda_tr(   3 )=       0.000055   gamma_tr=       0.000134 meV   omega=    118.3705 meV
     lambda___(   4 )=       0.000490   gamma___=       0.001691 meV   omega=    141.0498 meV
     lambda_tr(   4 )=       0.000490   gamma_tr=       0.001691 meV   omega=    141.0498 meV
     lambda___(   5 )=       0.000292   gamma___=       0.001091 meV   omega=    146.7043 meV
     lambda_tr(   5 )=       0.000292   gamma_tr=       0.001091 meV   omega=    146.7043 meV
     lambda___(   6 )=       0.000221   gamma___=       0.000902 meV   omega=    153.3472 meV
     lambda_tr(   6 )=       0.000221   gamma_tr=       0.000902 meV   omega=    153.3472 meV
     lambda___( tot )=       0.001145
     lambda_tr( tot )=       0.001145


     Real and Imaginary part of the phonon self-energy (omega=0) without gamma0.
     Omega(   1 )=   0.0736 eV   Re[Pi]=      -0.213448 meV Im[Pi]=      -0.000000 meV
     Omega(   2 )=   0.0861 eV   Re[Pi]=      -0.106405 meV Im[Pi]=      -0.000001 meV
     Omega(   3 )=   0.1184 eV   Re[Pi]=      -0.390542 meV Im[Pi]=       0.000001 meV
     Omega(   4 )=   0.1410 eV   Re[Pi]=      -2.999267 meV Im[Pi]=       0.000030 meV
     Omega(   5 )=   0.1467 eV   Re[Pi]=      -2.436849 meV Im[Pi]=       0.000060 meV
     Omega(   6 )=   0.1533 eV   Re[Pi]=      -1.350447 meV Im[Pi]=       0.000012 meV
     Number of (k,k+q) pairs on the Fermi surface:      216 out of      216
     -------------------------------------------------------------------


     ismear =     1 iq =     215 coord.:   0.83333  0.83333  0.66667 wt:   0.00463 Temp:  300.000K
     -------------------------------------------------------------------
     lambda___(   1 )=       0.084994   gamma___=       0.041223 meV   omega=     52.7488 meV
     lambda_tr(   1 )=       0.084993   gamma_tr=       0.041223 meV   omega=     52.7488 meV
     lambda___(   2 )=       0.000233   gamma___=       0.000169 meV   omega=     64.5255 meV
     lambda_tr(   2 )=       0.000233   gamma_tr=       0.000169 meV   omega=     64.5255 meV
     lambda___(   3 )=       0.033439   gamma___=       0.044048 meV   omega=     86.9315 meV
     lambda_tr(   3 )=       0.033439   gamma_tr=       0.044048 meV   omega=     86.9315 meV
     lambda___(   4 )=       0.252845   gamma___=       0.820848 meV   omega=    136.4715 meV
     lambda_tr(   4 )=       0.252845   gamma_tr=       0.820848 meV   omega=    136.4715 meV
     lambda___(   5 )=       0.245542   gamma___=       0.842340 meV   omega=    140.2874 meV
     lambda_tr(   5 )=       0.245543   gamma_tr=       0.842343 meV   omega=    140.2874 meV
     lambda___(   6 )=      -0.000002   gamma___=      -0.000008 meV   omega=    148.0964 meV
     lambda_tr(   6 )=      -0.000002   gamma_tr=      -0.000008 meV   omega=    148.0964 meV
     lambda___( tot )=       0.617050
     lambda_tr( tot )=       0.617051

     ismear =     2 iq =     215 coord.:   0.83333  0.83333  0.66667 wt:   0.00463 Temp:  300.000K
     -------------------------------------------------------------------
     lambda___(   1 )=       0.086086   gamma___=       0.041575 meV   omega=     52.7488 meV
     lambda_tr(   1 )=       0.086086   gamma_tr=       0.041575 meV   omega=     52.7488 meV
     lambda___(   2 )=       0.000232   gamma___=       0.000168 meV   omega=     64.5255 meV
     lambda_tr(   2 )=       0.000232   gamma_tr=       0.000168 meV   omega=     64.5255 meV
     lambda___(   3 )=       0.033627   gamma___=       0.044108 meV   omega=     86.9315 meV
     lambda_tr(   3 )=       0.033627   gamma_tr=       0.044108 meV   omega=     86.9315 meV
     lambda___(   4 )=       0.253178   gamma___=       0.818440 meV   omega=    136.4715 meV
     lambda_tr(   4 )=       0.253178   gamma_tr=       0.818440 meV   omega=    136.4715 meV
     lambda___(   5 )=       0.245565   gamma___=       0.838844 meV   omega=    140.2874 meV
     lambda_tr(   5 )=       0.245566   gamma_tr=       0.838847 meV   omega=    140.2874 meV
     lambda___(   6 )=      -0.000002   gamma___=      -0.000007 meV   omega=    148.0964 meV
     lambda_tr(   6 )=      -0.000002   gamma_tr=      -0.000007 meV   omega=    148.0964 meV
     lambda___( tot )=       0.618686
     lambda_tr( tot )=       0.618687


     Real and Imaginary part of the phonon self-energy (omega=0) without gamma0.
     Omega(   1 )=   0.0527 eV   Re[Pi]=      -0.345870 meV Im[Pi]=      -0.014214 meV
     Omega(   2 )=   0.0645 eV   Re[Pi]=      -0.055449 meV Im[Pi]=       0.000106 meV
     Omega(   3 )=   0.0869 eV   Re[Pi]=      -0.483252 meV Im[Pi]=       0.000419 meV
     Omega(   4 )=   0.1365 eV   Re[Pi]=      -5.968578 meV Im[Pi]=       0.179929 meV
     Omega(   5 )=   0.1403 eV   Re[Pi]=      -5.271970 meV Im[Pi]=       0.236873 meV
     Omega(   6 )=   0.1481 eV   Re[Pi]=      -2.346300 meV Im[Pi]=       0.000073 meV
     Number of (k,k+q) pairs on the Fermi surface:      216 out of      216
     -------------------------------------------------------------------


     ismear =     1 iq =     216 coord.:   0.83333  0.83333  0.83333 wt:   0.00463 Temp:  300.000K
     -------------------------------------------------------------------
     lambda___(   1 )=       0.205820   gamma___=       0.040550 meV   omega=     33.6194 meV
     lambda_tr(   1 )=       0.205820   gamma_tr=       0.040550 meV   omega=     33.6194 meV
     lambda___(   2 )=       0.184411   gamma___=       0.039790 meV   omega=     35.1829 meV
     lambda_tr(   2 )=       0.184413   gamma_tr=       0.039790 meV   omega=     35.1829 meV
     lambda___(   3 )=       0.104383   gamma___=       0.064167 meV   omega=     59.3852 meV
     lambda_tr(   3 )=       0.104384   gamma_tr=       0.064168 meV   omega=     59.3852 meV
     lambda___(   4 )=       0.945042   gamma___=       2.646293 meV   omega=    126.7451 meV
     lambda_tr(   4 )=       0.945044   gamma_tr=       2.646299 meV   omega=    126.7451 meV
     lambda___(   5 )=       0.965974   gamma___=       2.722955 meV   omega=    127.1672 meV
     lambda_tr(   5 )=       0.965979   gamma_tr=       2.722968 meV   omega=    127.1672 meV
     lambda___(   6 )=       0.261360   gamma___=       0.831535 meV   omega=    135.1009 meV
     lambda_tr(   6 )=       0.261361   gamma_tr=       0.831538 meV   omega=    135.1009 meV
     lambda___( tot )=       2.666990
     lambda_tr( tot )=       2.667000

     ismear =     2 iq =     216 coord.:   0.83333  0.83333  0.83333 wt:   0.00463 Temp:  300.000K
     -------------------------------------------------------------------
     lambda___(   1 )=       0.204966   gamma___=       0.040211 meV   omega=     33.6194 meV
     lambda_tr(   1 )=       0.204967   gamma_tr=       0.040211 meV   omega=     33.6194 meV
     lambda___(   2 )=       0.183678   gamma___=       0.039464 meV   omega=     35.1829 meV
     lambda_tr(   2 )=       0.183679   gamma_tr=       0.039464 meV   omega=     35.1829 meV
     lambda___(   3 )=       0.102069   gamma___=       0.062478 meV   omega=     59.3852 meV
     lambda_tr(   3 )=       0.102070   gamma_tr=       0.062479 meV   omega=     59.3852 meV
     lambda___(   4 )=       0.927841   gamma___=       2.587100 meV   omega=    126.7451 meV
     lambda_tr(   4 )=       0.927843   gamma_tr=       2.587106 meV   omega=    126.7451 meV
     lambda___(   5 )=       0.948904   gamma___=       2.663483 meV   omega=    127.1672 meV
     lambda_tr(   5 )=       0.948909   gamma_tr=       2.663496 meV   omega=    127.1672 meV
     lambda___(   6 )=       0.255694   gamma___=       0.810055 meV   omega=    135.1009 meV
     lambda_tr(   6 )=       0.255695   gamma_tr=       0.810058 meV   omega=    135.1009 meV
     lambda___( tot )=       2.623152
     lambda_tr( tot )=       2.623163


     Real and Imaginary part of the phonon self-energy (omega=0) without gamma0.
     Omega(   1 )=   0.0336 eV   Re[Pi]=      -0.218861 meV Im[Pi]=      -0.019991 meV
     Omega(   2 )=   0.0352 eV   Re[Pi]=      -0.209884 meV Im[Pi]=      -0.019979 meV
     Omega(   3 )=   0.0594 eV   Re[Pi]=      -0.526614 meV Im[Pi]=       0.027101 meV
     Omega(   4 )=   0.1267 eV   Re[Pi]=      -9.253081 meV Im[Pi]=       0.603196 meV
     Omega(   5 )=   0.1272 eV   Re[Pi]=      -9.277909 meV Im[Pi]=       0.546158 meV
     Omega(   6 )=   0.1351 eV   Re[Pi]=      -6.053372 meV Im[Pi]=       0.362552 meV
     Number of (k,k+q) pairs on the Fermi surface:      216 out of      216
     -------------------------------------------------------------------

     ===================================================================
     Memory usage:  VmHWM =        28Mb
                   VmPeak =       592Mb
     ===================================================================


     Unfolding on the coarse grid
     elphon_wrap  :      0.01s CPU      0.01s WALL (       1 calls)

     INITIALIZATION: 




     Electron-Phonon interpolation
     ephwann      :      2.65s CPU      2.89s WALL (       1 calls)
     ep-interp    :      2.57s CPU      2.81s WALL (     216 calls)
     PH SELF-ENER :      0.14s CPU      0.15s WALL (     432 calls)

     DynW2B       :      0.01s CPU      0.01s WALL (     216 calls)
     HamW2B       :      0.25s CPU      0.29s WALL (   23490 calls)
     ephW2Bp      :      0.05s CPU      0.05s WALL (     216 calls)
     ephW2B       :      0.13s CPU      0.15s WALL (   11664 calls)


     Total program execution
     EPW          :      2.66s CPU      2.90s WALL

     ===============================================================================
     The functionality-dependent EPW.bib file was created with suggested citations. 
     Please consider citing the papers listed in EPW.bib.                           
     ===============================================================================
                                                                                    
