                                                                                      
                                       ``:oss/                                        
                           `.+s+.     .+ys--yh+     `./ss+.                           
                          -sh//yy+`   +yy   +yy    -+h+-oyy                           
                          -yh- .oyy/.-sh.   .syo-.:sy-  /yh                           
                 `.-.`    `yh+   -oyyyo.     `/syys:    oys      `.`                  
               `/+ssys+-` `sh+      `                   oys`   .:osyo`                
               -yh- ./syyooyo`                          .sys+/oyo--yh/                
               `yy+    .-:-.                             `-/+/:`  -sh-                
                /yh.                                              oys                 
          ``..---hho---------`   .---------..`      `.-----.`    -hd+---.             
       `./osmNMMMMMMMMMMMMMMMs. +NNMMMMMMMMNNmh+.   yNMMMMMNm-  oNMMMMMNmo++:`        
       +sy--/sdMMMhyyyyyyyNMMh- .oyNMMmyyyyyhNMMm+` -yMMMdyyo:` .oyyNMMNhs+syy`       
       -yy/   /MMM+.`-+/``mMMy-   `mMMh:`````.dMMN:` `MMMy-`-dhhy```mMMy:``+hs        
        -yy+` /MMMo:-mMM+`-oo/.    mMMh:     `dMMN/`  dMMm:`dMMMMy..MMMo-.+yo`        
         .sys`/MMMMNNMMMs-         mMMmyooooymMMNo:   oMMM/sMMMMMM++MMN//oh:          
          `sh+/MMMhyyMMMs- `-`     mMMMMMMMMMNmy+-`   -MMMhMMMsmMMmdMMd/yy+           
    `-/+++oyy-/MMM+.`/hh/.`mNm:`   mMMd+/////:-.`      NMMMMMd/:NMMMMMy:/yyo/:.`      
   +os+//:-..-oMMMo:--:::-/MMMo. .-mMMd+---`           hMMMMN+. oMMMMMo. `-+osyso:`   
   syo     `mNMMMMMNNNNNNNNMMMo.oNNMMMMMNNNN:`         +MMMMs:`  dMMMN/`     ``:syo   
   /yh`     :syyyyyyyyyyyyyyyy+.`+syyyyyyyyo:`         .oyys:`   .oyys:`        +yh   
   -yh-        ````````````````    `````````              ``        ``          oys   
   -+h/------------------------::::::::://////++++++++++++++++++++++///////::::/yd:   
   shdddddddddddddddddddddddddddddhhhhhhhhyyyyyssssssssssssssssyyyyyyyhhhhhhhddddh`   
                                                                                      
  S. Ponce, E. R. Margine, C. Verdi, and F. Giustino,                                 
                                                Comput. Phys. Commun. 209, 116 (2016) 
                                                                                      

     Program EPW v.4.2.0 (svn rev. 13615) starts on 24Jul2017 at 17:38:57 

     This program is part of the open-source Quantum ESPRESSO suite
     for quantum simulation of materials; please cite
         "P. Giannozzi et al., J. Phys.:Condens. Matter 21 395502 (2009);
          URL http://www.quantum-espresso.org", 
     in publications or presentations arising from this work. More details at
     http://www.quantum-espresso.org/quote

     Parallel version (MPI), running on     1 processors
                      
     ------------------------------------------------------------------------ 
                   RESTART - RESTART - RESTART - RESTART                         
     Restart is done without reading PWSCF save file.                  
     Be aware that some consistency checks are therefore not done.                  
     ------------------------------------------------------------------------ 
                      

     --                                                                         

     bravais-lattice index     =            0
     lattice parameter (a_0)   =       0.0000  a.u.
     unit-cell volume          =       0.0000 (a.u.)^3
     number of atoms/cell      =            0
     number of atomic types    =            0
     kinetic-energy cut-off    =       0.0000  Ry
     charge density cut-off    =       0.0000  Ry
     convergence threshold     =      0.0E+00
     beta                      =       0.0000
     number of iterations used =            0
     Exchange-correlation      = not set (-1 -1 -1 -1-1-1)


     celldm(1)=    0.00000  celldm(2)=    0.00000  celldm(3)=    0.00000
     celldm(4)=    0.00000  celldm(5)=    0.00000  celldm(6)=    0.00000

     crystal axes: (cart. coord. in units of a_0)
               a(1) = (  0.0000  0.0000  0.0000 )  
               a(2) = (  0.0000  0.0000  0.0000 )  
               a(3) = (  0.0000  0.0000  0.0000 )  

     reciprocal axes: (cart. coord. in units 2 pi/a_0)
               b(1) = (  0.0000  0.0000  0.0000 )  
               b(2) = (  0.0000  0.0000  0.0000 )  
               b(3) = (  0.0000  0.0000  0.0000 )  


     Atoms inside the unit cell: 

   Cartesian axes

     site n.  atom      mass           positions (a_0 units)


     No symmetry!

     G cutoff =    0.0000  (      0 G-vectors)     FFT grid: (  0,  0,  0)
     number of k points=    0
                       cart. coord. in units 2pi/a_0
     EPW          :     0.00s CPU         0.00s WALL

     EPW          :     0.00s CPU         0.00s WALL

     No wavefunction gauge setting applied

     -------------------------------------------------------------------
     Using diam.ukk from disk
     -------------------------------------------------------------------


     Using kmap and kgmap from disk

     Do not need to read .epb files; read .fmt files


              band disentanglement is used:  nbndsub =    4

     Reading Hamiltonian, Dynamical matrix and EP vertex in Wann rep from file


     Finished reading Wann rep data from file

     ===================================================================
     Memory usage:  VmHWM =        17Mb
                   VmPeak =       267Mb
     ===================================================================
     
     Using uniform q-mesh:    6   6   6
     Size of q point mesh for interpolation:        216
     Using uniform k-mesh:    6   6   6
     Size of k point mesh for interpolation:        432
     Max number of k points per pool:              432

     Fermi energy coarse grid =  14.009584 eV

     Fermi energy is calculated from the fine k-mesh: Ef =  13.576273 eV

     Warning: check if difference with Fermi level fine grid makes sense

     ===================================================================

              ibndmin =     1  ebndmin =    -0.074
              ibndmax =     4  ebndmax =     1.021


     Number of ep-matrix elements per pool :        20736 ~=  162.00 Kb (@ 8 bytes/ DP)

     ===================================================================
     Phonon (Imaginary) Self-Energy in the Migdal Approximation
     ===================================================================


     Fermi Surface thickness =  15.000000 eV

     Golden Rule strictly enforced with T =   0.025852 eV
     Gaussian Broadening:   1.000000 eV, ngauss=   1
     DOS =  0.055485 states/spin/eV/Unit Cell at Ef= 13.576273 eV

     ismear =     1 iq =       1 coord.:   0.00000  0.00000  0.00000 wt:   0.00463
     -------------------------------------------------------------------
     lambda   (   1 )=       0.000000   gamma   =       0.000000 meV   omega=      0.0003 meV
     lambda_tr(   1 )=       0.000000   gamma_tr=       0.000000 meV   omega=      0.0003 meV
     lambda   (   2 )=       0.000000   gamma   =       0.000000 meV   omega=      0.0003 meV
     lambda_tr(   2 )=       0.000000   gamma_tr=       0.000000 meV   omega=      0.0003 meV
     lambda   (   3 )=       0.000000   gamma   =       0.000000 meV   omega=      0.0003 meV
     lambda_tr(   3 )=       0.000000   gamma_tr=       0.000000 meV   omega=      0.0003 meV
     lambda   (   4 )=       0.000000   gamma   =       0.000000 meV   omega=    115.5526 meV
     lambda_tr(   4 )=       0.000000   gamma_tr=       0.000000 meV   omega=    115.5526 meV
     lambda   (   5 )=       0.000000   gamma   =       0.000000 meV   omega=    115.5526 meV
     lambda_tr(   5 )=       0.000000   gamma_tr=       0.000000 meV   omega=    115.5526 meV
     lambda   (   6 )=       0.000000   gamma   =       0.000000 meV   omega=    115.5526 meV
     lambda_tr(   6 )=       0.000000   gamma_tr=       0.000000 meV   omega=    115.5526 meV
     lambda( tot )=       0.000000
     lambda_tr( tot )=       0.000000

     ===================================================================
     Phonon Spectral Function Self-Energy in the Migdal Approximation (on the fly)
     ===================================================================


     Fermi Surface thickness =  15.000000 eV

     Golden Rule strictly enforced with T =   0.025852 eV
     Gaussian Broadening:   1.000000 eV, ngauss=   1
     DOS =  0.055485 states/spin/eV/Unit Cell at Ef= 13.576273 eV


     Real and Imaginary part of the phonon self-energy (omega=0).
     Omega(   1 )=   0.0000 eV   Re[Pi]=       0.000000 meV Im[Pi]=       0.000000 meV
     Omega(   2 )=   0.0000 eV   Re[Pi]=       0.000000 meV Im[Pi]=       0.000000 meV
     Omega(   3 )=   0.0000 eV   Re[Pi]=       0.000000 meV Im[Pi]=       0.000000 meV
     Omega(   4 )=   0.1156 eV   Re[Pi]=       0.086940 meV Im[Pi]=      -0.000000 meV
     Omega(   5 )=   0.1156 eV   Re[Pi]=       0.086940 meV Im[Pi]=       0.000000 meV
     Omega(   6 )=   0.1156 eV   Re[Pi]=       0.086940 meV Im[Pi]=       0.000000 meV
     Number of (k,k+q) pairs on the Fermi surface:      216 out of      216
     -------------------------------------------------------------------


     ismear =     1 iq =       2 coord.:   0.00000  0.00000  0.16667 wt:   0.00463
     -------------------------------------------------------------------
     lambda   (   1 )=       0.205736   gamma   =       0.040532 meV   omega=     33.6189 meV
     lambda_tr(   1 )=       0.205737   gamma_tr=       0.040532 meV   omega=     33.6189 meV
     lambda   (   2 )=       0.184420   gamma   =       0.039792 meV   omega=     35.1827 meV
     lambda_tr(   2 )=       0.184421   gamma_tr=       0.039792 meV   omega=     35.1827 meV
     lambda   (   3 )=       0.104391   gamma   =       0.064166 meV   omega=     59.3825 meV
     lambda_tr(   3 )=       0.104390   gamma_tr=       0.064166 meV   omega=     59.3825 meV
     lambda   (   4 )=       0.945046   gamma   =       2.646293 meV   omega=    126.7448 meV
     lambda_tr(   4 )=       0.945047   gamma_tr=       2.646297 meV   omega=    126.7448 meV
     lambda   (   5 )=       0.965981   gamma   =       2.722966 meV   omega=    127.1670 meV
     lambda_tr(   5 )=       0.965982   gamma_tr=       2.722969 meV   omega=    127.1670 meV
     lambda   (   6 )=       0.261354   gamma   =       0.831517 meV   omega=    135.1011 meV
     lambda_tr(   6 )=       0.261353   gamma_tr=       0.831515 meV   omega=    135.1011 meV
     lambda( tot )=       2.666928
     lambda_tr( tot )=       2.666930

     Omega(   1 )=   0.0336 eV   Re[Pi]=       0.218864 meV Im[Pi]=       0.019973 meV
     Omega(   2 )=   0.0352 eV   Re[Pi]=       0.209878 meV Im[Pi]=       0.019981 meV
     Omega(   3 )=   0.0594 eV   Re[Pi]=       0.526671 meV Im[Pi]=      -0.027109 meV
     Omega(   4 )=   0.1267 eV   Re[Pi]=       9.253112 meV Im[Pi]=      -0.603200 meV
     Omega(   5 )=   0.1272 eV   Re[Pi]=       9.277935 meV Im[Pi]=      -0.546151 meV
     Omega(   6 )=   0.1351 eV   Re[Pi]=       6.053343 meV Im[Pi]=      -0.362562 meV
     Number of (k,k+q) pairs on the Fermi surface:      216 out of      216
     -------------------------------------------------------------------


     ismear =     1 iq =       3 coord.:   0.00000  0.00000  0.33333 wt:   0.00463
     -------------------------------------------------------------------
     lambda   (   1 )=       0.000442   gamma   =       0.000292 meV   omega=     61.6010 meV
     lambda_tr(   1 )=       0.000442   gamma_tr=       0.000292 meV   omega=     61.6010 meV
     lambda   (   2 )=       0.000442   gamma   =       0.000292 meV   omega=     61.6010 meV
     lambda_tr(   2 )=       0.000442   gamma_tr=       0.000292 meV   omega=     61.6010 meV
     lambda   (   3 )=       0.000970   gamma   =       0.002033 meV   omega=    109.6585 meV
     lambda_tr(   3 )=       0.000970   gamma_tr=       0.002033 meV   omega=    109.6585 meV
     lambda   (   4 )=       0.015641   gamma   =       0.052713 meV   omega=    139.0486 meV
     lambda_tr(   4 )=       0.015641   gamma_tr=       0.052712 meV   omega=    139.0486 meV
     lambda   (   5 )=       0.015641   gamma   =       0.052713 meV   omega=    139.0486 meV
     lambda_tr(   5 )=       0.015641   gamma_tr=       0.052713 meV   omega=    139.0486 meV
     lambda   (   6 )=       0.004501   gamma   =       0.018866 meV   omega=    155.0734 meV
     lambda_tr(   6 )=       0.004501   gamma_tr=       0.018866 meV   omega=    155.0734 meV
     lambda( tot )=       0.037636
     lambda_tr( tot )=       0.037636

     Omega(   1 )=   0.0616 eV   Re[Pi]=       0.096342 meV Im[Pi]=      -0.000000 meV
     Omega(   2 )=   0.0616 eV   Re[Pi]=       0.096342 meV Im[Pi]=      -0.000000 meV
     Omega(   3 )=   0.1097 eV   Re[Pi]=       0.410115 meV Im[Pi]=       0.000000 meV
     Omega(   4 )=   0.1390 eV   Re[Pi]=       5.117548 meV Im[Pi]=      -0.000000 meV
     Omega(   5 )=   0.1390 eV   Re[Pi]=       5.117548 meV Im[Pi]=       0.000000 meV
     Omega(   6 )=   0.1551 eV   Re[Pi]=       1.966315 meV Im[Pi]=      -0.000000 meV
     Number of (k,k+q) pairs on the Fermi surface:      216 out of      216
     -------------------------------------------------------------------


     ismear =     1 iq =       4 coord.:   0.00000  0.00000  0.50000 wt:   0.00463
     -------------------------------------------------------------------
     lambda   (   1 )=      -0.000000   gamma   =      -0.000000 meV   omega=     71.2581 meV
     lambda_tr(   1 )=      -0.000000   gamma_tr=      -0.000000 meV   omega=     71.2581 meV
     lambda   (   2 )=       0.000000   gamma   =       0.000000 meV   omega=     72.6042 meV
     lambda_tr(   2 )=       0.000000   gamma_tr=       0.000000 meV   omega=     72.6042 meV
     lambda   (   3 )=      -0.000000   gamma   =      -0.000000 meV   omega=    131.6805 meV
     lambda_tr(   3 )=      -0.000000   gamma_tr=      -0.000000 meV   omega=    131.6805 meV
     lambda   (   4 )=       0.000148   gamma   =       0.000511 meV   omega=    140.4824 meV
     lambda_tr(   4 )=       0.000148   gamma_tr=       0.000511 meV   omega=    140.4824 meV
     lambda   (   5 )=       0.000147   gamma   =       0.000510 meV   omega=    141.1700 meV
     lambda_tr(   5 )=       0.000147   gamma_tr=       0.000510 meV   omega=    141.1700 meV
     lambda   (   6 )=       0.000049   gamma   =       0.000209 meV   omega=    156.8495 meV
     lambda_tr(   6 )=       0.000049   gamma_tr=       0.000209 meV   omega=    156.8495 meV
     lambda( tot )=       0.000344
     lambda_tr( tot )=       0.000344

     Omega(   1 )=   0.0713 eV   Re[Pi]=       0.030408 meV Im[Pi]=      -0.000000 meV
     Omega(   2 )=   0.0726 eV   Re[Pi]=       0.030908 meV Im[Pi]=      -0.000000 meV
     Omega(   3 )=   0.1317 eV   Re[Pi]=       0.316979 meV Im[Pi]=      -0.000000 meV
     Omega(   4 )=   0.1405 eV   Re[Pi]=       3.721602 meV Im[Pi]=       0.000004 meV
     Omega(   5 )=   0.1412 eV   Re[Pi]=       3.721217 meV Im[Pi]=       0.000001 meV
     Omega(   6 )=   0.1568 eV   Re[Pi]=       1.241408 meV Im[Pi]=       0.000005 meV
     Number of (k,k+q) pairs on the Fermi surface:      216 out of      216
     -------------------------------------------------------------------


     ismear =     1 iq =       5 coord.:   0.00000  0.00000  0.66667 wt:   0.00463
     -------------------------------------------------------------------
     lambda   (   1 )=       0.000442   gamma   =       0.000292 meV   omega=     61.6010 meV
     lambda_tr(   1 )=       0.000442   gamma_tr=       0.000292 meV   omega=     61.6010 meV
     lambda   (   2 )=       0.000442   gamma   =       0.000292 meV   omega=     61.6010 meV
     lambda_tr(   2 )=       0.000442   gamma_tr=       0.000292 meV   omega=     61.6010 meV
     lambda   (   3 )=       0.000970   gamma   =       0.002033 meV   omega=    109.6585 meV
     lambda_tr(   3 )=       0.000970   gamma_tr=       0.002033 meV   omega=    109.6585 meV
     lambda   (   4 )=       0.015641   gamma   =       0.052713 meV   omega=    139.0486 meV
     lambda_tr(   4 )=       0.015641   gamma_tr=       0.052713 meV   omega=    139.0486 meV
     lambda   (   5 )=       0.015641   gamma   =       0.052713 meV   omega=    139.0486 meV
     lambda_tr(   5 )=       0.015641   gamma_tr=       0.052713 meV   omega=    139.0486 meV
     lambda   (   6 )=       0.004501   gamma   =       0.018866 meV   omega=    155.0734 meV
     lambda_tr(   6 )=       0.004501   gamma_tr=       0.018866 meV   omega=    155.0734 meV
     lambda( tot )=       0.037636
     lambda_tr( tot )=       0.037636

     Omega(   1 )=   0.0616 eV   Re[Pi]=       0.096342 meV Im[Pi]=       0.000000 meV
     Omega(   2 )=   0.0616 eV   Re[Pi]=       0.096342 meV Im[Pi]=       0.000000 meV
     Omega(   3 )=   0.1097 eV   Re[Pi]=       0.410115 meV Im[Pi]=      -0.000000 meV
     Omega(   4 )=   0.1390 eV   Re[Pi]=       5.117548 meV Im[Pi]=       0.000000 meV
     Omega(   5 )=   0.1390 eV   Re[Pi]=       5.117548 meV Im[Pi]=      -0.000000 meV
     Omega(   6 )=   0.1551 eV   Re[Pi]=       1.966315 meV Im[Pi]=       0.000000 meV
     Number of (k,k+q) pairs on the Fermi surface:      216 out of      216
     -------------------------------------------------------------------


     ismear =     1 iq =       6 coord.:   0.00000  0.00000  0.83333 wt:   0.00463
     -------------------------------------------------------------------
     lambda   (   1 )=       0.205826   gamma   =       0.040550 meV   omega=     33.6189 meV
     lambda_tr(   1 )=       0.205827   gamma_tr=       0.040550 meV   omega=     33.6189 meV
     lambda   (   2 )=       0.184403   gamma   =       0.039788 meV   omega=     35.1827 meV
     lambda_tr(   2 )=       0.184403   gamma_tr=       0.039788 meV   omega=     35.1827 meV
     lambda   (   3 )=       0.104399   gamma   =       0.064171 meV   omega=     59.3825 meV
     lambda_tr(   3 )=       0.104400   gamma_tr=       0.064171 meV   omega=     59.3825 meV
     lambda   (   4 )=       0.945047   gamma   =       2.646297 meV   omega=    126.7448 meV
     lambda_tr(   4 )=       0.945047   gamma_tr=       2.646296 meV   omega=    126.7448 meV
     lambda   (   5 )=       0.965977   gamma   =       2.722954 meV   omega=    127.1670 meV
     lambda_tr(   5 )=       0.965977   gamma_tr=       2.722956 meV   omega=    127.1670 meV
     lambda   (   6 )=       0.261357   gamma   =       0.831528 meV   omega=    135.1011 meV
     lambda_tr(   6 )=       0.261357   gamma_tr=       0.831528 meV   omega=    135.1011 meV
     lambda( tot )=       2.667010
     lambda_tr( tot )=       2.667010

     Omega(   1 )=   0.0336 eV   Re[Pi]=       0.218873 meV Im[Pi]=       0.019990 meV
     Omega(   2 )=   0.0352 eV   Re[Pi]=       0.209876 meV Im[Pi]=       0.019978 meV
     Omega(   3 )=   0.0594 eV   Re[Pi]=       0.526682 meV Im[Pi]=      -0.027106 meV
     Omega(   4 )=   0.1267 eV   Re[Pi]=       9.253095 meV Im[Pi]=      -0.603191 meV
     Omega(   5 )=   0.1272 eV   Re[Pi]=       9.277913 meV Im[Pi]=      -0.546155 meV
     Omega(   6 )=   0.1351 eV   Re[Pi]=       6.053366 meV Im[Pi]=      -0.362558 meV
     Number of (k,k+q) pairs on the Fermi surface:      216 out of      216
     -------------------------------------------------------------------


     ismear =     1 iq =       7 coord.:   0.00000  0.16667  0.00000 wt:   0.00463
     -------------------------------------------------------------------
     lambda   (   1 )=      -1.831767   gamma   =      -0.081460 meV   omega=     15.9726 meV
     lambda_tr(   1 )=      -1.831770   gamma_tr=      -0.081460 meV   omega=     15.9726 meV
     lambda   (   2 )=      -1.833264   gamma   =      -0.081527 meV   omega=     15.9726 meV
     lambda_tr(   2 )=      -1.833266   gamma_tr=      -0.081527 meV   omega=     15.9726 meV
     lambda   (   3 )=       0.032536   gamma   =       0.017665 meV   omega=     55.8104 meV
     lambda_tr(   3 )=       0.032536   gamma_tr=       0.017665 meV   omega=     55.8104 meV
     lambda   (   4 )=       0.885570   gamma   =       2.631444 meV   omega=    130.5640 meV
     lambda_tr(   4 )=       0.885569   gamma_tr=       2.631443 meV   omega=    130.5640 meV
     lambda   (   5 )=       0.885572   gamma   =       2.631451 meV   omega=    130.5640 meV
     lambda_tr(   5 )=       0.885572   gamma_tr=       2.631449 meV   omega=    130.5640 meV
     lambda   (   6 )=       0.273222   gamma   =       0.888856 meV   omega=    136.6140 meV
     lambda_tr(   6 )=       0.273222   gamma_tr=       0.888856 meV   omega=    136.6140 meV
     lambda( tot )=      -1.588131
     lambda_tr( tot )=      -1.588137

     Omega(   1 )=   0.0160 eV   Re[Pi]=       1.049832 meV Im[Pi]=      -0.114190 meV
     Omega(   2 )=   0.0160 eV   Re[Pi]=       1.049801 meV Im[Pi]=      -0.114255 meV
     Omega(   3 )=   0.0558 eV   Re[Pi]=       0.534766 meV Im[Pi]=       0.006467 meV
     Omega(   4 )=   0.1306 eV   Re[Pi]=       8.606101 meV Im[Pi]=      -0.484057 meV
     Omega(   5 )=   0.1306 eV   Re[Pi]=       8.606102 meV Im[Pi]=      -0.484051 meV
     Omega(   6 )=   0.1366 eV   Re[Pi]=       5.819920 meV Im[Pi]=      -0.273808 meV
     Number of (k,k+q) pairs on the Fermi surface:      216 out of      216
     -------------------------------------------------------------------


     ismear =     1 iq =       8 coord.:   0.00000  0.16667  0.16667 wt:   0.00463
     -------------------------------------------------------------------
     lambda   (   1 )=      -0.008011   gamma   =      -0.002047 meV   omega=     38.2840 meV
     lambda_tr(   1 )=      -0.008011   gamma_tr=      -0.002047 meV   omega=     38.2840 meV
     lambda   (   2 )=       0.000009   gamma   =       0.000003 meV   omega=     41.7104 meV
     lambda_tr(   2 )=       0.000009   gamma_tr=       0.000003 meV   omega=     41.7104 meV
     lambda   (   3 )=       0.032573   gamma   =       0.022066 meV   omega=     62.3401 meV
     lambda_tr(   3 )=       0.032573   gamma_tr=       0.022066 meV   omega=     62.3401 meV
     lambda   (   4 )=       0.100025   gamma   =       0.302907 meV   omega=    131.8069 meV
     lambda_tr(   4 )=       0.100025   gamma_tr=       0.302907 meV   omega=    131.8069 meV
     lambda   (   5 )=       0.094130   gamma   =       0.289547 meV   omega=    132.8416 meV
     lambda_tr(   5 )=       0.094130   gamma_tr=       0.289547 meV   omega=    132.8416 meV
     lambda   (   6 )=       0.123473   gamma   =       0.423005 meV   omega=    140.1924 meV
     lambda_tr(   6 )=       0.123473   gamma_tr=       0.423005 meV   omega=    140.1924 meV
     lambda( tot )=       0.342198
     lambda_tr( tot )=       0.342198

     Omega(   1 )=   0.0383 eV   Re[Pi]=       0.231132 meV Im[Pi]=      -0.004986 meV
     Omega(   2 )=   0.0417 eV   Re[Pi]=       0.150739 meV Im[Pi]=      -0.001981 meV
     Omega(   3 )=   0.0623 eV   Re[Pi]=       0.917459 meV Im[Pi]=      -0.005068 meV
     Omega(   4 )=   0.1318 eV   Re[Pi]=       6.947276 meV Im[Pi]=      -0.042669 meV
     Omega(   5 )=   0.1328 eV   Re[Pi]=       6.668845 meV Im[Pi]=      -0.043268 meV
     Omega(   6 )=   0.1402 eV   Re[Pi]=       6.840945 meV Im[Pi]=      -0.038351 meV
     Number of (k,k+q) pairs on the Fermi surface:      216 out of      216
     -------------------------------------------------------------------


     ismear =     1 iq =       9 coord.:   0.00000  0.16667  0.33333 wt:   0.00463
     -------------------------------------------------------------------
     lambda   (   1 )=      -0.000003   gamma   =      -0.000002 meV   omega=     64.7460 meV
     lambda_tr(   1 )=      -0.000003   gamma_tr=      -0.000002 meV   omega=     64.7460 meV
     lambda   (   2 )=       0.000057   gamma   =       0.000045 meV   omega=     67.6061 meV
     lambda_tr(   2 )=       0.000057   gamma_tr=       0.000045 meV   omega=     67.6061 meV
     lambda   (   3 )=       0.000089   gamma   =       0.000154 meV   omega=     99.9655 meV
     lambda_tr(   3 )=       0.000089   gamma_tr=       0.000154 meV   omega=     99.9655 meV
     lambda   (   4 )=       0.000387   gamma   =       0.001347 meV   omega=    141.2937 meV
     lambda_tr(   4 )=       0.000387   gamma_tr=       0.001347 meV   omega=    141.2937 meV
     lambda   (   5 )=       0.000721   gamma   =       0.002582 meV   omega=    143.2909 meV
     lambda_tr(   5 )=       0.000721   gamma_tr=       0.002582 meV   omega=    143.2909 meV
     lambda   (   6 )=       0.000054   gamma   =       0.000225 meV   omega=    154.9862 meV
     lambda_tr(   6 )=       0.000054   gamma_tr=       0.000225 meV   omega=    154.9862 meV
     lambda( tot )=       0.001305
     lambda_tr( tot )=       0.001305

     Omega(   1 )=   0.0647 eV   Re[Pi]=       0.053468 meV Im[Pi]=      -0.000005 meV
     Omega(   2 )=   0.0676 eV   Re[Pi]=       0.221847 meV Im[Pi]=      -0.000002 meV
     Omega(   3 )=   0.1000 eV   Re[Pi]=       0.475723 meV Im[Pi]=      -0.000003 meV
     Omega(   4 )=   0.1413 eV   Re[Pi]=       3.296627 meV Im[Pi]=      -0.000095 meV
     Omega(   5 )=   0.1433 eV   Re[Pi]=       3.530950 meV Im[Pi]=      -0.000219 meV
     Omega(   6 )=   0.1550 eV   Re[Pi]=       2.181704 meV Im[Pi]=      -0.000041 meV
     Number of (k,k+q) pairs on the Fermi surface:      216 out of      216
     -------------------------------------------------------------------


     ismear =     1 iq =      10 coord.:   0.00000  0.16667  0.50000 wt:   0.00463
     -------------------------------------------------------------------
     lambda   (   1 )=       0.000000   gamma   =       0.000000 meV   omega=     77.7748 meV
     lambda_tr(   1 )=       0.000000   gamma_tr=       0.000000 meV   omega=     77.7748 meV
     lambda   (   2 )=       0.000000   gamma   =       0.000000 meV   omega=     88.0058 meV
     lambda_tr(   2 )=       0.000000   gamma_tr=       0.000000 meV   omega=     88.0058 meV
     lambda   (   3 )=       0.000000   gamma   =       0.000000 meV   omega=    125.9658 meV
     lambda_tr(   3 )=       0.000000   gamma_tr=       0.000000 meV   omega=    125.9658 meV
     lambda   (   4 )=       0.000000   gamma   =       0.000000 meV   omega=    142.0351 meV
     lambda_tr(   4 )=       0.000000   gamma_tr=       0.000000 meV   omega=    142.0351 meV
     lambda   (   5 )=       0.000000   gamma   =       0.000000 meV   omega=    146.6975 meV
     lambda_tr(   5 )=       0.000000   gamma_tr=       0.000000 meV   omega=    146.6975 meV
     lambda   (   6 )=       0.000000   gamma   =       0.000000 meV   omega=    153.5363 meV
     lambda_tr(   6 )=       0.000000   gamma_tr=       0.000000 meV   omega=    153.5363 meV
     lambda( tot )=       0.000000
     lambda_tr( tot )=       0.000000

     Omega(   1 )=   0.0778 eV   Re[Pi]=       0.086939 meV Im[Pi]=       0.000000 meV
     Omega(   2 )=   0.0880 eV   Re[Pi]=       0.189649 meV Im[Pi]=      -0.000000 meV
     Omega(   3 )=   0.1260 eV   Re[Pi]=       0.382839 meV Im[Pi]=      -0.000000 meV
     Omega(   4 )=   0.1420 eV   Re[Pi]=       2.312964 meV Im[Pi]=      -0.000000 meV
     Omega(   5 )=   0.1467 eV   Re[Pi]=       2.083969 meV Im[Pi]=      -0.000000 meV
     Omega(   6 )=   0.1535 eV   Re[Pi]=       1.128503 meV Im[Pi]=       0.000000 meV
     Number of (k,k+q) pairs on the Fermi surface:      216 out of      216
     -------------------------------------------------------------------


     ismear =     1 iq =      11 coord.:   0.00000  0.16667  0.66667 wt:   0.00463
     -------------------------------------------------------------------
     lambda   (   1 )=       0.000065   gamma   =       0.000060 meV   omega=     72.8287 meV
     lambda_tr(   1 )=       0.000065   gamma_tr=       0.000060 meV   omega=     72.8287 meV
     lambda   (   2 )=       0.000002   gamma   =       0.000003 meV   omega=     88.1575 meV
     lambda_tr(   2 )=       0.000002   gamma_tr=       0.000003 meV   omega=     88.1575 meV
     lambda   (   3 )=       0.000065   gamma   =       0.000162 meV   omega=    119.1608 meV
     lambda_tr(   3 )=       0.000065   gamma_tr=       0.000162 meV   omega=    119.1608 meV
     lambda   (   4 )=       0.000404   gamma   =       0.001410 meV   omega=    141.4730 meV
     lambda_tr(   4 )=       0.000404   gamma_tr=       0.001410 meV   omega=    141.4730 meV
     lambda   (   5 )=       0.000224   gamma   =       0.000829 meV   omega=    145.6215 meV
     lambda_tr(   5 )=       0.000224   gamma_tr=       0.000829 meV   omega=    145.6215 meV
     lambda   (   6 )=       0.000197   gamma   =       0.000800 meV   omega=    152.5914 meV
     lambda_tr(   6 )=       0.000197   gamma_tr=       0.000800 meV   omega=    152.5914 meV
     lambda( tot )=       0.000958
     lambda_tr( tot )=       0.000958

     Omega(   1 )=   0.0728 eV   Re[Pi]=       0.251433 meV Im[Pi]=      -0.000004 meV
     Omega(   2 )=   0.0882 eV   Re[Pi]=       0.118144 meV Im[Pi]=      -0.000000 meV
     Omega(   3 )=   0.1192 eV   Re[Pi]=       0.453284 meV Im[Pi]=      -0.000003 meV
     Omega(   4 )=   0.1415 eV   Re[Pi]=       2.902081 meV Im[Pi]=      -0.000031 meV
     Omega(   5 )=   0.1456 eV   Re[Pi]=       2.361426 meV Im[Pi]=      -0.000075 meV
     Omega(   6 )=   0.1526 eV   Re[Pi]=       1.300373 meV Im[Pi]=       0.000026 meV
     Number of (k,k+q) pairs on the Fermi surface:      216 out of      216
     -------------------------------------------------------------------


     ismear =     1 iq =      12 coord.:   0.00000  0.16667  0.83333 wt:   0.00463
     -------------------------------------------------------------------
     lambda   (   1 )=       0.094488   gamma   =       0.038842 meV   omega=     48.5626 meV
     lambda_tr(   1 )=       0.094488   gamma_tr=       0.038842 meV   omega=     48.5626 meV
     lambda   (   2 )=      -0.001596   gamma   =      -0.001071 meV   omega=     62.0541 meV
     lambda_tr(   2 )=      -0.001596   gamma_tr=      -0.001071 meV   omega=     62.0541 meV
     lambda   (   3 )=       0.021236   gamma   =       0.027597 meV   omega=     86.3436 meV
     lambda_tr(   3 )=       0.021236   gamma_tr=       0.027597 meV   omega=     86.3436 meV
     lambda   (   4 )=       0.247238   gamma   =       0.822401 meV   omega=    138.1408 meV
     lambda_tr(   4 )=       0.247238   gamma_tr=       0.822401 meV   omega=    138.1408 meV
     lambda   (   5 )=       0.235710   gamma   =       0.816832 meV   omega=    140.9988 meV
     lambda_tr(   5 )=       0.235710   gamma_tr=       0.816832 meV   omega=    140.9988 meV
     lambda   (   6 )=       0.000776   gamma   =       0.002990 meV   omega=    148.7017 meV
     lambda_tr(   6 )=       0.000776   gamma_tr=       0.002990 meV   omega=    148.7017 meV
     lambda( tot )=       0.597851
     lambda_tr( tot )=       0.597851

     Omega(   1 )=   0.0486 eV   Re[Pi]=       0.503589 meV Im[Pi]=       0.005510 meV
     Omega(   2 )=   0.0621 eV   Re[Pi]=       0.117426 meV Im[Pi]=      -0.006176 meV
     Omega(   3 )=   0.0863 eV   Re[Pi]=       0.500009 meV Im[Pi]=      -0.003931 meV
     Omega(   4 )=   0.1381 eV   Re[Pi]=       5.691310 meV Im[Pi]=      -0.139054 meV
     Omega(   5 )=   0.1410 eV   Re[Pi]=       5.022524 meV Im[Pi]=      -0.203342 meV
     Omega(   6 )=   0.1487 eV   Re[Pi]=       2.308324 meV Im[Pi]=       0.000727 meV
     Number of (k,k+q) pairs on the Fermi surface:      216 out of      216
     -------------------------------------------------------------------


     ismear =     1 iq =      13 coord.:   0.00000  0.33333  0.00000 wt:   0.00463
     -------------------------------------------------------------------
     lambda   (   1 )=       0.000442   gamma   =       0.000292 meV   omega=     61.6010 meV
     lambda_tr(   1 )=       0.000442   gamma_tr=       0.000292 meV   omega=     61.6010 meV
     lambda   (   2 )=       0.000442   gamma   =       0.000292 meV   omega=     61.6010 meV
     lambda_tr(   2 )=       0.000442   gamma_tr=       0.000292 meV   omega=     61.6010 meV
     lambda   (   3 )=       0.000970   gamma   =       0.002033 meV   omega=    109.6585 meV
     lambda_tr(   3 )=       0.000970   gamma_tr=       0.002033 meV   omega=    109.6585 meV
     lambda   (   4 )=       0.015641   gamma   =       0.052713 meV   omega=    139.0486 meV
     lambda_tr(   4 )=       0.015641   gamma_tr=       0.052713 meV   omega=    139.0486 meV
     lambda   (   5 )=       0.015641   gamma   =       0.052713 meV   omega=    139.0486 meV
     lambda_tr(   5 )=       0.015641   gamma_tr=       0.052713 meV   omega=    139.0486 meV
     lambda   (   6 )=       0.004501   gamma   =       0.018866 meV   omega=    155.0734 meV
     lambda_tr(   6 )=       0.004501   gamma_tr=       0.018866 meV   omega=    155.0734 meV
     lambda( tot )=       0.037636
     lambda_tr( tot )=       0.037636

     Omega(   1 )=   0.0616 eV   Re[Pi]=       0.096342 meV Im[Pi]=       0.000000 meV
     Omega(   2 )=   0.0616 eV   Re[Pi]=       0.096342 meV Im[Pi]=      -0.000000 meV
     Omega(   3 )=   0.1097 eV   Re[Pi]=       0.410115 meV Im[Pi]=       0.000000 meV
     Omega(   4 )=   0.1390 eV   Re[Pi]=       5.117548 meV Im[Pi]=       0.000000 meV
     Omega(   5 )=   0.1390 eV   Re[Pi]=       5.117547 meV Im[Pi]=       0.000000 meV
     Omega(   6 )=   0.1551 eV   Re[Pi]=       1.966315 meV Im[Pi]=       0.000000 meV
     Number of (k,k+q) pairs on the Fermi surface:      216 out of      216
     -------------------------------------------------------------------


     ismear =     1 iq =      14 coord.:   0.00000  0.33333  0.16667 wt:   0.00463
     -------------------------------------------------------------------
     lambda   (   1 )=       0.000003   gamma   =       0.000002 meV   omega=     65.2742 meV
     lambda_tr(   1 )=       0.000003   gamma_tr=       0.000002 meV   omega=     65.2742 meV
     lambda   (   2 )=       0.000046   gamma   =       0.000039 meV   omega=     69.2587 meV
     lambda_tr(   2 )=       0.000046   gamma_tr=       0.000039 meV   omega=     69.2587 meV
     lambda   (   3 )=       0.000078   gamma   =       0.000139 meV   omega=    101.0223 meV
     lambda_tr(   3 )=       0.000078   gamma_tr=       0.000139 meV   omega=    101.0223 meV
     lambda   (   4 )=       0.000421   gamma   =       0.001459 meV   omega=    141.0505 meV
     lambda_tr(   4 )=       0.000421   gamma_tr=       0.001459 meV   omega=    141.0505 meV
     lambda   (   5 )=       0.000693   gamma   =       0.002446 meV   omega=    142.2953 meV
     lambda_tr(   5 )=       0.000693   gamma_tr=       0.002446 meV   omega=    142.2953 meV
     lambda   (   6 )=       0.000057   gamma   =       0.000235 meV   omega=    154.4877 meV
     lambda_tr(   6 )=       0.000057   gamma_tr=       0.000235 meV   omega=    154.4877 meV
     lambda( tot )=       0.001298
     lambda_tr( tot )=       0.001298

     Omega(   1 )=   0.0653 eV   Re[Pi]=       0.047235 meV Im[Pi]=       0.000002 meV
     Omega(   2 )=   0.0693 eV   Re[Pi]=       0.234814 meV Im[Pi]=      -0.000001 meV
     Omega(   3 )=   0.1010 eV   Re[Pi]=       0.521801 meV Im[Pi]=      -0.000017 meV
     Omega(   4 )=   0.1411 eV   Re[Pi]=       3.382069 meV Im[Pi]=      -0.000040 meV
     Omega(   5 )=   0.1423 eV   Re[Pi]=       3.457447 meV Im[Pi]=      -0.000213 meV
     Omega(   6 )=   0.1545 eV   Re[Pi]=       2.155100 meV Im[Pi]=      -0.000021 meV
     Number of (k,k+q) pairs on the Fermi surface:      216 out of      216
     -------------------------------------------------------------------


     ismear =     1 iq =      15 coord.:   0.00000  0.33333  0.33333 wt:   0.00463
     -------------------------------------------------------------------
     lambda   (   1 )=       0.000000   gamma   =       0.000000 meV   omega=     83.5568 meV
     lambda_tr(   1 )=       0.000000   gamma_tr=       0.000000 meV   omega=     83.5568 meV
     lambda   (   2 )=       0.000000   gamma   =       0.000000 meV   omega=     83.5568 meV
     lambda_tr(   2 )=      -0.000000   gamma_tr=      -0.000000 meV   omega=     83.5568 meV
     lambda   (   3 )=       0.000000   gamma   =       0.000000 meV   omega=    118.2156 meV
     lambda_tr(   3 )=       0.000000   gamma_tr=       0.000000 meV   omega=    118.2156 meV
     lambda   (   4 )=       0.000000   gamma   =       0.000000 meV   omega=    143.7016 meV
     lambda_tr(   4 )=       0.000000   gamma_tr=       0.000000 meV   omega=    143.7016 meV
     lambda   (   5 )=       0.000000   gamma   =       0.000000 meV   omega=    143.7016 meV
     lambda_tr(   5 )=       0.000000   gamma_tr=       0.000000 meV   omega=    143.7016 meV
     lambda   (   6 )=       0.000000   gamma   =       0.000000 meV   omega=    163.2711 meV
     lambda_tr(   6 )=       0.000000   gamma_tr=       0.000000 meV   omega=    163.2711 meV
     lambda( tot )=       0.000000
     lambda_tr( tot )=       0.000000

     Omega(   1 )=   0.0836 eV   Re[Pi]=       0.080150 meV Im[Pi]=      -0.000000 meV
     Omega(   2 )=   0.0836 eV   Re[Pi]=       0.080153 meV Im[Pi]=       0.000000 meV
     Omega(   3 )=   0.1182 eV   Re[Pi]=       0.679988 meV Im[Pi]=      -0.000000 meV
     Omega(   4 )=   0.1437 eV   Re[Pi]=       1.677091 meV Im[Pi]=      -0.000000 meV
     Omega(   5 )=   0.1437 eV   Re[Pi]=       1.677099 meV Im[Pi]=       0.000000 meV
     Omega(   6 )=   0.1633 eV   Re[Pi]=       1.707669 meV Im[Pi]=      -0.000000 meV
     Number of (k,k+q) pairs on the Fermi surface:      216 out of      216
     -------------------------------------------------------------------


     ismear =     1 iq =      16 coord.:   0.00000  0.33333  0.50000 wt:   0.00463
     -------------------------------------------------------------------
     lambda   (   1 )=       0.000000   gamma   =       0.000000 meV   omega=     95.5295 meV
     lambda_tr(   1 )=       0.000000   gamma_tr=       0.000000 meV   omega=     95.5295 meV
     lambda   (   2 )=       0.000000   gamma   =       0.000000 meV   omega=    105.6128 meV
     lambda_tr(   2 )=       0.000000   gamma_tr=       0.000000 meV   omega=    105.6128 meV
     lambda   (   3 )=       0.000000   gamma   =       0.000000 meV   omega=    130.1235 meV
     lambda_tr(   3 )=       0.000000   gamma_tr=       0.000000 meV   omega=    130.1235 meV
     lambda   (   4 )=       0.000000   gamma   =       0.000000 meV   omega=    140.6742 meV
     lambda_tr(   4 )=       0.000000   gamma_tr=       0.000000 meV   omega=    140.6742 meV
     lambda   (   5 )=       0.000000   gamma   =       0.000000 meV   omega=    143.7329 meV
     lambda_tr(   5 )=       0.000000   gamma_tr=       0.000000 meV   omega=    143.7329 meV
     lambda   (   6 )=       0.000000   gamma   =       0.000000 meV   omega=    159.5312 meV
     lambda_tr(   6 )=       0.000000   gamma_tr=       0.000000 meV   omega=    159.5312 meV
     lambda( tot )=       0.000000
     lambda_tr( tot )=       0.000000

     Omega(   1 )=   0.0955 eV   Re[Pi]=       0.101256 meV Im[Pi]=      -0.000000 meV
     Omega(   2 )=   0.1056 eV   Re[Pi]=       0.172278 meV Im[Pi]=      -0.000000 meV
     Omega(   3 )=   0.1301 eV   Re[Pi]=       0.532758 meV Im[Pi]=       0.000000 meV
     Omega(   4 )=   0.1407 eV   Re[Pi]=       1.255742 meV Im[Pi]=      -0.000000 meV
     Omega(   5 )=   0.1437 eV   Re[Pi]=       0.877288 meV Im[Pi]=      -0.000000 meV
     Omega(   6 )=   0.1595 eV   Re[Pi]=       1.186891 meV Im[Pi]=       0.000000 meV
     Number of (k,k+q) pairs on the Fermi surface:      216 out of      216
     -------------------------------------------------------------------


     ismear =     1 iq =      17 coord.:   0.00000  0.33333  0.66667 wt:   0.00463
     -------------------------------------------------------------------
     lambda   (   1 )=       0.000000   gamma   =       0.000000 meV   omega=     90.7171 meV
     lambda_tr(   1 )=       0.000000   gamma_tr=       0.000000 meV   omega=     90.7171 meV
     lambda   (   2 )=       0.000000   gamma   =       0.000000 meV   omega=    122.5412 meV
     lambda_tr(   2 )=       0.000000   gamma_tr=       0.000000 meV   omega=    122.5412 meV
     lambda   (   3 )=       0.000000   gamma   =       0.000000 meV   omega=    122.9918 meV
     lambda_tr(   3 )=       0.000000   gamma_tr=       0.000000 meV   omega=    122.9918 meV
     lambda   (   4 )=       0.000000   gamma   =       0.000000 meV   omega=    134.8485 meV
     lambda_tr(   4 )=       0.000000   gamma_tr=       0.000000 meV   omega=    134.8485 meV
     lambda   (   5 )=       0.000000   gamma   =       0.000000 meV   omega=    139.2803 meV
     lambda_tr(   5 )=       0.000000   gamma_tr=       0.000000 meV   omega=    139.2803 meV
     lambda   (   6 )=       0.000000   gamma   =       0.000000 meV   omega=    154.8527 meV
     lambda_tr(   6 )=       0.000000   gamma_tr=       0.000000 meV   omega=    154.8527 meV
     lambda( tot )=       0.000000
     lambda_tr( tot )=       0.000000

     Omega(   1 )=   0.0907 eV   Re[Pi]=       0.185487 meV Im[Pi]=       0.000000 meV
     Omega(   2 )=   0.1225 eV   Re[Pi]=       0.416343 meV Im[Pi]=       0.000000 meV
     Omega(   3 )=   0.1230 eV   Re[Pi]=       0.226653 meV Im[Pi]=       0.000000 meV
     Omega(   4 )=   0.1348 eV   Re[Pi]=       0.306936 meV Im[Pi]=       0.000000 meV
     Omega(   5 )=   0.1393 eV   Re[Pi]=       1.569368 meV Im[Pi]=       0.000000 meV
     Omega(   6 )=   0.1549 eV   Re[Pi]=       1.763996 meV Im[Pi]=       0.000000 meV
     Number of (k,k+q) pairs on the Fermi surface:      216 out of      216
     -------------------------------------------------------------------


     ismear =     1 iq =      18 coord.:   0.00000  0.33333  0.83333 wt:   0.00463
     -------------------------------------------------------------------
     lambda   (   1 )=       0.000062   gamma   =       0.000063 meV   omega=     76.1595 meV
     lambda_tr(   1 )=       0.000062   gamma_tr=       0.000063 meV   omega=     76.1595 meV
     lambda   (   2 )=       0.000009   gamma   =       0.000012 meV   omega=     88.7983 meV
     lambda_tr(   2 )=       0.000009   gamma_tr=       0.000012 meV   omega=     88.7983 meV
     lambda   (   3 )=       0.000064   gamma   =       0.000160 meV   omega=    119.9064 meV
     lambda_tr(   3 )=       0.000064   gamma_tr=       0.000160 meV   omega=    119.9064 meV
     lambda   (   4 )=       0.000422   gamma   =       0.001437 meV   omega=    139.7081 meV
     lambda_tr(   4 )=       0.000422   gamma_tr=       0.001437 meV   omega=    139.7081 meV
     lambda   (   5 )=       0.000222   gamma   =       0.000814 meV   omega=    145.1284 meV
     lambda_tr(   5 )=       0.000222   gamma_tr=       0.000814 meV   omega=    145.1284 meV
     lambda   (   6 )=       0.000213   gamma   =       0.000860 meV   omega=    152.1047 meV
     lambda_tr(   6 )=       0.000213   gamma_tr=       0.000860 meV   omega=    152.1047 meV
     lambda( tot )=       0.000992
     lambda_tr( tot )=       0.000992

     Omega(   1 )=   0.0762 eV   Re[Pi]=       0.215291 meV Im[Pi]=       0.000001 meV
     Omega(   2 )=   0.0888 eV   Re[Pi]=       0.103408 meV Im[Pi]=       0.000001 meV
     Omega(   3 )=   0.1199 eV   Re[Pi]=       0.436485 meV Im[Pi]=      -0.000002 meV
     Omega(   4 )=   0.1397 eV   Re[Pi]=       2.998948 meV Im[Pi]=      -0.000038 meV
     Omega(   5 )=   0.1451 eV   Re[Pi]=       2.325471 meV Im[Pi]=      -0.000048 meV
     Omega(   6 )=   0.1521 eV   Re[Pi]=       1.452744 meV Im[Pi]=      -0.000024 meV
     Number of (k,k+q) pairs on the Fermi surface:      216 out of      216
     -------------------------------------------------------------------


     ismear =     1 iq =      19 coord.:   0.00000  0.50000  0.00000 wt:   0.00463
     -------------------------------------------------------------------
     lambda   (   1 )=       0.000001   gamma   =       0.000001 meV   omega=     77.6788 meV
     lambda_tr(   1 )=       0.000001   gamma_tr=       0.000001 meV   omega=     77.6788 meV
     lambda   (   2 )=       0.000001   gamma   =       0.000001 meV   omega=     77.6788 meV
     lambda_tr(   2 )=       0.000001   gamma_tr=       0.000001 meV   omega=     77.6788 meV
     lambda   (   3 )=       0.000000   gamma   =       0.000000 meV   omega=    136.0467 meV
     lambda_tr(   3 )=       0.000000   gamma_tr=       0.000000 meV   omega=    136.0467 meV
     lambda   (   4 )=       0.000141   gamma   =       0.000465 meV   omega=    137.7413 meV
     lambda_tr(   4 )=       0.000141   gamma_tr=       0.000465 meV   omega=    137.7413 meV
     lambda   (   5 )=       0.000141   gamma   =       0.000465 meV   omega=    137.7413 meV
     lambda_tr(   5 )=       0.000141   gamma_tr=       0.000465 meV   omega=    137.7413 meV
     lambda   (   6 )=       0.000050   gamma   =       0.000206 meV   omega=    153.0778 meV
     lambda_tr(   6 )=       0.000050   gamma_tr=       0.000206 meV   omega=    153.0778 meV
     lambda( tot )=       0.000334
     lambda_tr( tot )=       0.000334

     Omega(   1 )=   0.0777 eV   Re[Pi]=       0.026525 meV Im[Pi]=       0.000001 meV
     Omega(   2 )=   0.0777 eV   Re[Pi]=       0.026525 meV Im[Pi]=       0.000001 meV
     Omega(   3 )=   0.1360 eV   Re[Pi]=       0.307307 meV Im[Pi]=       0.000000 meV
     Omega(   4 )=   0.1377 eV   Re[Pi]=       3.637734 meV Im[Pi]=      -0.000012 meV
     Omega(   5 )=   0.1377 eV   Re[Pi]=       3.637736 meV Im[Pi]=      -0.000012 meV
     Omega(   6 )=   0.1531 eV   Re[Pi]=       1.287130 meV Im[Pi]=       0.000002 meV
     Number of (k,k+q) pairs on the Fermi surface:      216 out of      216
     -------------------------------------------------------------------


     ismear =     1 iq =      20 coord.:   0.00000  0.50000  0.16667 wt:   0.00463
     -------------------------------------------------------------------
     lambda   (   1 )=       0.000000   gamma   =       0.000000 meV   omega=     83.1117 meV
     lambda_tr(   1 )=       0.000000   gamma_tr=       0.000000 meV   omega=     83.1117 meV
     lambda   (   2 )=       0.000000   gamma   =       0.000000 meV   omega=     91.5811 meV
     lambda_tr(   2 )=       0.000000   gamma_tr=       0.000000 meV   omega=     91.5811 meV
     lambda   (   3 )=       0.000000   gamma   =       0.000000 meV   omega=    128.2601 meV
     lambda_tr(   3 )=       0.000000   gamma_tr=       0.000000 meV   omega=    128.2601 meV
     lambda   (   4 )=       0.000000   gamma   =       0.000000 meV   omega=    138.9797 meV
     lambda_tr(   4 )=       0.000000   gamma_tr=       0.000000 meV   omega=    138.9797 meV
     lambda   (   5 )=       0.000000   gamma   =       0.000000 meV   omega=    145.4691 meV
     lambda_tr(   5 )=       0.000000   gamma_tr=       0.000000 meV   omega=    145.4691 meV
     lambda   (   6 )=       0.000000   gamma   =       0.000000 meV   omega=    150.6882 meV
     lambda_tr(   6 )=       0.000000   gamma_tr=       0.000000 meV   omega=    150.6882 meV
     lambda( tot )=       0.000000
     lambda_tr( tot )=       0.000000

     Omega(   1 )=   0.0831 eV   Re[Pi]=       0.071477 meV Im[Pi]=      -0.000000 meV
     Omega(   2 )=   0.0916 eV   Re[Pi]=       0.191299 meV Im[Pi]=      -0.000000 meV
     Omega(   3 )=   0.1283 eV   Re[Pi]=       0.481232 meV Im[Pi]=      -0.000000 meV
     Omega(   4 )=   0.1390 eV   Re[Pi]=       2.363549 meV Im[Pi]=      -0.000000 meV
     Omega(   5 )=   0.1455 eV   Re[Pi]=       2.063541 meV Im[Pi]=      -0.000000 meV
     Omega(   6 )=   0.1507 eV   Re[Pi]=       1.103285 meV Im[Pi]=      -0.000000 meV
     Number of (k,k+q) pairs on the Fermi surface:      216 out of      216
     -------------------------------------------------------------------


     ismear =     1 iq =      21 coord.:   0.00000  0.50000  0.33333 wt:   0.00463
     -------------------------------------------------------------------
     lambda   (   1 )=       0.000000   gamma   =       0.000000 meV   omega=     99.0220 meV
     lambda_tr(   1 )=       0.000000   gamma_tr=       0.000000 meV   omega=     99.0220 meV
     lambda   (   2 )=       0.000000   gamma   =       0.000000 meV   omega=    108.8364 meV
     lambda_tr(   2 )=       0.000000   gamma_tr=       0.000000 meV   omega=    108.8364 meV
     lambda   (   3 )=       0.000000   gamma   =       0.000000 meV   omega=    131.0353 meV
     lambda_tr(   3 )=       0.000000   gamma_tr=       0.000000 meV   omega=    131.0353 meV
     lambda   (   4 )=       0.000000   gamma   =       0.000000 meV   omega=    138.2381 meV
     lambda_tr(   4 )=       0.000000   gamma_tr=       0.000000 meV   omega=    138.2381 meV
     lambda   (   5 )=       0.000000   gamma   =       0.000000 meV   omega=    144.8447 meV
     lambda_tr(   5 )=       0.000000   gamma_tr=       0.000000 meV   omega=    144.8447 meV
     lambda   (   6 )=       0.000000   gamma   =       0.000000 meV   omega=    155.5633 meV
     lambda_tr(   6 )=       0.000000   gamma_tr=       0.000000 meV   omega=    155.5633 meV
     lambda( tot )=       0.000000
     lambda_tr( tot )=       0.000000

     Omega(   1 )=   0.0990 eV   Re[Pi]=       0.091642 meV Im[Pi]=      -0.000000 meV
     Omega(   2 )=   0.1088 eV   Re[Pi]=       0.149573 meV Im[Pi]=      -0.000000 meV
     Omega(   3 )=   0.1310 eV   Re[Pi]=       0.637602 meV Im[Pi]=      -0.000000 meV
     Omega(   4 )=   0.1382 eV   Re[Pi]=       1.263145 meV Im[Pi]=      -0.000000 meV
     Omega(   5 )=   0.1448 eV   Re[Pi]=       0.824811 meV Im[Pi]=       0.000000 meV
     Omega(   6 )=   0.1556 eV   Re[Pi]=       1.137900 meV Im[Pi]=       0.000000 meV
     Number of (k,k+q) pairs on the Fermi surface:      216 out of      216
     -------------------------------------------------------------------


     ismear =     1 iq =      22 coord.:   0.00000  0.50000  0.50000 wt:   0.00463
     -------------------------------------------------------------------
     lambda   (   1 )=       0.000000   gamma   =       0.000000 meV   omega=    105.4773 meV
     lambda_tr(   1 )=       0.000000   gamma_tr=       0.000000 meV   omega=    105.4773 meV
     lambda   (   2 )=       0.000000   gamma   =       0.000000 meV   omega=    109.9088 meV
     lambda_tr(   2 )=       0.000000   gamma_tr=       0.000000 meV   omega=    109.9088 meV
     lambda   (   3 )=       0.000000   gamma   =       0.000000 meV   omega=    135.3188 meV
     lambda_tr(   3 )=       0.000000   gamma_tr=       0.000000 meV   omega=    135.3188 meV
     lambda   (   4 )=       0.000000   gamma   =       0.000000 meV   omega=    138.7844 meV
     lambda_tr(   4 )=       0.000000   gamma_tr=       0.000000 meV   omega=    138.7844 meV
     lambda   (   5 )=       0.000000   gamma   =       0.000000 meV   omega=    151.9310 meV
     lambda_tr(   5 )=       0.000000   gamma_tr=       0.000000 meV   omega=    151.9310 meV
     lambda   (   6 )=       0.000000   gamma   =       0.000000 meV   omega=    156.3897 meV
     lambda_tr(   6 )=       0.000000   gamma_tr=       0.000000 meV   omega=    156.3897 meV
     lambda( tot )=       0.000000
     lambda_tr( tot )=       0.000000

     Omega(   1 )=   0.1055 eV   Re[Pi]=       0.075331 meV Im[Pi]=      -0.000000 meV
     Omega(   2 )=   0.1099 eV   Re[Pi]=       0.071208 meV Im[Pi]=      -0.000000 meV
     Omega(   3 )=   0.1353 eV   Re[Pi]=       0.982488 meV Im[Pi]=      -0.000000 meV
     Omega(   4 )=   0.1388 eV   Re[Pi]=       0.981599 meV Im[Pi]=      -0.000000 meV
     Omega(   5 )=   0.1519 eV   Re[Pi]=       0.798117 meV Im[Pi]=       0.000000 meV
     Omega(   6 )=   0.1564 eV   Re[Pi]=       0.787740 meV Im[Pi]=       0.000000 meV
     Number of (k,k+q) pairs on the Fermi surface:      216 out of      216
     -------------------------------------------------------------------


     ismear =     1 iq =      23 coord.:   0.00000  0.50000  0.66667 wt:   0.00463
     -------------------------------------------------------------------
     lambda   (   1 )=       0.000000   gamma   =       0.000000 meV   omega=     99.0220 meV
     lambda_tr(   1 )=       0.000000   gamma_tr=       0.000000 meV   omega=     99.0220 meV
     lambda   (   2 )=       0.000000   gamma   =       0.000000 meV   omega=    108.8364 meV
     lambda_tr(   2 )=       0.000000   gamma_tr=       0.000000 meV   omega=    108.8364 meV
     lambda   (   3 )=       0.000000   gamma   =       0.000000 meV   omega=    131.0353 meV
     lambda_tr(   3 )=       0.000000   gamma_tr=       0.000000 meV   omega=    131.0353 meV
     lambda   (   4 )=       0.000000   gamma   =       0.000000 meV   omega=    138.2381 meV
     lambda_tr(   4 )=       0.000000   gamma_tr=       0.000000 meV   omega=    138.2381 meV
     lambda   (   5 )=       0.000000   gamma   =       0.000000 meV   omega=    144.8447 meV
     lambda_tr(   5 )=       0.000000   gamma_tr=       0.000000 meV   omega=    144.8447 meV
     lambda   (   6 )=       0.000000   gamma   =       0.000000 meV   omega=    155.5633 meV
     lambda_tr(   6 )=       0.000000   gamma_tr=       0.000000 meV   omega=    155.5633 meV
     lambda( tot )=       0.000000
     lambda_tr( tot )=       0.000000

     Omega(   1 )=   0.0990 eV   Re[Pi]=       0.091643 meV Im[Pi]=      -0.000000 meV
     Omega(   2 )=   0.1088 eV   Re[Pi]=       0.149575 meV Im[Pi]=      -0.000000 meV
     Omega(   3 )=   0.1310 eV   Re[Pi]=       0.637591 meV Im[Pi]=      -0.000000 meV
     Omega(   4 )=   0.1382 eV   Re[Pi]=       1.263160 meV Im[Pi]=      -0.000000 meV
     Omega(   5 )=   0.1448 eV   Re[Pi]=       0.824800 meV Im[Pi]=       0.000000 meV
     Omega(   6 )=   0.1556 eV   Re[Pi]=       1.137887 meV Im[Pi]=       0.000000 meV
     Number of (k,k+q) pairs on the Fermi surface:      216 out of      216
     -------------------------------------------------------------------


     ismear =     1 iq =      24 coord.:   0.00000  0.50000  0.83333 wt:   0.00463
     -------------------------------------------------------------------
     lambda   (   1 )=       0.000000   gamma   =       0.000000 meV   omega=     83.1117 meV
     lambda_tr(   1 )=       0.000000   gamma_tr=       0.000000 meV   omega=     83.1117 meV
     lambda   (   2 )=       0.000000   gamma   =       0.000000 meV   omega=     91.5811 meV
     lambda_tr(   2 )=       0.000000   gamma_tr=       0.000000 meV   omega=     91.5811 meV
     lambda   (   3 )=       0.000000   gamma   =       0.000000 meV   omega=    128.2601 meV
     lambda_tr(   3 )=       0.000000   gamma_tr=       0.000000 meV   omega=    128.2601 meV
     lambda   (   4 )=       0.000000   gamma   =       0.000000 meV   omega=    138.9797 meV
     lambda_tr(   4 )=       0.000000   gamma_tr=       0.000000 meV   omega=    138.9797 meV
     lambda   (   5 )=       0.000000   gamma   =       0.000000 meV   omega=    145.4691 meV
     lambda_tr(   5 )=       0.000000   gamma_tr=       0.000000 meV   omega=    145.4691 meV
     lambda   (   6 )=       0.000000   gamma   =       0.000000 meV   omega=    150.6882 meV
     lambda_tr(   6 )=       0.000000   gamma_tr=       0.000000 meV   omega=    150.6882 meV
     lambda( tot )=       0.000000
     lambda_tr( tot )=       0.000000

     Omega(   1 )=   0.0831 eV   Re[Pi]=       0.071480 meV Im[Pi]=      -0.000000 meV
     Omega(   2 )=   0.0916 eV   Re[Pi]=       0.191284 meV Im[Pi]=      -0.000000 meV
     Omega(   3 )=   0.1283 eV   Re[Pi]=       0.481229 meV Im[Pi]=      -0.000000 meV
     Omega(   4 )=   0.1390 eV   Re[Pi]=       2.363589 meV Im[Pi]=      -0.000000 meV
     Omega(   5 )=   0.1455 eV   Re[Pi]=       2.063507 meV Im[Pi]=      -0.000000 meV
     Omega(   6 )=   0.1507 eV   Re[Pi]=       1.103281 meV Im[Pi]=      -0.000000 meV
     Number of (k,k+q) pairs on the Fermi surface:      216 out of      216
     -------------------------------------------------------------------


     ismear =     1 iq =      25 coord.:   0.00000  0.66667  0.00000 wt:   0.00463
     -------------------------------------------------------------------
     lambda   (   1 )=       0.000442   gamma   =       0.000292 meV   omega=     61.6010 meV
     lambda_tr(   1 )=       0.000442   gamma_tr=       0.000292 meV   omega=     61.6010 meV
     lambda   (   2 )=       0.000442   gamma   =       0.000292 meV   omega=     61.6010 meV
     lambda_tr(   2 )=       0.000442   gamma_tr=       0.000292 meV   omega=     61.6010 meV
     lambda   (   3 )=       0.000970   gamma   =       0.002033 meV   omega=    109.6585 meV
     lambda_tr(   3 )=       0.000970   gamma_tr=       0.002033 meV   omega=    109.6585 meV
     lambda   (   4 )=       0.015641   gamma   =       0.052713 meV   omega=    139.0486 meV
     lambda_tr(   4 )=       0.015641   gamma_tr=       0.052713 meV   omega=    139.0486 meV
     lambda   (   5 )=       0.015641   gamma   =       0.052713 meV   omega=    139.0486 meV
     lambda_tr(   5 )=       0.015641   gamma_tr=       0.052713 meV   omega=    139.0486 meV
     lambda   (   6 )=       0.004501   gamma   =       0.018866 meV   omega=    155.0734 meV
     lambda_tr(   6 )=       0.004501   gamma_tr=       0.018866 meV   omega=    155.0734 meV
     lambda( tot )=       0.037636
     lambda_tr( tot )=       0.037636

     Omega(   1 )=   0.0616 eV   Re[Pi]=       0.096342 meV Im[Pi]=       0.000000 meV
     Omega(   2 )=   0.0616 eV   Re[Pi]=       0.096342 meV Im[Pi]=      -0.000000 meV
     Omega(   3 )=   0.1097 eV   Re[Pi]=       0.410115 meV Im[Pi]=      -0.000000 meV
     Omega(   4 )=   0.1390 eV   Re[Pi]=       5.117548 meV Im[Pi]=       0.000000 meV
     Omega(   5 )=   0.1390 eV   Re[Pi]=       5.117547 meV Im[Pi]=      -0.000000 meV
     Omega(   6 )=   0.1551 eV   Re[Pi]=       1.966315 meV Im[Pi]=      -0.000000 meV
     Number of (k,k+q) pairs on the Fermi surface:      216 out of      216
     -------------------------------------------------------------------


     ismear =     1 iq =      26 coord.:   0.00000  0.66667  0.16667 wt:   0.00463
     -------------------------------------------------------------------
     lambda   (   1 )=       0.000062   gamma   =       0.000063 meV   omega=     76.1595 meV
     lambda_tr(   1 )=       0.000062   gamma_tr=       0.000063 meV   omega=     76.1595 meV
     lambda   (   2 )=       0.000009   gamma   =       0.000012 meV   omega=     88.7983 meV
     lambda_tr(   2 )=       0.000009   gamma_tr=       0.000012 meV   omega=     88.7983 meV
     lambda   (   3 )=       0.000064   gamma   =       0.000160 meV   omega=    119.9064 meV
     lambda_tr(   3 )=       0.000064   gamma_tr=       0.000160 meV   omega=    119.9064 meV
     lambda   (   4 )=       0.000422   gamma   =       0.001437 meV   omega=    139.7081 meV
     lambda_tr(   4 )=       0.000422   gamma_tr=       0.001437 meV   omega=    139.7081 meV
     lambda   (   5 )=       0.000222   gamma   =       0.000814 meV   omega=    145.1284 meV
     lambda_tr(   5 )=       0.000222   gamma_tr=       0.000814 meV   omega=    145.1284 meV
     lambda   (   6 )=       0.000213   gamma   =       0.000860 meV   omega=    152.1047 meV
     lambda_tr(   6 )=       0.000213   gamma_tr=       0.000860 meV   omega=    152.1047 meV
     lambda( tot )=       0.000992
     lambda_tr( tot )=       0.000992

     Omega(   1 )=   0.0762 eV   Re[Pi]=       0.215285 meV Im[Pi]=       0.000001 meV
     Omega(   2 )=   0.0888 eV   Re[Pi]=       0.103411 meV Im[Pi]=       0.000001 meV
     Omega(   3 )=   0.1199 eV   Re[Pi]=       0.436476 meV Im[Pi]=      -0.000002 meV
     Omega(   4 )=   0.1397 eV   Re[Pi]=       2.998923 meV Im[Pi]=      -0.000038 meV
     Omega(   5 )=   0.1451 eV   Re[Pi]=       2.325504 meV Im[Pi]=      -0.000048 meV
     Omega(   6 )=   0.1521 eV   Re[Pi]=       1.452749 meV Im[Pi]=      -0.000024 meV
     Number of (k,k+q) pairs on the Fermi surface:      216 out of      216
     -------------------------------------------------------------------


     ismear =     1 iq =      27 coord.:   0.00000  0.66667  0.33333 wt:   0.00463
     -------------------------------------------------------------------
     lambda   (   1 )=       0.000000   gamma   =       0.000000 meV   omega=     90.7171 meV
     lambda_tr(   1 )=       0.000000   gamma_tr=       0.000000 meV   omega=     90.7171 meV
     lambda   (   2 )=       0.000000   gamma   =       0.000000 meV   omega=    122.5412 meV
     lambda_tr(   2 )=       0.000000   gamma_tr=       0.000000 meV   omega=    122.5412 meV
     lambda   (   3 )=       0.000000   gamma   =       0.000000 meV   omega=    122.9918 meV
     lambda_tr(   3 )=       0.000000   gamma_tr=       0.000000 meV   omega=    122.9918 meV
     lambda   (   4 )=       0.000000   gamma   =       0.000000 meV   omega=    134.8485 meV
     lambda_tr(   4 )=       0.000000   gamma_tr=       0.000000 meV   omega=    134.8485 meV
     lambda   (   5 )=       0.000000   gamma   =       0.000000 meV   omega=    139.2803 meV
     lambda_tr(   5 )=       0.000000   gamma_tr=       0.000000 meV   omega=    139.2803 meV
     lambda   (   6 )=       0.000000   gamma   =       0.000000 meV   omega=    154.8527 meV
     lambda_tr(   6 )=       0.000000   gamma_tr=       0.000000 meV   omega=    154.8527 meV
     lambda( tot )=       0.000000
     lambda_tr( tot )=       0.000000

     Omega(   1 )=   0.0907 eV   Re[Pi]=       0.185487 meV Im[Pi]=      -0.000000 meV
     Omega(   2 )=   0.1225 eV   Re[Pi]=       0.416343 meV Im[Pi]=       0.000000 meV
     Omega(   3 )=   0.1230 eV   Re[Pi]=       0.226653 meV Im[Pi]=      -0.000000 meV
     Omega(   4 )=   0.1348 eV   Re[Pi]=       0.306936 meV Im[Pi]=      -0.000000 meV
     Omega(   5 )=   0.1393 eV   Re[Pi]=       1.569368 meV Im[Pi]=       0.000000 meV
     Omega(   6 )=   0.1549 eV   Re[Pi]=       1.763996 meV Im[Pi]=      -0.000000 meV
     Number of (k,k+q) pairs on the Fermi surface:      216 out of      216
     -------------------------------------------------------------------


     ismear =     1 iq =      28 coord.:   0.00000  0.66667  0.50000 wt:   0.00463
     -------------------------------------------------------------------
     lambda   (   1 )=       0.000000   gamma   =       0.000000 meV   omega=     95.5295 meV
     lambda_tr(   1 )=       0.000000   gamma_tr=       0.000000 meV   omega=     95.5295 meV
     lambda   (   2 )=       0.000000   gamma   =       0.000000 meV   omega=    105.6128 meV
     lambda_tr(   2 )=       0.000000   gamma_tr=       0.000000 meV   omega=    105.6128 meV
     lambda   (   3 )=       0.000000   gamma   =       0.000000 meV   omega=    130.1235 meV
     lambda_tr(   3 )=       0.000000   gamma_tr=       0.000000 meV   omega=    130.1235 meV
     lambda   (   4 )=       0.000000   gamma   =       0.000000 meV   omega=    140.6742 meV
     lambda_tr(   4 )=       0.000000   gamma_tr=       0.000000 meV   omega=    140.6742 meV
     lambda   (   5 )=       0.000000   gamma   =       0.000000 meV   omega=    143.7329 meV
     lambda_tr(   5 )=       0.000000   gamma_tr=       0.000000 meV   omega=    143.7329 meV
     lambda   (   6 )=       0.000000   gamma   =       0.000000 meV   omega=    159.5312 meV
     lambda_tr(   6 )=       0.000000   gamma_tr=       0.000000 meV   omega=    159.5312 meV
     lambda( tot )=       0.000000
     lambda_tr( tot )=       0.000000

     Omega(   1 )=   0.0955 eV   Re[Pi]=       0.101255 meV Im[Pi]=      -0.000000 meV
     Omega(   2 )=   0.1056 eV   Re[Pi]=       0.172275 meV Im[Pi]=      -0.000000 meV
     Omega(   3 )=   0.1301 eV   Re[Pi]=       0.532756 meV Im[Pi]=       0.000000 meV
     Omega(   4 )=   0.1407 eV   Re[Pi]=       1.255736 meV Im[Pi]=      -0.000000 meV
     Omega(   5 )=   0.1437 eV   Re[Pi]=       0.877272 meV Im[Pi]=      -0.000000 meV
     Omega(   6 )=   0.1595 eV   Re[Pi]=       1.186892 meV Im[Pi]=       0.000000 meV
     Number of (k,k+q) pairs on the Fermi surface:      216 out of      216
     -------------------------------------------------------------------


     ismear =     1 iq =      29 coord.:   0.00000  0.66667  0.66667 wt:   0.00463
     -------------------------------------------------------------------
     lambda   (   1 )=       0.000000   gamma   =       0.000000 meV   omega=     83.5568 meV
     lambda_tr(   1 )=       0.000000   gamma_tr=       0.000000 meV   omega=     83.5568 meV
     lambda   (   2 )=       0.000000   gamma   =       0.000000 meV   omega=     83.5568 meV
     lambda_tr(   2 )=      -0.000000   gamma_tr=      -0.000000 meV   omega=     83.5568 meV
     lambda   (   3 )=       0.000000   gamma   =       0.000000 meV   omega=    118.2156 meV
     lambda_tr(   3 )=       0.000000   gamma_tr=       0.000000 meV   omega=    118.2156 meV
     lambda   (   4 )=       0.000000   gamma   =       0.000000 meV   omega=    143.7016 meV
     lambda_tr(   4 )=       0.000000   gamma_tr=       0.000000 meV   omega=    143.7016 meV
     lambda   (   5 )=       0.000000   gamma   =       0.000000 meV   omega=    143.7016 meV
     lambda_tr(   5 )=       0.000000   gamma_tr=       0.000000 meV   omega=    143.7016 meV
     lambda   (   6 )=       0.000000   gamma   =       0.000000 meV   omega=    163.2711 meV
     lambda_tr(   6 )=       0.000000   gamma_tr=       0.000000 meV   omega=    163.2711 meV
     lambda( tot )=       0.000000
     lambda_tr( tot )=       0.000000

     Omega(   1 )=   0.0836 eV   Re[Pi]=       0.080148 meV Im[Pi]=       0.000000 meV
     Omega(   2 )=   0.0836 eV   Re[Pi]=       0.080148 meV Im[Pi]=       0.000000 meV
     Omega(   3 )=   0.1182 eV   Re[Pi]=       0.679990 meV Im[Pi]=      -0.000000 meV
     Omega(   4 )=   0.1437 eV   Re[Pi]=       1.677077 meV Im[Pi]=       0.000000 meV
     Omega(   5 )=   0.1437 eV   Re[Pi]=       1.677078 meV Im[Pi]=       0.000000 meV
     Omega(   6 )=   0.1633 eV   Re[Pi]=       1.707673 meV Im[Pi]=       0.000000 meV
     Number of (k,k+q) pairs on the Fermi surface:      216 out of      216
     -------------------------------------------------------------------


     ismear =     1 iq =      30 coord.:   0.00000  0.66667  0.83333 wt:   0.00463
     -------------------------------------------------------------------
     lambda   (   1 )=       0.000003   gamma   =       0.000002 meV   omega=     65.2742 meV
     lambda_tr(   1 )=       0.000003   gamma_tr=       0.000002 meV   omega=     65.2742 meV
     lambda   (   2 )=       0.000046   gamma   =       0.000039 meV   omega=     69.2587 meV
     lambda_tr(   2 )=       0.000046   gamma_tr=       0.000039 meV   omega=     69.2587 meV
     lambda   (   3 )=       0.000078   gamma   =       0.000139 meV   omega=    101.0223 meV
     lambda_tr(   3 )=       0.000078   gamma_tr=       0.000139 meV   omega=    101.0223 meV
     lambda   (   4 )=       0.000421   gamma   =       0.001459 meV   omega=    141.0505 meV
     lambda_tr(   4 )=       0.000421   gamma_tr=       0.001459 meV   omega=    141.0505 meV
     lambda   (   5 )=       0.000693   gamma   =       0.002446 meV   omega=    142.2953 meV
     lambda_tr(   5 )=       0.000693   gamma_tr=       0.002446 meV   omega=    142.2953 meV
     lambda   (   6 )=       0.000057   gamma   =       0.000235 meV   omega=    154.4877 meV
     lambda_tr(   6 )=       0.000057   gamma_tr=       0.000235 meV   omega=    154.4877 meV
     lambda( tot )=       0.001298
     lambda_tr( tot )=       0.001298

     Omega(   1 )=   0.0653 eV   Re[Pi]=       0.047235 meV Im[Pi]=       0.000002 meV
     Omega(   2 )=   0.0693 eV   Re[Pi]=       0.234792 meV Im[Pi]=      -0.000001 meV
     Omega(   3 )=   0.1010 eV   Re[Pi]=       0.521795 meV Im[Pi]=      -0.000017 meV
     Omega(   4 )=   0.1411 eV   Re[Pi]=       3.382077 meV Im[Pi]=      -0.000040 meV
     Omega(   5 )=   0.1423 eV   Re[Pi]=       3.457444 meV Im[Pi]=      -0.000213 meV
     Omega(   6 )=   0.1545 eV   Re[Pi]=       2.155093 meV Im[Pi]=      -0.000021 meV
     Number of (k,k+q) pairs on the Fermi surface:      216 out of      216
     -------------------------------------------------------------------


     ismear =     1 iq =      31 coord.:   0.00000  0.83333  0.00000 wt:   0.00463
     -------------------------------------------------------------------
     lambda   (   1 )=      -1.834097   gamma   =      -0.081564 meV   omega=     15.9726 meV
     lambda_tr(   1 )=      -1.834094   gamma_tr=      -0.081563 meV   omega=     15.9726 meV
     lambda   (   2 )=      -1.834081   gamma   =      -0.081563 meV   omega=     15.9726 meV
     lambda_tr(   2 )=      -1.834078   gamma_tr=      -0.081563 meV   omega=     15.9726 meV
     lambda   (   3 )=       0.032532   gamma   =       0.017663 meV   omega=     55.8104 meV
     lambda_tr(   3 )=       0.032532   gamma_tr=       0.017663 meV   omega=     55.8104 meV
     lambda   (   4 )=       0.885574   gamma   =       2.631457 meV   omega=    130.5640 meV
     lambda_tr(   4 )=       0.885575   gamma_tr=       2.631459 meV   omega=    130.5640 meV
     lambda   (   5 )=       0.885576   gamma   =       2.631461 meV   omega=    130.5640 meV
     lambda_tr(   5 )=       0.885576   gamma_tr=       2.631462 meV   omega=    130.5640 meV
     lambda   (   6 )=       0.273218   gamma   =       0.888843 meV   omega=    136.6140 meV
     lambda_tr(   6 )=       0.273218   gamma_tr=       0.888843 meV   omega=    136.6140 meV
     lambda( tot )=      -1.591278
     lambda_tr( tot )=      -1.591270

     Omega(   1 )=   0.0160 eV   Re[Pi]=       1.049783 meV Im[Pi]=      -0.114291 meV
     Omega(   2 )=   0.0160 eV   Re[Pi]=       1.049785 meV Im[Pi]=      -0.114290 meV
     Omega(   3 )=   0.0558 eV   Re[Pi]=       0.534767 meV Im[Pi]=       0.006465 meV
     Omega(   4 )=   0.1306 eV   Re[Pi]=       8.606091 meV Im[Pi]=      -0.484042 meV
     Omega(   5 )=   0.1306 eV   Re[Pi]=       8.606094 meV Im[Pi]=      -0.484039 meV
     Omega(   6 )=   0.1366 eV   Re[Pi]=       5.819925 meV Im[Pi]=      -0.273829 meV
     Number of (k,k+q) pairs on the Fermi surface:      216 out of      216
     -------------------------------------------------------------------


     ismear =     1 iq =      32 coord.:   0.00000  0.83333  0.16667 wt:   0.00463
     -------------------------------------------------------------------
     lambda   (   1 )=       0.094478   gamma   =       0.038838 meV   omega=     48.5626 meV
     lambda_tr(   1 )=       0.094478   gamma_tr=       0.038838 meV   omega=     48.5626 meV
     lambda   (   2 )=      -0.001594   gamma   =      -0.001070 meV   omega=     62.0541 meV
     lambda_tr(   2 )=      -0.001594   gamma_tr=      -0.001070 meV   omega=     62.0541 meV
     lambda   (   3 )=       0.021236   gamma   =       0.027597 meV   omega=     86.3436 meV
     lambda_tr(   3 )=       0.021236   gamma_tr=       0.027597 meV   omega=     86.3436 meV
     lambda   (   4 )=       0.247233   gamma   =       0.822385 meV   omega=    138.1408 meV
     lambda_tr(   4 )=       0.247233   gamma_tr=       0.822385 meV   omega=    138.1408 meV
     lambda   (   5 )=       0.235708   gamma   =       0.816827 meV   omega=    140.9988 meV
     lambda_tr(   5 )=       0.235708   gamma_tr=       0.816827 meV   omega=    140.9988 meV
     lambda   (   6 )=       0.000776   gamma   =       0.002990 meV   omega=    148.7017 meV
     lambda_tr(   6 )=       0.000776   gamma_tr=       0.002990 meV   omega=    148.7017 meV
     lambda( tot )=       0.597838
     lambda_tr( tot )=       0.597838

     Omega(   1 )=   0.0486 eV   Re[Pi]=       0.503585 meV Im[Pi]=       0.005506 meV
     Omega(   2 )=   0.0621 eV   Re[Pi]=       0.117431 meV Im[Pi]=      -0.006176 meV
     Omega(   3 )=   0.0863 eV   Re[Pi]=       0.500026 meV Im[Pi]=      -0.003932 meV
     Omega(   4 )=   0.1381 eV   Re[Pi]=       5.691296 meV Im[Pi]=      -0.139065 meV
     Omega(   5 )=   0.1410 eV   Re[Pi]=       5.022504 meV Im[Pi]=      -0.203340 meV
     Omega(   6 )=   0.1487 eV   Re[Pi]=       2.308332 meV Im[Pi]=       0.000727 meV
     Number of (k,k+q) pairs on the Fermi surface:      216 out of      216
     -------------------------------------------------------------------


     ismear =     1 iq =      33 coord.:   0.00000  0.83333  0.33333 wt:   0.00463
     -------------------------------------------------------------------
     lambda   (   1 )=       0.000065   gamma   =       0.000060 meV   omega=     72.8287 meV
     lambda_tr(   1 )=       0.000065   gamma_tr=       0.000060 meV   omega=     72.8287 meV
     lambda   (   2 )=       0.000002   gamma   =       0.000003 meV   omega=     88.1575 meV
     lambda_tr(   2 )=       0.000002   gamma_tr=       0.000003 meV   omega=     88.1575 meV
     lambda   (   3 )=       0.000065   gamma   =       0.000162 meV   omega=    119.1608 meV
     lambda_tr(   3 )=       0.000065   gamma_tr=       0.000162 meV   omega=    119.1608 meV
     lambda   (   4 )=       0.000404   gamma   =       0.001410 meV   omega=    141.4730 meV
     lambda_tr(   4 )=       0.000404   gamma_tr=       0.001410 meV   omega=    141.4730 meV
     lambda   (   5 )=       0.000224   gamma   =       0.000829 meV   omega=    145.6215 meV
     lambda_tr(   5 )=       0.000224   gamma_tr=       0.000829 meV   omega=    145.6215 meV
     lambda   (   6 )=       0.000197   gamma   =       0.000800 meV   omega=    152.5914 meV
     lambda_tr(   6 )=       0.000197   gamma_tr=       0.000800 meV   omega=    152.5914 meV
     lambda( tot )=       0.000958
     lambda_tr( tot )=       0.000958

     Omega(   1 )=   0.0728 eV   Re[Pi]=       0.251439 meV Im[Pi]=      -0.000004 meV
     Omega(   2 )=   0.0882 eV   Re[Pi]=       0.118139 meV Im[Pi]=      -0.000000 meV
     Omega(   3 )=   0.1192 eV   Re[Pi]=       0.453314 meV Im[Pi]=      -0.000003 meV
     Omega(   4 )=   0.1415 eV   Re[Pi]=       2.902113 meV Im[Pi]=      -0.000031 meV
     Omega(   5 )=   0.1456 eV   Re[Pi]=       2.361396 meV Im[Pi]=      -0.000075 meV
     Omega(   6 )=   0.1526 eV   Re[Pi]=       1.300375 meV Im[Pi]=       0.000026 meV
     Number of (k,k+q) pairs on the Fermi surface:      216 out of      216
     -------------------------------------------------------------------


     ismear =     1 iq =      34 coord.:   0.00000  0.83333  0.50000 wt:   0.00463
     -------------------------------------------------------------------
     lambda   (   1 )=       0.000000   gamma   =       0.000000 meV   omega=     77.7749 meV
     lambda_tr(   1 )=       0.000000   gamma_tr=       0.000000 meV   omega=     77.7749 meV
     lambda   (   2 )=       0.000000   gamma   =       0.000000 meV   omega=     88.0058 meV
     lambda_tr(   2 )=       0.000000   gamma_tr=       0.000000 meV   omega=     88.0058 meV
     lambda   (   3 )=       0.000000   gamma   =       0.000000 meV   omega=    125.9658 meV
     lambda_tr(   3 )=       0.000000   gamma_tr=       0.000000 meV   omega=    125.9658 meV
     lambda   (   4 )=       0.000000   gamma   =       0.000000 meV   omega=    142.0351 meV
     lambda_tr(   4 )=       0.000000   gamma_tr=       0.000000 meV   omega=    142.0351 meV
     lambda   (   5 )=       0.000000   gamma   =       0.000000 meV   omega=    146.6975 meV
     lambda_tr(   5 )=       0.000000   gamma_tr=       0.000000 meV   omega=    146.6975 meV
     lambda   (   6 )=       0.000000   gamma   =       0.000000 meV   omega=    153.5363 meV
     lambda_tr(   6 )=       0.000000   gamma_tr=       0.000000 meV   omega=    153.5363 meV
     lambda( tot )=       0.000000
     lambda_tr( tot )=       0.000000

     Omega(   1 )=   0.0778 eV   Re[Pi]=       0.086943 meV Im[Pi]=       0.000000 meV
     Omega(   2 )=   0.0880 eV   Re[Pi]=       0.189637 meV Im[Pi]=      -0.000000 meV
     Omega(   3 )=   0.1260 eV   Re[Pi]=       0.382841 meV Im[Pi]=      -0.000000 meV
     Omega(   4 )=   0.1420 eV   Re[Pi]=       2.313004 meV Im[Pi]=      -0.000000 meV
     Omega(   5 )=   0.1467 eV   Re[Pi]=       2.083942 meV Im[Pi]=      -0.000000 meV
     Omega(   6 )=   0.1535 eV   Re[Pi]=       1.128503 meV Im[Pi]=       0.000000 meV
     Number of (k,k+q) pairs on the Fermi surface:      216 out of      216
     -------------------------------------------------------------------


     ismear =     1 iq =      35 coord.:   0.00000  0.83333  0.66667 wt:   0.00463
     -------------------------------------------------------------------
     lambda   (   1 )=      -0.000003   gamma   =      -0.000002 meV   omega=     64.7460 meV
     lambda_tr(   1 )=      -0.000003   gamma_tr=      -0.000002 meV   omega=     64.7460 meV
     lambda   (   2 )=       0.000057   gamma   =       0.000045 meV   omega=     67.6061 meV
     lambda_tr(   2 )=       0.000057   gamma_tr=       0.000045 meV   omega=     67.6061 meV
     lambda   (   3 )=       0.000089   gamma   =       0.000154 meV   omega=     99.9655 meV
     lambda_tr(   3 )=       0.000089   gamma_tr=       0.000154 meV   omega=     99.9655 meV
     lambda   (   4 )=       0.000387   gamma   =       0.001347 meV   omega=    141.2937 meV
     lambda_tr(   4 )=       0.000387   gamma_tr=       0.001347 meV   omega=    141.2937 meV
     lambda   (   5 )=       0.000721   gamma   =       0.002582 meV   omega=    143.2909 meV
     lambda_tr(   5 )=       0.000721   gamma_tr=       0.002582 meV   omega=    143.2909 meV
     lambda   (   6 )=       0.000054   gamma   =       0.000225 meV   omega=    154.9862 meV
     lambda_tr(   6 )=       0.000054   gamma_tr=       0.000225 meV   omega=    154.9862 meV
     lambda( tot )=       0.001305
     lambda_tr( tot )=       0.001305

     Omega(   1 )=   0.0647 eV   Re[Pi]=       0.053469 meV Im[Pi]=      -0.000005 meV
     Omega(   2 )=   0.0676 eV   Re[Pi]=       0.221847 meV Im[Pi]=      -0.000002 meV
     Omega(   3 )=   0.1000 eV   Re[Pi]=       0.475731 meV Im[Pi]=      -0.000003 meV
     Omega(   4 )=   0.1413 eV   Re[Pi]=       3.296639 meV Im[Pi]=      -0.000095 meV
     Omega(   5 )=   0.1433 eV   Re[Pi]=       3.530930 meV Im[Pi]=      -0.000219 meV
     Omega(   6 )=   0.1550 eV   Re[Pi]=       2.181720 meV Im[Pi]=      -0.000041 meV
     Number of (k,k+q) pairs on the Fermi surface:      216 out of      216
     -------------------------------------------------------------------


     ismear =     1 iq =      36 coord.:   0.00000  0.83333  0.83333 wt:   0.00463
     -------------------------------------------------------------------
     lambda   (   1 )=      -0.008007   gamma   =      -0.002046 meV   omega=     38.2840 meV
     lambda_tr(   1 )=      -0.008007   gamma_tr=      -0.002046 meV   omega=     38.2840 meV
     lambda   (   2 )=       0.000009   gamma   =       0.000003 meV   omega=     41.7104 meV
     lambda_tr(   2 )=       0.000009   gamma_tr=       0.000003 meV   omega=     41.7104 meV
     lambda   (   3 )=       0.032575   gamma   =       0.022067 meV   omega=     62.3401 meV
     lambda_tr(   3 )=       0.032575   gamma_tr=       0.022067 meV   omega=     62.3401 meV
     lambda   (   4 )=       0.100026   gamma   =       0.302909 meV   omega=    131.8069 meV
     lambda_tr(   4 )=       0.100026   gamma_tr=       0.302909 meV   omega=    131.8069 meV
     lambda   (   5 )=       0.094130   gamma   =       0.289549 meV   omega=    132.8416 meV
     lambda_tr(   5 )=       0.094130   gamma_tr=       0.289549 meV   omega=    132.8416 meV
     lambda   (   6 )=       0.123473   gamma   =       0.423005 meV   omega=    140.1924 meV
     lambda_tr(   6 )=       0.123473   gamma_tr=       0.423005 meV   omega=    140.1924 meV
     lambda( tot )=       0.342206
     lambda_tr( tot )=       0.342206

     Omega(   1 )=   0.0383 eV   Re[Pi]=       0.231139 meV Im[Pi]=      -0.004985 meV
     Omega(   2 )=   0.0417 eV   Re[Pi]=       0.150741 meV Im[Pi]=      -0.001981 meV
[...]
     Omega(   4 )=   0.1344 eV   Re[Pi]=       0.745498 meV Im[Pi]=      -0.000000 meV
     Omega(   5 )=   0.1463 eV   Re[Pi]=       1.158176 meV Im[Pi]=       0.000000 meV
     Omega(   6 )=   0.1509 eV   Re[Pi]=       1.488382 meV Im[Pi]=      -0.000000 meV
     Number of (k,k+q) pairs on the Fermi surface:      216 out of      216
     -------------------------------------------------------------------


     ismear =     1 iq =     208 coord.:   0.83333  0.66667  0.50000 wt:   0.00463
     -------------------------------------------------------------------
     lambda   (   1 )=       0.000000   gamma   =       0.000000 meV   omega=     83.0933 meV
     lambda_tr(   1 )=       0.000000   gamma_tr=       0.000000 meV   omega=     83.0933 meV
     lambda   (   2 )=       0.000000   gamma   =       0.000000 meV   omega=     95.8512 meV
     lambda_tr(   2 )=       0.000000   gamma_tr=       0.000000 meV   omega=     95.8512 meV
     lambda   (   3 )=       0.000000   gamma   =       0.000000 meV   omega=    116.0816 meV
     lambda_tr(   3 )=       0.000000   gamma_tr=       0.000000 meV   omega=    116.0816 meV
     lambda   (   4 )=       0.000000   gamma   =       0.000000 meV   omega=    141.2052 meV
     lambda_tr(   4 )=       0.000000   gamma_tr=       0.000000 meV   omega=    141.2052 meV
     lambda   (   5 )=       0.000000   gamma   =       0.000000 meV   omega=    148.9283 meV
     lambda_tr(   5 )=       0.000000   gamma_tr=       0.000000 meV   omega=    148.9283 meV
     lambda   (   6 )=       0.000000   gamma   =       0.000000 meV   omega=    155.5150 meV
     lambda_tr(   6 )=       0.000000   gamma_tr=       0.000000 meV   omega=    155.5150 meV
     lambda( tot )=       0.000000
     lambda_tr( tot )=       0.000000

     Omega(   1 )=   0.0831 eV   Re[Pi]=       0.183739 meV Im[Pi]=      -0.000000 meV
     Omega(   2 )=   0.0959 eV   Re[Pi]=       0.115245 meV Im[Pi]=      -0.000000 meV
     Omega(   3 )=   0.1161 eV   Re[Pi]=       0.467970 meV Im[Pi]=       0.000000 meV
     Omega(   4 )=   0.1412 eV   Re[Pi]=       1.609000 meV Im[Pi]=      -0.000000 meV
     Omega(   5 )=   0.1489 eV   Re[Pi]=       1.854556 meV Im[Pi]=      -0.000000 meV
     Omega(   6 )=   0.1555 eV   Re[Pi]=       1.230498 meV Im[Pi]=      -0.000000 meV
     Number of (k,k+q) pairs on the Fermi surface:      216 out of      216
     -------------------------------------------------------------------


     ismear =     1 iq =     209 coord.:   0.83333  0.66667  0.66667 wt:   0.00463
     -------------------------------------------------------------------
     lambda   (   1 )=       0.000013   gamma   =       0.000010 meV   omega=     66.0689 meV
     lambda_tr(   1 )=       0.000013   gamma_tr=       0.000010 meV   omega=     66.0689 meV
     lambda   (   2 )=       0.000045   gamma   =       0.000036 meV   omega=     68.1590 meV
     lambda_tr(   2 )=       0.000045   gamma_tr=       0.000036 meV   omega=     68.1590 meV
     lambda   (   3 )=       0.000080   gamma   =       0.000139 meV   omega=    100.2624 meV
     lambda_tr(   3 )=       0.000080   gamma_tr=       0.000139 meV   omega=    100.2624 meV
     lambda   (   4 )=       0.000418   gamma   =       0.001441 meV   omega=    140.6693 meV
     lambda_tr(   4 )=       0.000418   gamma_tr=       0.001441 meV   omega=    140.6693 meV
     lambda   (   5 )=       0.000683   gamma   =       0.002430 meV   omega=    142.9190 meV
     lambda_tr(   5 )=       0.000683   gamma_tr=       0.002430 meV   omega=    142.9190 meV
     lambda   (   6 )=       0.000061   gamma   =       0.000254 meV   omega=    154.9053 meV
     lambda_tr(   6 )=       0.000061   gamma_tr=       0.000254 meV   omega=    154.9053 meV
     lambda( tot )=       0.001298
     lambda_tr( tot )=       0.001298

     Omega(   1 )=   0.0661 eV   Re[Pi]=       0.077122 meV Im[Pi]=       0.000003 meV
     Omega(   2 )=   0.0682 eV   Re[Pi]=       0.240707 meV Im[Pi]=      -0.000006 meV
     Omega(   3 )=   0.1003 eV   Re[Pi]=       0.542978 meV Im[Pi]=      -0.000010 meV
     Omega(   4 )=   0.1407 eV   Re[Pi]=       3.380779 meV Im[Pi]=      -0.000044 meV
     Omega(   5 )=   0.1429 eV   Re[Pi]=       3.456817 meV Im[Pi]=      -0.000217 meV
     Omega(   6 )=   0.1549 eV   Re[Pi]=       2.142328 meV Im[Pi]=      -0.000021 meV
     Number of (k,k+q) pairs on the Fermi surface:      216 out of      216
     -------------------------------------------------------------------


     ismear =     1 iq =     210 coord.:   0.83333  0.66667  0.83333 wt:   0.00463
     -------------------------------------------------------------------
     lambda   (   1 )=       0.094464   gamma   =       0.038832 meV   omega=     48.5626 meV
     lambda_tr(   1 )=       0.094464   gamma_tr=       0.038832 meV   omega=     48.5626 meV
     lambda   (   2 )=      -0.001594   gamma   =      -0.001070 meV   omega=     62.0541 meV
     lambda_tr(   2 )=      -0.001594   gamma_tr=      -0.001070 meV   omega=     62.0541 meV
     lambda   (   3 )=       0.021237   gamma   =       0.027597 meV   omega=     86.3436 meV
     lambda_tr(   3 )=       0.021237   gamma_tr=       0.027597 meV   omega=     86.3436 meV
     lambda   (   4 )=       0.247236   gamma   =       0.822393 meV   omega=    138.1408 meV
     lambda_tr(   4 )=       0.247235   gamma_tr=       0.822393 meV   omega=    138.1408 meV
     lambda   (   5 )=       0.235706   gamma   =       0.816820 meV   omega=    140.9988 meV
     lambda_tr(   5 )=       0.235706   gamma_tr=       0.816820 meV   omega=    140.9988 meV
     lambda   (   6 )=       0.000776   gamma   =       0.002989 meV   omega=    148.7017 meV
     lambda_tr(   6 )=       0.000776   gamma_tr=       0.002989 meV   omega=    148.7017 meV
     lambda( tot )=       0.597824
     lambda_tr( tot )=       0.597824

     Omega(   1 )=   0.0486 eV   Re[Pi]=       0.503578 meV Im[Pi]=       0.005501 meV
     Omega(   2 )=   0.0621 eV   Re[Pi]=       0.117433 meV Im[Pi]=      -0.006176 meV
     Omega(   3 )=   0.0863 eV   Re[Pi]=       0.500019 meV Im[Pi]=      -0.003932 meV
     Omega(   4 )=   0.1381 eV   Re[Pi]=       5.691302 meV Im[Pi]=      -0.139059 meV
     Omega(   5 )=   0.1410 eV   Re[Pi]=       5.022499 meV Im[Pi]=      -0.203344 meV
     Omega(   6 )=   0.1487 eV   Re[Pi]=       2.308328 meV Im[Pi]=       0.000727 meV
     Number of (k,k+q) pairs on the Fermi surface:      216 out of      216
     -------------------------------------------------------------------


     ismear =     1 iq =     211 coord.:   0.83333  0.83333  0.00000 wt:   0.00463
     -------------------------------------------------------------------
     lambda   (   1 )=      -0.008007   gamma   =      -0.002046 meV   omega=     38.2840 meV
     lambda_tr(   1 )=      -0.008007   gamma_tr=      -0.002046 meV   omega=     38.2840 meV
     lambda   (   2 )=       0.000009   gamma   =       0.000003 meV   omega=     41.7104 meV
     lambda_tr(   2 )=       0.000009   gamma_tr=       0.000003 meV   omega=     41.7104 meV
     lambda   (   3 )=       0.032575   gamma   =       0.022067 meV   omega=     62.3401 meV
     lambda_tr(   3 )=       0.032575   gamma_tr=       0.022067 meV   omega=     62.3401 meV
     lambda   (   4 )=       0.100026   gamma   =       0.302909 meV   omega=    131.8069 meV
     lambda_tr(   4 )=       0.100025   gamma_tr=       0.302909 meV   omega=    131.8069 meV
     lambda   (   5 )=       0.094130   gamma   =       0.289549 meV   omega=    132.8416 meV
     lambda_tr(   5 )=       0.094130   gamma_tr=       0.289549 meV   omega=    132.8416 meV
     lambda   (   6 )=       0.123473   gamma   =       0.423005 meV   omega=    140.1924 meV
     lambda_tr(   6 )=       0.123473   gamma_tr=       0.423005 meV   omega=    140.1924 meV
     lambda( tot )=       0.342206
     lambda_tr( tot )=       0.342206

     Omega(   1 )=   0.0383 eV   Re[Pi]=       0.231139 meV Im[Pi]=      -0.004985 meV
     Omega(   2 )=   0.0417 eV   Re[Pi]=       0.150741 meV Im[Pi]=      -0.001980 meV
     Omega(   3 )=   0.0623 eV   Re[Pi]=       0.917482 meV Im[Pi]=      -0.005067 meV
     Omega(   4 )=   0.1318 eV   Re[Pi]=       6.947304 meV Im[Pi]=      -0.042669 meV
     Omega(   5 )=   0.1328 eV   Re[Pi]=       6.668835 meV Im[Pi]=      -0.043266 meV
     Omega(   6 )=   0.1402 eV   Re[Pi]=       6.840952 meV Im[Pi]=      -0.038352 meV
     Number of (k,k+q) pairs on the Fermi surface:      216 out of      216
     -------------------------------------------------------------------


     ismear =     1 iq =     212 coord.:   0.83333  0.83333  0.16667 wt:   0.00463
     -------------------------------------------------------------------
     lambda   (   1 )=       0.000013   gamma   =       0.000010 meV   omega=     66.0689 meV
     lambda_tr(   1 )=       0.000013   gamma_tr=       0.000010 meV   omega=     66.0689 meV
     lambda   (   2 )=       0.000045   gamma   =       0.000036 meV   omega=     68.1590 meV
     lambda_tr(   2 )=       0.000045   gamma_tr=       0.000036 meV   omega=     68.1590 meV
     lambda   (   3 )=       0.000080   gamma   =       0.000139 meV   omega=    100.2624 meV
     lambda_tr(   3 )=       0.000080   gamma_tr=       0.000139 meV   omega=    100.2624 meV
     lambda   (   4 )=       0.000418   gamma   =       0.001441 meV   omega=    140.6693 meV
     lambda_tr(   4 )=       0.000418   gamma_tr=       0.001441 meV   omega=    140.6693 meV
     lambda   (   5 )=       0.000683   gamma   =       0.002430 meV   omega=    142.9190 meV
     lambda_tr(   5 )=       0.000683   gamma_tr=       0.002430 meV   omega=    142.9190 meV
     lambda   (   6 )=       0.000061   gamma   =       0.000254 meV   omega=    154.9053 meV
     lambda_tr(   6 )=       0.000061   gamma_tr=       0.000254 meV   omega=    154.9053 meV
     lambda( tot )=       0.001298
     lambda_tr( tot )=       0.001298

     Omega(   1 )=   0.0661 eV   Re[Pi]=       0.077122 meV Im[Pi]=       0.000003 meV
     Omega(   2 )=   0.0682 eV   Re[Pi]=       0.240707 meV Im[Pi]=      -0.000006 meV
     Omega(   3 )=   0.1003 eV   Re[Pi]=       0.542980 meV Im[Pi]=      -0.000010 meV
     Omega(   4 )=   0.1407 eV   Re[Pi]=       3.380779 meV Im[Pi]=      -0.000044 meV
     Omega(   5 )=   0.1429 eV   Re[Pi]=       3.456818 meV Im[Pi]=      -0.000217 meV
     Omega(   6 )=   0.1549 eV   Re[Pi]=       2.142330 meV Im[Pi]=      -0.000021 meV
     Number of (k,k+q) pairs on the Fermi surface:      216 out of      216
     -------------------------------------------------------------------


     ismear =     1 iq =     213 coord.:   0.83333  0.83333  0.33333 wt:   0.00463
     -------------------------------------------------------------------
     lambda   (   1 )=       0.000000   gamma   =       0.000000 meV   omega=     79.7154 meV
     lambda_tr(   1 )=       0.000000   gamma_tr=       0.000000 meV   omega=     79.7154 meV
     lambda   (   2 )=       0.000000   gamma   =       0.000000 meV   omega=     87.7339 meV
     lambda_tr(   2 )=       0.000000   gamma_tr=       0.000000 meV   omega=     87.7339 meV
     lambda   (   3 )=       0.000000   gamma   =       0.000000 meV   omega=    126.6657 meV
     lambda_tr(   3 )=       0.000000   gamma_tr=       0.000000 meV   omega=    126.6657 meV
     lambda   (   4 )=       0.000000   gamma   =       0.000000 meV   omega=    140.9265 meV
     lambda_tr(   4 )=       0.000000   gamma_tr=       0.000000 meV   omega=    140.9265 meV
     lambda   (   5 )=       0.000000   gamma   =       0.000000 meV   omega=    146.5197 meV
     lambda_tr(   5 )=       0.000000   gamma_tr=       0.000000 meV   omega=    146.5197 meV
     lambda   (   6 )=       0.000000   gamma   =       0.000000 meV   omega=    153.3119 meV
     lambda_tr(   6 )=       0.000000   gamma_tr=       0.000000 meV   omega=    153.3119 meV
     lambda( tot )=       0.000000
     lambda_tr( tot )=       0.000000

     Omega(   1 )=   0.0797 eV   Re[Pi]=       0.080935 meV Im[Pi]=      -0.000000 meV
     Omega(   2 )=   0.0877 eV   Re[Pi]=       0.192633 meV Im[Pi]=      -0.000000 meV
     Omega(   3 )=   0.1267 eV   Re[Pi]=       0.402097 meV Im[Pi]=      -0.000000 meV
     Omega(   4 )=   0.1409 eV   Re[Pi]=       2.382174 meV Im[Pi]=      -0.000000 meV
     Omega(   5 )=   0.1465 eV   Re[Pi]=       2.030857 meV Im[Pi]=      -0.000000 meV
     Omega(   6 )=   0.1533 eV   Re[Pi]=       1.206150 meV Im[Pi]=       0.000000 meV
     Number of (k,k+q) pairs on the Fermi surface:      216 out of      216
     -------------------------------------------------------------------


     ismear =     1 iq =     214 coord.:   0.83333  0.83333  0.50000 wt:   0.00463
     -------------------------------------------------------------------
     lambda   (   1 )=       0.000064   gamma   =       0.000060 meV   omega=     73.6384 meV
     lambda_tr(   1 )=       0.000064   gamma_tr=       0.000060 meV   omega=     73.6384 meV
     lambda   (   2 )=       0.000011   gamma   =       0.000014 meV   omega=     86.1002 meV
     lambda_tr(   2 )=       0.000011   gamma_tr=       0.000014 meV   omega=     86.1002 meV
     lambda   (   3 )=       0.000048   gamma   =       0.000116 meV   omega=    118.3688 meV
     lambda_tr(   3 )=       0.000048   gamma_tr=       0.000116 meV   omega=    118.3688 meV
     lambda   (   4 )=       0.000424   gamma   =       0.001470 meV   omega=    141.0495 meV
     lambda_tr(   4 )=       0.000424   gamma_tr=       0.001470 meV   omega=    141.0495 meV
     lambda   (   5 )=       0.000253   gamma   =       0.000949 meV   omega=    146.7040 meV
     lambda_tr(   5 )=       0.000253   gamma_tr=       0.000949 meV   omega=    146.7040 meV
     lambda   (   6 )=       0.000191   gamma   =       0.000785 meV   omega=    153.3472 meV
     lambda_tr(   6 )=       0.000191   gamma_tr=       0.000785 meV   omega=    153.3472 meV
     lambda( tot )=       0.000991
     lambda_tr( tot )=       0.000991

     Omega(   1 )=   0.0736 eV   Re[Pi]=       0.213449 meV Im[Pi]=       0.000000 meV
     Omega(   2 )=   0.0861 eV   Re[Pi]=       0.106406 meV Im[Pi]=       0.000001 meV
     Omega(   3 )=   0.1184 eV   Re[Pi]=       0.390543 meV Im[Pi]=      -0.000001 meV
     Omega(   4 )=   0.1410 eV   Re[Pi]=       2.999274 meV Im[Pi]=      -0.000030 meV
     Omega(   5 )=   0.1467 eV   Re[Pi]=       2.436849 meV Im[Pi]=      -0.000060 meV
     Omega(   6 )=   0.1533 eV   Re[Pi]=       1.350457 meV Im[Pi]=      -0.000012 meV
     Number of (k,k+q) pairs on the Fermi surface:      216 out of      216
     -------------------------------------------------------------------


     ismear =     1 iq =     215 coord.:   0.83333  0.83333  0.66667 wt:   0.00463
     -------------------------------------------------------------------
     lambda   (   1 )=       0.084993   gamma   =       0.041222 meV   omega=     52.7485 meV
     lambda_tr(   1 )=       0.084993   gamma_tr=       0.041222 meV   omega=     52.7485 meV
     lambda   (   2 )=       0.000233   gamma   =       0.000169 meV   omega=     64.5240 meV
     lambda_tr(   2 )=       0.000233   gamma_tr=       0.000169 meV   omega=     64.5240 meV
     lambda   (   3 )=       0.033442   gamma   =       0.044050 meV   omega=     86.9294 meV
     lambda_tr(   3 )=       0.033442   gamma_tr=       0.044050 meV   omega=     86.9294 meV
     lambda   (   4 )=       0.252846   gamma   =       0.820850 meV   omega=    136.4713 meV
     lambda_tr(   4 )=       0.252846   gamma_tr=       0.820849 meV   omega=    136.4713 meV
     lambda   (   5 )=       0.245541   gamma   =       0.842339 meV   omega=    140.2874 meV
     lambda_tr(   5 )=       0.245541   gamma_tr=       0.842338 meV   omega=    140.2874 meV
     lambda   (   6 )=      -0.000002   gamma   =      -0.000008 meV   omega=    148.0964 meV
     lambda_tr(   6 )=      -0.000002   gamma_tr=      -0.000008 meV   omega=    148.0964 meV
     lambda( tot )=       0.617054
     lambda_tr( tot )=       0.617054

     Omega(   1 )=   0.0527 eV   Re[Pi]=       0.345871 meV Im[Pi]=       0.014214 meV
     Omega(   2 )=   0.0645 eV   Re[Pi]=       0.055448 meV Im[Pi]=      -0.000107 meV
     Omega(   3 )=   0.0869 eV   Re[Pi]=       0.483282 meV Im[Pi]=      -0.000420 meV
     Omega(   4 )=   0.1365 eV   Re[Pi]=       5.968591 meV Im[Pi]=      -0.179928 meV
     Omega(   5 )=   0.1403 eV   Re[Pi]=       5.271964 meV Im[Pi]=      -0.236871 meV
     Omega(   6 )=   0.1481 eV   Re[Pi]=       2.346298 meV Im[Pi]=      -0.000073 meV
     Number of (k,k+q) pairs on the Fermi surface:      216 out of      216
     -------------------------------------------------------------------


     ismear =     1 iq =     216 coord.:   0.83333  0.83333  0.83333 wt:   0.00463
     -------------------------------------------------------------------
     lambda   (   1 )=       0.205828   gamma   =       0.040550 meV   omega=     33.6189 meV
     lambda_tr(   1 )=       0.205828   gamma_tr=       0.040550 meV   omega=     33.6189 meV
     lambda   (   2 )=       0.184411   gamma   =       0.039790 meV   omega=     35.1827 meV
     lambda_tr(   2 )=       0.184410   gamma_tr=       0.039789 meV   omega=     35.1827 meV
     lambda   (   3 )=       0.104397   gamma   =       0.064169 meV   omega=     59.3825 meV
     lambda_tr(   3 )=       0.104397   gamma_tr=       0.064169 meV   omega=     59.3825 meV
     lambda   (   4 )=       0.945047   gamma   =       2.646297 meV   omega=    126.7448 meV
     lambda_tr(   4 )=       0.945046   gamma_tr=       2.646293 meV   omega=    126.7448 meV
     lambda   (   5 )=       0.965978   gamma   =       2.722958 meV   omega=    127.1670 meV
     lambda_tr(   5 )=       0.965976   gamma_tr=       2.722951 meV   omega=    127.1670 meV
     lambda   (   6 )=       0.261357   gamma   =       0.831527 meV   omega=    135.1011 meV
     lambda_tr(   6 )=       0.261357   gamma_tr=       0.831527 meV   omega=    135.1011 meV
     lambda( tot )=       2.667018
     lambda_tr( tot )=       2.667013

     Omega(   1 )=   0.0336 eV   Re[Pi]=       0.218873 meV Im[Pi]=       0.019990 meV
     Omega(   2 )=   0.0352 eV   Re[Pi]=       0.209877 meV Im[Pi]=       0.019979 meV
     Omega(   3 )=   0.0594 eV   Re[Pi]=       0.526673 meV Im[Pi]=      -0.027106 meV
     Omega(   4 )=   0.1267 eV   Re[Pi]=       9.253111 meV Im[Pi]=      -0.603195 meV
     Omega(   5 )=   0.1272 eV   Re[Pi]=       9.277930 meV Im[Pi]=      -0.546157 meV
     Omega(   6 )=   0.1351 eV   Re[Pi]=       6.053349 meV Im[Pi]=      -0.362554 meV
     Number of (k,k+q) pairs on the Fermi surface:      216 out of      216
     -------------------------------------------------------------------

     ===================================================================
     Memory usage:  VmHWM =        22Mb
                   VmPeak =       282Mb
     ===================================================================


     Unfolding on the coarse grid
     elphon_wrap  :      0.00s CPU      0.00s WALL (       1 calls)

     INITIALIZATION: 



     Electron-Phonon interpolation
     ephwann      :     10.70s CPU      5.38s WALL (       1 calls)
     ep-interp    :     10.54s CPU      5.30s WALL (     216 calls)
     PH SELF-ENER :      5.64s CPU      2.81s WALL (     432 calls)

     DynW2B       :      0.01s CPU      0.01s WALL (     216 calls)
     HamW2B       :      2.10s CPU      1.05s WALL (   93744 calls)
     ephW2Bp      :      0.08s CPU      0.03s WALL (     216 calls)


     Total program execution
     EPW          :    10.70s CPU         5.38s WALL

                                                                                          
 Please consider citing:                                                                  
 S. Ponce, E. R. Margine, C. Verdi and F. Giustino, Comput. Phys. Commun. 209, 116 (2016) 
                                                                                          
