                                                                                      
                                       ``:oss/                                        
                           `.+s+.     .+ys--yh+     `./ss+.                           
                          -sh//yy+`   +yy   +yy    -+h+-oyy                           
                          -yh- .oyy/.-sh.   .syo-.:sy-  /yh                           
                 `.-.`    `yh+   -oyyyo.     `/syys:    oys      `.`                  
               `/+ssys+-` `sh+      `                   oys`   .:osyo`                
               -yh- ./syyooyo`                          .sys+/oyo--yh/                
               `yy+    .-:-.                             `-/+/:`  -sh-                
                /yh.                                              oys                 
          ``..---hho---------`   .---------..`      `.-----.`    -hd+---.             
       `./osmNMMMMMMMMMMMMMMMs. +NNMMMMMMMMNNmh+.   yNMMMMMNm-  oNMMMMMNmo++:`        
       +sy--/sdMMMhyyyyyyyNMMh- .oyNMMmyyyyyhNMMm+` -yMMMdyyo:` .oyyNMMNhs+syy`       
       -yy/   /MMM+.`-+/``mMMy-   `mMMh:`````.dMMN:` `MMMy-`-dhhy```mMMy:``+hs        
        -yy+` /MMMo:-mMM+`-oo/.    mMMh:     `dMMN/`  dMMm:`dMMMMy..MMMo-.+yo`        
         .sys`/MMMMNNMMMs-         mMMmyooooymMMNo:   oMMM/sMMMMMM++MMN//oh:          
          `sh+/MMMhyyMMMs- `-`     mMMMMMMMMMNmy+-`   -MMMhMMMsmMMmdMMd/yy+           
    `-/+++oyy-/MMM+.`/hh/.`mNm:`   mMMd+/////:-.`      NMMMMMd/:NMMMMMy:/yyo/:.`      
   +os+//:-..-oMMMo:--:::-/MMMo. .-mMMd+---`           hMMMMN+. oMMMMMo. `-+osyso:`   
   syo     `mNMMMMMNNNNNNNNMMMo.oNNMMMMMNNNN:`         +MMMMs:`  dMMMN/`     ``:syo   
   /yh`     :syyyyyyyyyyyyyyyy+.`+syyyyyyyyo:`         .oyys:`   .oyys:`        +yh   
   -yh-        ````````````````    `````````              ``        ``          oys   
   -+h/------------------------::::::::://////++++++++++++++++++++++///////::::/yd:   
   shdddddddddddddddddddddddddddddhhhhhhhhyyyyyssssssssssssssssyyyyyyyhhhhhhhddddh`   
                                                                                      
  S. Ponce, E. R. Margine, C. Verdi, and F. Giustino,                                 
                                                Comput. Phys. Commun. 209, 116 (2016) 
                                                                                      

     Program EPW v.5.5 starts on 19Nov2022 at 12:47:50 

     This program is part of the open-source Quantum ESPRESSO suite
     for quantum simulation of materials; please cite
         "P. Giannozzi et al., J. Phys.:Condens. Matter 21 395502 (2009);
         "P. Giannozzi et al., J. Phys.:Condens. Matter 29 465901 (2017);
         "P. Giannozzi et al., J. Chem. Phys. 152 154105 (2020);
          URL http://www.quantum-espresso.org", 
     in publications or presentations arising from this work. More details at
     http://www.quantum-espresso.org/quote

     Parallel version (MPI), running on     1 processors

     MPI processes distributed on     1 nodes
     52679 MiB available memory on the printing compute node when the environment starts

     Reading input from epw4.in

     Reading supplied temperature list.
                      
     ------------------------------------------------------------------------ 
                   RESTART - RESTART - RESTART - RESTART                         
     Restart is done without reading PWSCF save file.                  
     Be aware that some consistency checks are therefore not done.                  
     ------------------------------------------------------------------------ 
                      

     --                                                                         

     bravais-lattice index     =            0
     lattice parameter (a_0)   =       0.0000  a.u.
     unit-cell volume          =       0.0000 (a.u.)^3
     number of atoms/cell      =            0
     number of atomic types    =            0
     kinetic-energy cut-off    =       0.0000  Ry
     charge density cut-off    =       0.0000  Ry
     Exchange-correlation= not set
                           (  -1  -1  -1  -1  -1  -1  -1)


     celldm(1)=    0.00000  celldm(2)=    0.00000  celldm(3)=    0.00000
     celldm(4)=    0.00000  celldm(5)=    0.00000  celldm(6)=    0.00000

     crystal axes: (cart. coord. in units of a_0)
               a(1) = (  0.0000  0.0000  0.0000 )  
               a(2) = (  0.0000  0.0000  0.0000 )  
               a(3) = (  0.0000  0.0000  0.0000 )  

     reciprocal axes: (cart. coord. in units 2 pi/a_0)
               b(1) = (  0.0000  0.0000  0.0000 )  
               b(2) = (  0.0000  0.0000  0.0000 )  
               b(3) = (  0.0000  0.0000  0.0000 )  


     Atoms inside the unit cell: 

   Cartesian axes

     site n.  atom      mass           positions (a_0 units)


     No symmetry!

     G cutoff =    0.0000  (      0 G-vectors)     FFT grid: (  0,  0,  0)
     number of k points=    0
                       cart. coord. in units 2pi/a_0
     EPW          :      0.00s CPU      0.00s WALL

     EPW          :      0.00s CPU      0.00s WALL


     -------------------------------------------------------------------
     Using diam.ukk from disk
     -------------------------------------------------------------------

     Symmetries of Bravais lattice:  48
     Symmetries of crystal:          48

     Do not need to read .epb files; read .fmt files

     Use zone-centred Wigner-Seitz cells 
     Number of WS vectors for electrons       43
     Number of WS vectors for phonons       43
     Number of WS vectors for electron-phonon       43
     Maximum number of cores for efficient parallelization      258
     Results may improve by using use_ws == .TRUE. 

     Reading Hamiltonian, Dynamical matrix and EP vertex in Wann rep from file


     Finished reading Wann rep data from file

     ===================================================================
     Memory usage:  VmHWM =        18Mb
                   VmPeak =       359Mb
     ===================================================================
     
     Using q-mesh file: path.dat
     Size of q point mesh for interpolation:        201
     Using k-mesh file: path.dat
     Size of k point mesh for interpolation:        402
     Max number of k points per pool:              402

     Fermi energy coarse grid =  14.009579 eV

     ===================================================================

     Fermi energy corresponds to the coarse k-mesh

     ===================================================================

              ibndmin =     1  ebndmin =    -0.944 eV
              ibndmax =     4  ebndmax =    13.891 eV


     Number of ep-matrix elements per pool :        19296 ~=  150.75 Kb (@ 8 bytes/ DP)
      
     A selecq.fmt file was found but re-created because selecqread == .FALSE. 
     Number selected, total         100         100
     Number selected, total         200         200
     We only need to compute      201 q-points
      

     ===================================================================
     Electron (Imaginary) Self-Energy in the Migdal Approximation
     ===================================================================


     Fermi Surface thickness =  15.000000 eV

     Golden Rule strictly enforced with T =   0.025852 eV
     Gaussian Broadening:   1.000000 eV, ngauss=   1
 
     Progression iq (fine) =        100/       201
     Progression iq (fine) =        200/       201
     Average over degenerate eigenstates is performed
     Temperature:  300.000K
     WARNING: only the eigenstates within the Fermi window are meaningful

     ik =       1 coord.:    0.5000000   0.0000000   0.0000000
     -------------------------------------------------------------------
     E(   1 )=  -2.0314 eV   Re[Sigma]=     -92.996476 meV Im[Sigma]=     488.113337 meV     Z=       1.264570 lam=      -0.209217
     E(   2 )=  -0.4915 eV   Re[Sigma]=      -6.735368 meV Im[Sigma]=     441.624452 meV     Z=       1.213160 lam=      -0.175706
     E(   3 )=  10.6149 eV   Re[Sigma]=     -63.565568 meV Im[Sigma]=     440.799446 meV     Z=       1.183987 lam=      -0.155396
     E(   4 )=  10.6149 eV   Re[Sigma]=     -63.565568 meV Im[Sigma]=     440.799446 meV     Z=       1.183987 lam=      -0.155396
     -------------------------------------------------------------------


     ik =       2 coord.:    0.4950000   0.0000000   0.0000000
     -------------------------------------------------------------------
     E(   1 )=  -2.0404 eV   Re[Sigma]=    -104.297372 meV Im[Sigma]=     502.471756 meV     Z=       1.276183 lam=      -0.216413
     E(   2 )=  -0.4805 eV   Re[Sigma]=      -2.765800 meV Im[Sigma]=     446.123962 meV     Z=       1.220972 lam=      -0.180981
     E(   3 )=  10.6157 eV   Re[Sigma]=     -59.643606 meV Im[Sigma]=     450.579625 meV     Z=       1.196718 lam=      -0.164382
     E(   4 )=  10.6157 eV   Re[Sigma]=     -59.643606 meV Im[Sigma]=     450.579625 meV     Z=       1.196718 lam=      -0.164382
     -------------------------------------------------------------------


     ik =       3 coord.:    0.4900000   0.0000000   0.0000000
     -------------------------------------------------------------------
     E(   1 )=  -2.0668 eV   Re[Sigma]=    -121.820853 meV Im[Sigma]=     494.035918 meV     Z=       1.265691 lam=      -0.209918
     E(   2 )=  -0.4481 eV   Re[Sigma]=       6.497682 meV Im[Sigma]=     427.714866 meV     Z=       1.207955 lam=      -0.172155
     E(   3 )=  10.6184 eV   Re[Sigma]=     -55.208875 meV Im[Sigma]=     460.455541 meV     Z=       1.210180 lam=      -0.173677
     E(   4 )=  10.6184 eV   Re[Sigma]=     -55.208875 meV Im[Sigma]=     460.455541 meV     Z=       1.210180 lam=      -0.173677
     -------------------------------------------------------------------


     ik =       4 coord.:    0.4850000   0.0000000   0.0000000
     -------------------------------------------------------------------
     E(   1 )=  -2.1086 eV   Re[Sigma]=    -142.716855 meV Im[Sigma]=     466.202317 meV     Z=       1.238537 lam=      -0.192596
     E(   2 )=  -0.3962 eV   Re[Sigma]=      18.479342 meV Im[Sigma]=     391.103262 meV     Z=       1.179363 lam=      -0.152085
     E(   3 )=  10.6228 eV   Re[Sigma]=     -50.227547 meV Im[Sigma]=     470.295864 meV     Z=       1.224090 lam=      -0.183067
     E(   4 )=  10.6228 eV   Re[Sigma]=     -50.227547 meV Im[Sigma]=     470.295864 meV     Z=       1.224090 lam=      -0.183067
     -------------------------------------------------------------------


     ik =       5 coord.:    0.4800000   0.0000000   0.0000000
     -------------------------------------------------------------------
     E(   1 )=  -2.1632 eV   Re[Sigma]=    -163.854903 meV Im[Sigma]=     425.856355 meV     Z=       1.203918 lam=      -0.169379
     E(   2 )=  -0.3275 eV   Re[Sigma]=      30.271143 meV Im[Sigma]=     344.079722 meV     Z=       1.143903 lam=      -0.125800
     E(   3 )=  10.6289 eV   Re[Sigma]=     -44.678349 meV Im[Sigma]=     479.956855 meV     Z=       1.238036 lam=      -0.192269
     E(   4 )=  10.6289 eV   Re[Sigma]=     -44.678349 meV Im[Sigma]=     479.956855 meV     Z=       1.238036 lam=      -0.192269
     -------------------------------------------------------------------


     ik =       6 coord.:    0.4750000   0.0000000   0.0000000
     -------------------------------------------------------------------
     E(   1 )=  -2.2281 eV   Re[Sigma]=    -183.030245 meV Im[Sigma]=     380.379278 meV     Z=       1.169310 lam=      -0.144795
     E(   2 )=  -0.2445 eV   Re[Sigma]=      39.818737 meV Im[Sigma]=     294.535172 meV     Z=       1.108891 lam=      -0.098198
     E(   3 )=  10.6367 eV   Re[Sigma]=     -38.558260 meV Im[Sigma]=     489.286050 meV     Z=       1.251475 lam=      -0.200943
     E(   4 )=  10.6367 eV   Re[Sigma]=     -38.558260 meV Im[Sigma]=     489.286050 meV     Z=       1.251475 lam=      -0.200943
     -------------------------------------------------------------------


     ik =       7 coord.:    0.4700000   0.0000000   0.0000000
     -------------------------------------------------------------------
     E(   1 )=  -2.3010 eV   Re[Sigma]=    -199.234676 meV Im[Sigma]=     335.223142 meV     Z=       1.138163 lam=      -0.121392
     E(   2 )=  -0.1496 eV   Re[Sigma]=      46.250887 meV Im[Sigma]=     248.238457 meV     Z=       1.078374 lam=      -0.072678
     E(   3 )=  10.6463 eV   Re[Sigma]=     -31.887990 meV Im[Sigma]=     498.127290 meV     Z=       1.263754 lam=      -0.208707
     E(   4 )=  10.6463 eV   Re[Sigma]=     -31.887990 meV Im[Sigma]=     498.127290 meV     Z=       1.263754 lam=      -0.208707
     -------------------------------------------------------------------


     ik =       8 coord.:    0.4650000   0.0000000   0.0000000
     -------------------------------------------------------------------
     E(   1 )=  -2.3799 eV   Re[Sigma]=    -212.255273 meV Im[Sigma]=     293.091812 meV     Z=       1.110501 lam=      -0.099505
     E(   2 )=  -0.0448 eV   Re[Sigma]=      49.599039 meV Im[Sigma]=     208.143739 meV     Z=       1.053684 lam=      -0.050949
     E(   3 )=  10.6576 eV   Re[Sigma]=     -24.716095 meV Im[Sigma]=     506.327033 meV     Z=       1.274172 lam=      -0.215176
     E(   4 )=  10.6576 eV   Re[Sigma]=     -24.716095 meV Im[Sigma]=     506.327033 meV     Z=       1.274172 lam=      -0.215176
     -------------------------------------------------------------------


     ik =       9 coord.:    0.4600000   0.0000000   0.0000000
     -------------------------------------------------------------------
     E(   1 )=  -2.4632 eV   Re[Sigma]=    -222.129023 meV Im[Sigma]=     254.548517 meV     Z=       1.084784 lam=      -0.078157
     E(   2 )=   0.0686 eV   Re[Sigma]=      50.355633 meV Im[Sigma]=     174.939964 meV     Z=       1.034627 lam=      -0.033468
     E(   3 )=  10.6706 eV   Re[Sigma]=     -17.119932 meV Im[Sigma]=     513.741761 meV     Z=       1.282078 lam=      -0.220016
     E(   4 )=  10.6706 eV   Re[Sigma]=     -17.119932 meV Im[Sigma]=     513.741761 meV     Z=       1.282078 lam=      -0.220016
     -------------------------------------------------------------------


     ik =      10 coord.:    0.4550000   0.0000000   0.0000000
     -------------------------------------------------------------------
     E(   1 )=  -2.5499 eV   Re[Sigma]=    -228.846401 meV Im[Sigma]=     219.188344 meV     Z=       1.060071 lam=      -0.056667
     E(   2 )=   0.1891 eV   Re[Sigma]=      49.177122 meV Im[Sigma]=     148.052739 meV     Z=       1.020387 lam=      -0.019980
     E(   3 )=  10.6853 eV   Re[Sigma]=      -9.203798 meV Im[Sigma]=     520.246086 meV     Z=       1.286998 lam=      -0.222998
     E(   4 )=  10.6853 eV   Re[Sigma]=      -9.203798 meV Im[Sigma]=     520.246086 meV     Z=       1.286998 lam=      -0.222998
     -------------------------------------------------------------------


     ik =      11 coord.:    0.4500000   0.0000000   0.0000000
     -------------------------------------------------------------------
     E(   1 )=  -2.6391 eV   Re[Sigma]=    -232.416092 meV Im[Sigma]=     186.593702 meV     Z=       1.037200 lam=      -0.035865
     E(   2 )=   0.3160 eV   Re[Sigma]=      46.693909 meV Im[Sigma]=     126.450229 meV     Z=       1.009970 lam=      -0.009871
     E(   3 )=  10.7016 eV   Re[Sigma]=      -1.091603 meV Im[Sigma]=     525.741030 meV     Z=       1.288739 lam=      -0.224048
     E(   4 )=  10.7016 eV   Re[Sigma]=      -1.091603 meV Im[Sigma]=     525.741030 meV     Z=       1.288739 lam=      -0.224048
     -------------------------------------------------------------------


     ik =      12 coord.:    0.4450000   0.0000000   0.0000000
     -------------------------------------------------------------------
     E(   1 )=  -2.7300 eV   Re[Sigma]=    -233.081168 meV Im[Sigma]=     156.757144 meV     Z=       1.017954 lam=      -0.017638
     E(   2 )=   0.4486 eV   Re[Sigma]=      43.402486 meV Im[Sigma]=     109.102644 meV     Z=       1.002442 lam=      -0.002436
     E(   3 )=  10.7196 eV   Re[Sigma]=       7.085596 meV Im[Sigma]=     530.161749 meV     Z=       1.287456 lam=      -0.223275
     E(   4 )=  10.7196 eV   Re[Sigma]=       7.085596 meV Im[Sigma]=     530.161749 meV     Z=       1.287456 lam=      -0.223275
     -------------------------------------------------------------------


     ik =      13 coord.:    0.4400000   0.0000000   0.0000000
     -------------------------------------------------------------------
     E(   1 )=  -2.8223 eV   Re[Sigma]=    -231.386496 meV Im[Sigma]=     130.045603 meV     Z=       1.003417 lam=      -0.003406
     E(   2 )=   0.5863 eV   Re[Sigma]=      39.668421 meV Im[Sigma]=      95.142893 meV     Z=       0.997028 lam=       0.002981
     E(   3 )=  10.7392 eV   Re[Sigma]=      15.202769 meV Im[Sigma]=     533.483917 meV     Z=       1.283624 lam=      -0.220956
     E(   4 )=  10.7392 eV   Re[Sigma]=      15.202769 meV Im[Sigma]=     533.483917 meV     Z=       1.283624 lam=      -0.220956
     -------------------------------------------------------------------


     ik =      14 coord.:    0.4350000   0.0000000   0.0000000
     -------------------------------------------------------------------
     E(   1 )=  -2.9156 eV   Re[Sigma]=    -228.021692 meV Im[Sigma]=     106.937700 meV     Z=       0.993409 lam=       0.006634
     E(   2 )=   0.7288 eV   Re[Sigma]=      35.743540 meV Im[Sigma]=      83.881147 meV     Z=       0.993131 lam=       0.006917
     E(   3 )=  10.7605 eV   Re[Sigma]=      23.153824 meV Im[Sigma]=     535.727933 meV     Z=       1.277941 lam=      -0.217491
     E(   4 )=  10.7605 eV   Re[Sigma]=      23.153824 meV Im[Sigma]=     535.727933 meV     Z=       1.277941 lam=      -0.217491
     -------------------------------------------------------------------


     ik =      15 coord.:    0.4300000   0.0000000   0.0000000
     -------------------------------------------------------------------
     E(   1 )=  -3.0096 eV   Re[Sigma]=    -223.626410 meV Im[Sigma]=      87.752871 meV     Z=       0.987016 lam=       0.013155
     E(   2 )=   0.8756 eV   Re[Sigma]=      31.791928 meV Im[Sigma]=      74.779068 meV     Z=       0.990324 lam=       0.009770
     E(   3 )=  10.7833 eV   Re[Sigma]=      30.861256 meV Im[Sigma]=     536.960239 meV     Z=       1.271193 lam=      -0.213338
     E(   4 )=  10.7833 eV   Re[Sigma]=      30.861256 meV Im[Sigma]=     536.960239 meV     Z=       1.271193 lam=      -0.213338
     -------------------------------------------------------------------


     ik =      16 coord.:    0.4250000   0.0000000   0.0000000
     -------------------------------------------------------------------
     E(   1 )=  -3.1040 eV   Re[Sigma]=    -218.691227 meV Im[Sigma]=      72.497964 meV     Z=       0.983209 lam=       0.017078
     E(   2 )=   1.0267 eV   Re[Sigma]=      27.916792 meV Im[Sigma]=      67.425711 meV     Z=       0.988318 lam=       0.011820
     E(   3 )=  10.8076 eV   Re[Sigma]=      38.280837 meV Im[Sigma]=     537.291225 meV     Z=       1.264117 lam=      -0.208934
     E(   4 )=  10.8076 eV   Re[Sigma]=      38.280837 meV Im[Sigma]=     537.291225 meV     Z=       1.264117 lam=      -0.208934
     -------------------------------------------------------------------


     ik =      17 coord.:    0.4200000   0.0000000   0.0000000
     -------------------------------------------------------------------
     E(   1 )=  -3.1987 eV   Re[Sigma]=    -213.548230 meV Im[Sigma]=      60.859089 meV     Z=       0.981152 lam=       0.019210
     E(   2 )=   1.1816 eV   Re[Sigma]=      24.185035 meV Im[Sigma]=      61.530499 meV     Z=       0.986917 lam=       0.013256
     E(   3 )=  10.8335 eV   Re[Sigma]=      45.401230 meV Im[Sigma]=     536.869536 meV     Z=       1.257304 lam=      -0.204648
     E(   4 )=  10.8335 eV   Re[Sigma]=      45.401230 meV Im[Sigma]=     536.869536 meV     Z=       1.257304 lam=      -0.204648
     -------------------------------------------------------------------


     ik =      18 coord.:    0.4150000   0.0000000   0.0000000
     -------------------------------------------------------------------
     E(   1 )=  -3.2937 eV   Re[Sigma]=    -208.401220 meV Im[Sigma]=      52.298233 meV     Z=       0.980246 lam=       0.020152
     E(   2 )=   1.3404 eV   Re[Sigma]=      20.649235 meV Im[Sigma]=      56.903225 meV     Z=       0.985989 lam=       0.014210
     E(   3 )=  10.8608 eV   Re[Sigma]=      52.239552 meV Im[Sigma]=     535.872980 meV     Z=       1.251158 lam=      -0.200740
     E(   4 )=  10.8608 eV   Re[Sigma]=      52.239552 meV Im[Sigma]=     535.872980 meV     Z=       1.251158 lam=      -0.200740
     -------------------------------------------------------------------


     ik =      19 coord.:    0.4100000   0.0000000   0.0000000
     -------------------------------------------------------------------
     E(   1 )=  -3.3887 eV   Re[Sigma]=    -203.372507 meV Im[Sigma]=      46.187857 meV     Z=       0.980090 lam=       0.020315
     E(   2 )=   1.5028 eV   Re[Sigma]=      17.344392 meV Im[Sigma]=      53.295046 meV     Z=       0.985408 lam=       0.014808
     E(   3 )=  10.8897 eV   Re[Sigma]=      58.833764 meV Im[Sigma]=     534.496662 meV     Z=       1.245892 lam=      -0.197362
     E(   4 )=  10.8897 eV   Re[Sigma]=      58.833764 meV Im[Sigma]=     534.496662 meV     Z=       1.245892 lam=      -0.197362
     -------------------------------------------------------------------


     ik =      20 coord.:    0.4050000   0.0000000   0.0000000
     -------------------------------------------------------------------
     E(   1 )=  -3.4838 eV   Re[Sigma]=    -198.543404 meV Im[Sigma]=      41.926864 meV     Z=       0.980411 lam=       0.019981
     E(   2 )=   1.6686 eV   Re[Sigma]=      14.265706 meV Im[Sigma]=      50.413220 meV     Z=       0.985086 lam=       0.015140
     E(   3 )=  10.9199 eV   Re[Sigma]=      65.234051 meV Im[Sigma]=     532.939351 meV     Z=       1.241561 lam=      -0.194562
     E(   4 )=  10.9199 eV   Re[Sigma]=      65.234051 meV Im[Sigma]=     532.939351 meV     Z=       1.241561 lam=      -0.194562
     -------------------------------------------------------------------


     ik =      21 coord.:    0.4000000   0.0000000   0.0000000
     -------------------------------------------------------------------
     E(   1 )=  -3.5788 eV   Re[Sigma]=    -193.982599 meV Im[Sigma]=      39.010045 meV     Z=       0.981020 lam=       0.019347
     E(   2 )=   1.8378 eV   Re[Sigma]=      11.352451 meV Im[Sigma]=      48.020285 meV     Z=       0.984988 lam=       0.015241
     E(   3 )=  10.9515 eV   Re[Sigma]=      71.494694 meV Im[Sigma]=     531.389328 meV     Z=       1.238100 lam=      -0.192311
     E(   4 )=  10.9515 eV   Re[Sigma]=      71.494694 meV Im[Sigma]=     531.389328 meV     Z=       1.238100 lam=      -0.192311
     -------------------------------------------------------------------


     ik =      22 coord.:    0.3950000   0.0000000   0.0000000
     -------------------------------------------------------------------
     E(   1 )=  -3.6737 eV   Re[Sigma]=    -189.693142 meV Im[Sigma]=      37.050554 meV     Z=       0.981808 lam=       0.018529
     E(   2 )=   2.0103 eV   Re[Sigma]=       8.615278 meV Im[Sigma]=      46.182536 meV     Z=       0.985115 lam=       0.015110
     E(   3 )=  10.9845 eV   Re[Sigma]=      77.673057 meV Im[Sigma]=     530.011101 meV     Z=       1.235365 lam=      -0.190523
     E(   4 )=  10.9845 eV   Re[Sigma]=      77.673057 meV Im[Sigma]=     530.011101 meV     Z=       1.235365 lam=      -0.190523
     -------------------------------------------------------------------


     ik =      23 coord.:    0.3900000   0.0000000   0.0000000
     -------------------------------------------------------------------
     E(   1 )=  -3.7685 eV   Re[Sigma]=    -185.654308 meV Im[Sigma]=      35.770505 meV     Z=       0.982705 lam=       0.017599
     E(   2 )=   2.1858 eV   Re[Sigma]=       6.097929 meV Im[Sigma]=      44.894360 meV     Z=       0.985449 lam=       0.014765
     E(   3 )=  11.0188 eV   Re[Sigma]=      83.823323 meV Im[Sigma]=     528.934240 meV     Z=       1.233170 lam=      -0.189082
     E(   4 )=  11.0188 eV   Re[Sigma]=      83.823323 meV Im[Sigma]=     528.934240 meV     Z=       1.233170 lam=      -0.189082
     -------------------------------------------------------------------


     ik =      24 coord.:    0.3850000   0.0000000   0.0000000
     -------------------------------------------------------------------
     E(   1 )=  -3.8631 eV   Re[Sigma]=    -181.852599 meV Im[Sigma]=      34.977255 meV     Z=       0.983664 lam=       0.016608
     E(   2 )=   2.3644 eV   Re[Sigma]=       3.824071 meV Im[Sigma]=      43.990032 meV     Z=       0.985965 lam=       0.014234
     E(   3 )=  11.0543 eV   Re[Sigma]=      89.991534 meV Im[Sigma]=     528.245373 meV     Z=       1.231318 lam=      -0.187862
     E(   4 )=  11.0543 eV   Re[Sigma]=      89.991534 meV Im[Sigma]=     528.245373 meV     Z=       1.231318 lam=      -0.187862
     -------------------------------------------------------------------


     ik =      25 coord.:    0.3800000   0.0000000   0.0000000
     -------------------------------------------------------------------
     E(   1 )=  -3.9575 eV   Re[Sigma]=    -178.274425 meV Im[Sigma]=      34.538347 meV     Z=       0.984648 lam=       0.015591
     E(   2 )=   2.5459 eV   Re[Sigma]=       1.809647 meV Im[Sigma]=      43.216324 meV     Z=       0.986611 lam=       0.013571
     E(   3 )=  11.0911 eV   Re[Sigma]=      96.214703 meV Im[Sigma]=     527.983999 meV     Z=       1.229618 lam=      -0.186740
     E(   4 )=  11.0911 eV   Re[Sigma]=      96.214703 meV Im[Sigma]=     527.983999 meV     Z=       1.229618 lam=      -0.186740
     -------------------------------------------------------------------


     ik =      26 coord.:    0.3750000   0.0000000   0.0000000
     -------------------------------------------------------------------
     E(   1 )=  -4.0516 eV   Re[Sigma]=    -174.904910 meV Im[Sigma]=      34.361373 meV     Z=       0.985636 lam=       0.014573
     E(   2 )=   2.7301 eV   Re[Sigma]=       0.055544 meV Im[Sigma]=      42.277317 meV     Z=       0.987246 lam=       0.012919
     E(   3 )=  11.1291 eV   Re[Sigma]=     102.520452 meV Im[Sigma]=     528.142389 meV     Z=       1.227908 lam=      -0.185607
     E(   4 )=  11.1291 eV   Re[Sigma]=     102.520452 meV Im[Sigma]=     528.142389 meV     Z=       1.227908 lam=      -0.185607
     -------------------------------------------------------------------


     ik =      27 coord.:    0.3700000   0.0000000   0.0000000
     -------------------------------------------------------------------
     E(   1 )=  -4.1455 eV   Re[Sigma]=    -171.728731 meV Im[Sigma]=      34.380042 meV     Z=       0.986611 lam=       0.013570
     E(   2 )=   2.9170 eV   Re[Sigma]=      -1.484084 meV Im[Sigma]=      40.918850 meV     Z=       0.987552 lam=       0.012605
     E(   3 )=  11.1682 eV   Re[Sigma]=     108.927108 meV Im[Sigma]=     528.669530 meV     Z=       1.226054 lam=      -0.184376
     E(   4 )=  11.1682 eV   Re[Sigma]=     108.927108 meV Im[Sigma]=     528.669530 meV     Z=       1.226054 lam=      -0.184376
     -------------------------------------------------------------------


     ik =      28 coord.:    0.3650000   0.0000000   0.0000000
     -------------------------------------------------------------------
     E(   1 )=  -4.2390 eV   Re[Sigma]=    -168.730866 meV Im[Sigma]=      34.545418 meV     Z=       0.987565 lam=       0.012592
     E(   2 )=   3.1065 eV   Re[Sigma]=      -2.948979 meV Im[Sigma]=      39.049860 meV     Z=       0.987055 lam=       0.013114
     E(   3 )=  11.2084 eV   Re[Sigma]=     115.444078 meV Im[Sigma]=     529.478792 meV     Z=       1.223957 lam=      -0.182978
     E(   4 )=  11.2084 eV   Re[Sigma]=     115.444078 meV Im[Sigma]=     529.478792 meV     Z=       1.223957 lam=      -0.182978
     -------------------------------------------------------------------


     ik =      29 coord.:    0.3600000   0.0000000   0.0000000
     -------------------------------------------------------------------
     E(   1 )=  -4.3322 eV   Re[Sigma]=    -165.897068 meV Im[Sigma]=      34.820631 meV     Z=       0.988490 lam=       0.011644
     E(   2 )=   3.2984 eV   Re[Sigma]=      -4.575448 meV Im[Sigma]=      36.841892 meV     Z=       0.985543 lam=       0.014669
     E(   3 )=  11.2497 eV   Re[Sigma]=     122.072229 meV Im[Sigma]=     530.458730 meV     Z=       1.221549 lam=      -0.181368
     E(   4 )=  11.2497 eV   Re[Sigma]=     122.072229 meV Im[Sigma]=     530.458730 meV     Z=       1.221549 lam=      -0.181368
     -------------------------------------------------------------------


     ik =      30 coord.:    0.3550000   0.0000000   0.0000000
     -------------------------------------------------------------------
     E(   1 )=  -4.4250 eV   Re[Sigma]=    -163.214127 meV Im[Sigma]=      35.177653 meV     Z=       0.989385 lam=       0.010729
     E(   2 )=   3.4925 eV   Re[Sigma]=      -6.569469 meV Im[Sigma]=      34.727170 meV     Z=       0.983591 lam=       0.016683
     E(   3 )=  11.2920 eV   Re[Sigma]=     128.804080 meV Im[Sigma]=     531.486025 meV     Z=       1.218789 lam=      -0.179513
     E(   4 )=  11.2920 eV   Re[Sigma]=     128.804080 meV Im[Sigma]=     531.486025 meV     Z=       1.218789 lam=      -0.179513
     -------------------------------------------------------------------


     ik =      31 coord.:    0.3500000   0.0000000   0.0000000
     -------------------------------------------------------------------
     E(   1 )=  -4.5173 eV   Re[Sigma]=    -160.670002 meV Im[Sigma]=      35.595214 meV     Z=       0.990247 lam=       0.009849
     E(   2 )=   3.6889 eV   Re[Sigma]=      -8.929174 meV Im[Sigma]=      33.255553 meV     Z=       0.982251 lam=       0.018070
     E(   3 )=  11.3352 eV   Re[Sigma]=     135.624061 meV Im[Sigma]=     532.438914 meV     Z=       1.215662 lam=      -0.177403
     E(   4 )=  11.3352 eV   Re[Sigma]=     135.624061 meV Im[Sigma]=     532.438914 meV     Z=       1.215662 lam=      -0.177403
     -------------------------------------------------------------------


     ik =      32 coord.:    0.3450000   0.0000000   0.0000000
     -------------------------------------------------------------------
     E(   1 )=  -4.6092 eV   Re[Sigma]=    -158.253869 meV Im[Sigma]=      36.057327 meV     Z=       0.991079 lam=       0.009002
     E(   2 )=   3.8873 eV   Re[Sigma]=     -11.425028 meV Im[Sigma]=      32.861630 meV     Z=       0.982190 lam=       0.018133
     E(   3 )=  11.3793 eV   Re[Sigma]=     142.510070 meV Im[Sigma]=     533.208711 meV     Z=       1.212192 lam=      -0.175048
     E(   4 )=  11.3793 eV   Re[Sigma]=     142.510070 meV Im[Sigma]=     533.208711 meV     Z=       1.212192 lam=      -0.175048
     -------------------------------------------------------------------


     ik =      33 coord.:    0.3400000   0.0000000   0.0000000
     -------------------------------------------------------------------
     E(   1 )=  -4.7005 eV   Re[Sigma]=    -155.956108 meV Im[Sigma]=      36.552111 meV     Z=       0.991881 lam=       0.008186
     E(   2 )=   4.0875 eV   Re[Sigma]=     -13.738301 meV Im[Sigma]=      33.669617 meV     Z=       0.983383 lam=       0.016898
     E(   3 )=  11.4243 eV   Re[Sigma]=     149.438328 meV Im[Sigma]=     533.706669 meV     Z=       1.208463 lam=      -0.172503
     E(   4 )=  11.4243 eV   Re[Sigma]=     149.438328 meV Im[Sigma]=     533.706669 meV     Z=       1.208463 lam=      -0.172503
     -------------------------------------------------------------------


     ik =      34 coord.:    0.3350000   0.0000000   0.0000000
     -------------------------------------------------------------------
     E(   1 )=  -4.7914 eV   Re[Sigma]=    -153.768230 meV Im[Sigma]=      37.070781 meV     Z=       0.992656 lam=       0.007399
     E(   2 )=   4.2895 eV   Re[Sigma]=     -15.627512 meV Im[Sigma]=      35.453337 meV     Z=       0.985197 lam=       0.015025
     E(   3 )=  11.4701 eV   Re[Sigma]=     156.391426 meV Im[Sigma]=     533.864161 meV     Z=       1.204615 lam=      -0.169860
     E(   4 )=  11.4701 eV   Re[Sigma]=     156.391426 meV Im[Sigma]=     533.864161 meV     Z=       1.204615 lam=      -0.169860
     -------------------------------------------------------------------


     ik =      35 coord.:    0.3300000   0.0000000   0.0000000
     -------------------------------------------------------------------
     E(   1 )=  -4.8816 eV   Re[Sigma]=    -151.682238 meV Im[Sigma]=      37.606663 meV     Z=       0.993407 lam=       0.006636
     E(   2 )=   4.4931 eV   Re[Sigma]=     -17.038291 meV Im[Sigma]=      37.768268 meV     Z=       0.986802 lam=       0.013375
     E(   3 )=  11.5167 eV   Re[Sigma]=     163.364088 meV Im[Sigma]=     533.626212 meV     Z=       1.200795 lam=      -0.167218
     E(   4 )=  11.5167 eV   Re[Sigma]=     163.364088 meV Im[Sigma]=     533.626212 meV     Z=       1.200795 lam=      -0.167218
     -------------------------------------------------------------------


     ik =      36 coord.:    0.3250000   0.0000000   0.0000000
     -------------------------------------------------------------------
     E(   1 )=  -4.9711 eV   Re[Sigma]=    -149.681308 meV Im[Sigma]=      38.154164 meV     Z=       0.994142 lam=       0.005892
     E(   2 )=   4.6981 eV   Re[Sigma]=     -18.059609 meV Im[Sigma]=      40.162287 meV     Z=       0.987798 lam=       0.012353
     E(   3 )=  11.5640 eV   Re[Sigma]=     170.363288 meV Im[Sigma]=     532.941025 meV     Z=       1.197092 lam=      -0.164642
     E(   4 )=  11.5640 eV   Re[Sigma]=     170.363288 meV Im[Sigma]=     532.941025 meV     Z=       1.197092 lam=      -0.164642
     -------------------------------------------------------------------


     ik =      37 coord.:    0.3200000   0.0000000   0.0000000
     -------------------------------------------------------------------
     E(   1 )=  -5.0600 eV   Re[Sigma]=    -147.729316 meV Im[Sigma]=      38.707606 meV     Z=       0.994875 lam=       0.005152
     E(   2 )=   4.9045 eV   Re[Sigma]=     -18.782837 meV Im[Sigma]=      42.339160 meV     Z=       0.988291 lam=       0.011848
     E(   3 )=  11.6119 eV   Re[Sigma]=     177.404793 meV Im[Sigma]=     531.749934 meV     Z=       1.193538 lam=      -0.162155
     E(   4 )=  11.6119 eV   Re[Sigma]=     177.404793 meV Im[Sigma]=     531.749934 meV     Z=       1.193538 lam=      -0.162155
     -------------------------------------------------------------------


     ik =      38 coord.:    0.3150000   0.0000000   0.0000000
     -------------------------------------------------------------------
     E(   1 )=  -5.1482 eV   Re[Sigma]=    -145.884220 meV Im[Sigma]=      39.259869 meV     Z=       0.995585 lam=       0.004434
     E(   2 )=   5.1119 eV   Re[Sigma]=     -19.362108 meV Im[Sigma]=      44.206473 meV     Z=       0.988551 lam=       0.011581
     E(   3 )=  11.6604 eV   Re[Sigma]=     184.475323 meV Im[Sigma]=     529.981719 meV     Z=       1.190139 lam=      -0.159762
     E(   4 )=  11.6604 eV   Re[Sigma]=     184.475323 meV Im[Sigma]=     529.981719 meV     Z=       1.190139 lam=      -0.159762
     -------------------------------------------------------------------


     ik =      39 coord.:    0.3100000   0.0000000   0.0000000
     -------------------------------------------------------------------
     E(   1 )=  -5.2355 eV   Re[Sigma]=    -144.142888 meV Im[Sigma]=      39.800821 meV     Z=       0.996276 lam=       0.003738
     E(   2 )=   5.3204 eV   Re[Sigma]=     -19.825591 meV Im[Sigma]=      45.824776 meV     Z=       0.988735 lam=       0.011393
     E(   3 )=  11.7095 eV   Re[Sigma]=     191.572259 meV Im[Sigma]=     527.552718 meV     Z=       1.186884 lam=      -0.157458
     E(   4 )=  11.7095 eV   Re[Sigma]=     191.572259 meV Im[Sigma]=     527.552718 meV     Z=       1.186884 lam=      -0.157458
     -------------------------------------------------------------------


     ik =      40 coord.:    0.3050000   0.0000000   0.0000000
     -------------------------------------------------------------------
     E(   1 )=  -5.3221 eV   Re[Sigma]=    -142.486645 meV Im[Sigma]=      40.315643 meV     Z=       0.996953 lam=       0.003056
     E(   2 )=   5.5296 eV   Re[Sigma]=     -20.158176 meV Im[Sigma]=      47.320494 meV     Z=       0.988908 lam=       0.011216
     E(   3 )=  11.7590 eV   Re[Sigma]=     198.693526 meV Im[Sigma]=     524.371301 meV     Z=       1.183747 lam=      -0.155225
     E(   4 )=  11.7590 eV   Re[Sigma]=     198.693526 meV Im[Sigma]=     524.371301 meV     Z=       1.183747 lam=      -0.155225
     -------------------------------------------------------------------


     ik =      41 coord.:    0.3000000   0.0000000   0.0000000
     -------------------------------------------------------------------
     E(   1 )=  -5.4077 eV   Re[Sigma]=    -140.907633 meV Im[Sigma]=      40.783241 meV     Z=       0.997617 lam=       0.002388
     E(   2 )=   5.7395 eV   Re[Sigma]=     -20.347536 meV Im[Sigma]=      48.816610 meV     Z=       0.989096 lam=       0.011024
     E(   3 )=  11.8090 eV   Re[Sigma]=     205.829292 meV Im[Sigma]=     520.344030 meV     Z=       1.180682 lam=      -0.153032
     E(   4 )=  11.8090 eV   Re[Sigma]=     205.829292 meV Im[Sigma]=     520.344030 meV     Z=       1.180682 lam=      -0.153032
     -------------------------------------------------------------------


     ik =      42 coord.:    0.2950000   0.0000000   0.0000000
     -------------------------------------------------------------------
     E(   1 )=  -5.4925 eV   Re[Sigma]=    -139.400288 meV Im[Sigma]=      41.175156 meV     Z=       0.998265 lam=       0.001738
     E(   2 )=   5.9499 eV   Re[Sigma]=     -20.379905 meV Im[Sigma]=      50.401099 meV     Z=       0.989312 lam=       0.010804
     E(   3 )=  11.8594 eV   Re[Sigma]=     212.963129 meV Im[Sigma]=     515.381600 meV     Z=       1.177617 lam=      -0.150828
     E(   4 )=  11.8594 eV   Re[Sigma]=     212.963129 meV Im[Sigma]=     515.381600 meV     Z=       1.177617 lam=      -0.150828
     -------------------------------------------------------------------


     ik =      43 coord.:    0.2900000   0.0000000   0.0000000
     -------------------------------------------------------------------
     E(   1 )=  -5.5762 eV   Re[Sigma]=    -137.959335 meV Im[Sigma]=      41.455475 meV     Z=       0.998889 lam=       0.001112
     E(   2 )=   6.1606 eV   Re[Sigma]=     -20.239706 meV Im[Sigma]=      52.126029 meV     Z=       0.989562 lam=       0.010548
     E(   3 )=  11.9102 eV   Re[Sigma]=     220.070695 meV Im[Sigma]=     509.404438 meV     Z=       1.174448 lam=      -0.148536
     E(   4 )=  11.9102 eV   Re[Sigma]=     220.070695 meV Im[Sigma]=     509.404438 meV     Z=       1.174448 lam=      -0.148536
     -------------------------------------------------------------------


     ik =      44 coord.:    0.2850000   0.0000000   0.0000000
     -------------------------------------------------------------------
     E(   1 )=  -5.6589 eV   Re[Sigma]=    -136.578008 meV Im[Sigma]=      41.582324 meV     Z=       0.999474 lam=       0.000526
     E(   2 )=   6.3714 eV   Re[Sigma]=     -19.908392 meV Im[Sigma]=      54.021259 meV     Z=       0.989858 lam=       0.010246
     E(   3 )=  11.9612 eV   Re[Sigma]=     227.117698 meV Im[Sigma]=     502.348924 meV     Z=       1.171033 lam=      -0.146053
     E(   4 )=  11.9612 eV   Re[Sigma]=     227.117698 meV Im[Sigma]=     502.348924 meV     Z=       1.171033 lam=      -0.146053
     -------------------------------------------------------------------


     ik =      45 coord.:    0.2800000   0.0000000   0.0000000
     -------------------------------------------------------------------
     E(   1 )=  -5.7406 eV   Re[Sigma]=    -135.247218 meV Im[Sigma]=      41.511359 meV     Z=       0.999999 lam=       0.000001
     E(   2 )=   6.5822 eV   Re[Sigma]=     -19.363876 meV Im[Sigma]=      56.109162 meV     Z=       0.990211 lam=       0.009885
     E(   3 )=  12.0124 eV   Re[Sigma]=     234.057086 meV Im[Sigma]=     494.175102 meV     Z=       1.167191 lam=      -0.143242
     E(   4 )=  12.0124 eV   Re[Sigma]=     234.057086 meV Im[Sigma]=     494.175102 meV     Z=       1.167191 lam=      -0.143242
     -------------------------------------------------------------------


     ik =      46 coord.:    0.2750000   0.0000000   0.0000000
     -------------------------------------------------------------------
     E(   1 )=  -5.8211 eV   Re[Sigma]=    -133.954544 meV Im[Sigma]=      41.201312 meV     Z=       1.000432 lam=      -0.000431
     E(   2 )=   6.7928 eV   Re[Sigma]=     -18.580156 meV Im[Sigma]=      58.409358 meV     Z=       0.990636 lam=       0.009452
     E(   3 )=  12.0639 eV   Re[Sigma]=     240.826366 meV Im[Sigma]=     484.875789 meV     Z=       1.162715 lam=      -0.139944
     E(   4 )=  12.0639 eV   Re[Sigma]=     240.826366 meV Im[Sigma]=     484.875789 meV     Z=       1.162715 lam=      -0.139944
     -------------------------------------------------------------------


     ik =      47 coord.:    0.2700000   0.0000000   0.0000000
     -------------------------------------------------------------------
     E(   1 )=  -5.9005 eV   Re[Sigma]=    -132.682111 meV Im[Sigma]=      40.621080 meV     Z=       1.000727 lam=      -0.000727
     E(   2 )=   7.0031 eV   Re[Sigma]=     -17.529134 meV Im[Sigma]=      60.915573 meV     Z=       0.991139 lam=       0.008940
     E(   3 )=  12.1154 eV   Re[Sigma]=     247.345803 meV Im[Sigma]=     474.485959 meV     Z=       1.157387 lam=      -0.135985
     E(   4 )=  12.1154 eV   Re[Sigma]=     247.345803 meV Im[Sigma]=     474.485959 meV     Z=       1.157387 lam=      -0.135985
     -------------------------------------------------------------------


     ik =      48 coord.:    0.2650000   0.0000000   0.0000000
     -------------------------------------------------------------------
     E(   1 )=  -5.9786 eV   Re[Sigma]=    -131.404812 meV Im[Sigma]=      39.757171 meV     Z=       1.000833 lam=      -0.000832
     E(   2 )=   7.2127 eV   Re[Sigma]=     -16.189814 meV Im[Sigma]=      63.512782 meV     Z=       0.991691 lam=       0.008379
     E(   3 )=  12.1670 eV   Re[Sigma]=     253.518641 meV Im[Sigma]=     463.090690 meV     Z=       1.151015 lam=      -0.131201
     E(   4 )=  12.1670 eV   Re[Sigma]=     253.518641 meV Im[Sigma]=     463.090690 meV     Z=       1.151015 lam=      -0.131201
     -------------------------------------------------------------------


     ik =      49 coord.:    0.2600000   0.0000000   0.0000000
     -------------------------------------------------------------------
     E(   1 )=  -6.0555 eV   Re[Sigma]=    -130.092336 meV Im[Sigma]=      38.619876 meV     Z=       1.000696 lam=      -0.000696
     E(   2 )=   7.4217 eV   Re[Sigma]=     -14.577510 meV Im[Sigma]=      65.844203 meV     Z=       0.992179 lam=       0.007883
     E(   3 )=  12.2187 eV   Re[Sigma]=     259.233616 meV Im[Sigma]=     450.829896 meV     Z=       1.143487 lam=      -0.125482
     E(   4 )=  12.2187 eV   Re[Sigma]=     259.233616 meV Im[Sigma]=     450.829896 meV     Z=       1.143487 lam=      -0.125482
     -------------------------------------------------------------------


     ik =      50 coord.:    0.2550000   0.0000000   0.0000000
     -------------------------------------------------------------------
     E(   1 )=  -6.1311 eV   Re[Sigma]=    -128.705528 meV Im[Sigma]=      37.246380 meV     Z=       1.000287 lam=      -0.000287
     E(   2 )=   7.6298 eV   Re[Sigma]=     -12.797234 meV Im[Sigma]=      67.321922 meV     Z=       0.992371 lam=       0.007688
     E(   3 )=  12.2703 eV   Re[Sigma]=     264.374457 meV Im[Sigma]=     437.898379 meV     Z=       1.134831 lam=      -0.118811
     E(   4 )=  12.2703 eV   Re[Sigma]=     264.374457 meV Im[Sigma]=     437.898379 meV     Z=       1.134831 lam=      -0.118811
     -------------------------------------------------------------------


     ik =      51 coord.:    0.2500000   0.0000000   0.0000000
     -------------------------------------------------------------------
     E(   1 )=  -6.2054 eV   Re[Sigma]=    -127.208126 meV Im[Sigma]=      35.699514 meV     Z=       0.999624 lam=       0.000376
     E(   2 )=   7.8368 eV   Re[Sigma]=     -11.107571 meV Im[Sigma]=      67.543564 meV     Z=       0.992041 lam=       0.008022
     E(   3 )=  12.3218 eV   Re[Sigma]=     268.831058 meV Im[Sigma]=     424.540390 meV     Z=       1.125264 lam=      -0.111319
     E(   4 )=  12.3218 eV   Re[Sigma]=     268.831058 meV Im[Sigma]=     424.540390 meV     Z=       1.125264 lam=      -0.111319
     -------------------------------------------------------------------


     ik =      52 coord.:    0.2450000   0.0000000   0.0000000
     -------------------------------------------------------------------
     E(   1 )=  -6.2783 eV   Re[Sigma]=    -125.571121 meV Im[Sigma]=      34.061796 meV     Z=       0.998795 lam=       0.001206
     E(   2 )=   8.0426 eV   Re[Sigma]=      -9.829356 meV Im[Sigma]=      66.811223 meV     Z=       0.991448 lam=       0.008626
     E(   3 )=  12.3732 eV   Re[Sigma]=     272.517038 meV Im[Sigma]=     411.038690 meV     Z=       1.115194 lam=      -0.103295
     E(   4 )=  12.3732 eV   Re[Sigma]=     272.517038 meV Im[Sigma]=     411.038690 meV     Z=       1.115194 lam=      -0.103295
     -------------------------------------------------------------------


     ik =      53 coord.:    0.2400000   0.0000000   0.0000000
     -------------------------------------------------------------------
     E(   1 )=  -6.3498 eV   Re[Sigma]=    -123.781597 meV Im[Sigma]=      32.425607 meV     Z=       0.997941 lam=       0.002063
     E(   2 )=   8.2470 eV   Re[Sigma]=      -8.977484 meV Im[Sigma]=      65.941627 meV     Z=       0.991075 lam=       0.009006
     E(   3 )=  12.4244 eV   Re[Sigma]=     275.385795 meV Im[Sigma]=     397.698990 meV     Z=       1.105169 lam=      -0.095161
     E(   4 )=  12.4244 eV   Re[Sigma]=     275.385795 meV Im[Sigma]=     397.698990 meV     Z=       1.105169 lam=      -0.095161
     -------------------------------------------------------------------


     ik =      54 coord.:    0.2350000   0.0000000   0.0000000
     -------------------------------------------------------------------
     E(   1 )=  -6.4198 eV   Re[Sigma]=    -121.852211 meV Im[Sigma]=      30.881434 meV     Z=       0.997208 lam=       0.002800
     E(   2 )=   8.4498 eV   Re[Sigma]=      -8.400218 meV Im[Sigma]=      65.482215 meV     Z=       0.990181 lam=       0.009917
     E(   3 )=  12.4753 eV   Re[Sigma]=     277.439092 meV Im[Sigma]=     384.831377 meV     Z=       1.095766 lam=      -0.087396
     E(   4 )=  12.4753 eV   Re[Sigma]=     277.439092 meV Im[Sigma]=     384.831377 meV     Z=       1.095766 lam=      -0.087396
     -------------------------------------------------------------------


     ik =      55 coord.:    0.2300000   0.0000000   0.0000000
     -------------------------------------------------------------------
     E(   1 )=  -6.4884 eV   Re[Sigma]=    -119.811514 meV Im[Sigma]=      29.506660 meV     Z=       0.996691 lam=       0.003320
     E(   2 )=   8.6509 eV   Re[Sigma]=      -8.164903 meV Im[Sigma]=      65.455450 meV     Z=       0.988502 lam=       0.011632
     E(   3 )=  12.5260 eV   Re[Sigma]=     278.729085 meV Im[Sigma]=     372.730890 meV     Z=       1.087477 lam=      -0.080440
     E(   4 )=  12.5260 eV   Re[Sigma]=     278.729085 meV Im[Sigma]=     372.730890 meV     Z=       1.087477 lam=      -0.080440
     -------------------------------------------------------------------


     ik =      56 coord.:    0.2250000   0.0000000   0.0000000
     -------------------------------------------------------------------
     E(   1 )=  -6.5554 eV   Re[Sigma]=    -117.695616 meV Im[Sigma]=      28.357167 meV     Z=       0.996419 lam=       0.003594
     E(   2 )=   8.8501 eV   Re[Sigma]=      -8.335426 meV Im[Sigma]=      65.842483 meV     Z=       0.986821 lam=       0.013355
     E(   3 )=  12.5763 eV   Re[Sigma]=     279.348697 meV Im[Sigma]=     361.659500 meV     Z=       1.080624 lam=      -0.074609
     E(   4 )=  12.5763 eV   Re[Sigma]=     279.348697 meV Im[Sigma]=     361.659500 meV     Z=       1.080624 lam=      -0.074609
     -------------------------------------------------------------------


     ik =      57 coord.:    0.2200000   0.0000000   0.0000000
     -------------------------------------------------------------------
     E(   1 )=  -6.6209 eV   Re[Sigma]=    -115.543357 meV Im[Sigma]=      27.463244 meV     Z=       0.996366 lam=       0.003648
     E(   2 )=   9.0473 eV   Re[Sigma]=      -8.812575 meV Im[Sigma]=      66.943412 meV     Z=       0.985763 lam=       0.014443
     E(   3 )=  12.6263 eV   Re[Sigma]=     279.414684 meV Im[Sigma]=     351.831555 meV     Z=       1.075338 lam=      -0.070060
     E(   4 )=  12.6263 eV   Re[Sigma]=     279.414684 meV Im[Sigma]=     351.831555 meV     Z=       1.075338 lam=      -0.070060
     -------------------------------------------------------------------


     ik =      58 coord.:    0.2150000   0.0000000   0.0000000
     -------------------------------------------------------------------
     E(   1 )=  -6.6849 eV   Re[Sigma]=    -113.384954 meV Im[Sigma]=      26.830059 meV     Z=       0.996483 lam=       0.003530
     E(   2 )=   9.2422 eV   Re[Sigma]=      -9.423059 meV Im[Sigma]=      69.255655 meV     Z=       0.985422 lam=       0.014794
     E(   3 )=  12.6758 eV   Re[Sigma]=     279.052557 meV Im[Sigma]=     343.404143 meV     Z=       1.071588 lam=      -0.066806
     E(   4 )=  12.6758 eV   Re[Sigma]=     279.052557 meV Im[Sigma]=     343.404143 meV     Z=       1.071588 lam=      -0.066806
     -------------------------------------------------------------------


     ik =      59 coord.:    0.2100000   0.0000000   0.0000000
     -------------------------------------------------------------------
     E(   1 )=  -6.7473 eV   Re[Sigma]=    -111.241316 meV Im[Sigma]=      26.441902 meV     Z=       0.996720 lam=       0.003291
     E(   2 )=   9.4348 eV   Re[Sigma]=     -10.013640 meV Im[Sigma]=      73.228158 meV     Z=       0.985706 lam=       0.014501
     E(   3 )=  12.7249 eV   Re[Sigma]=     278.382916 meV Im[Sigma]=     336.473098 meV     Z=       1.069235 lam=      -0.064752
     E(   4 )=  12.7249 eV   Re[Sigma]=     278.382916 meV Im[Sigma]=     336.473098 meV     Z=       1.069235 lam=      -0.064752
     -------------------------------------------------------------------


     ik =      60 coord.:    0.2050000   0.0000000   0.0000000
     -------------------------------------------------------------------
     E(   1 )=  -6.8081 eV   Re[Sigma]=    -109.129672 meV Im[Sigma]=      26.268650 meV     Z=       0.997034 lam=       0.002974
     E(   2 )=   9.6249 eV   Re[Sigma]=     -10.462120 meV Im[Sigma]=      79.159382 meV     Z=       0.986608 lam=       0.013574
     E(   3 )=  12.7734 eV   Re[Sigma]=     277.511507 meV Im[Sigma]=     331.074515 meV     Z=       1.068087 lam=      -0.063747
     E(   4 )=  12.7734 eV   Re[Sigma]=     277.511507 meV Im[Sigma]=     331.074515 meV     Z=       1.068087 lam=      -0.063747
     -------------------------------------------------------------------


     ik =      61 coord.:    0.2000000   0.0000000   0.0000000
     -------------------------------------------------------------------
     E(   1 )=  -6.8672 eV   Re[Sigma]=    -107.059741 meV Im[Sigma]=      26.272777 meV     Z=       0.997395 lam=       0.002611
     E(   2 )=   9.8124 eV   Re[Sigma]=     -10.644897 meV Im[Sigma]=      87.198828 meV     Z=       0.988286 lam=       0.011852
     E(   3 )=  12.8214 eV   Re[Sigma]=     276.526892 meV Im[Sigma]=     327.191004 meV     Z=       1.067943 lam=      -0.063621
     E(   4 )=  12.8214 eV   Re[Sigma]=     276.526892 meV Im[Sigma]=     327.191004 meV     Z=       1.067943 lam=      -0.063621
     -------------------------------------------------------------------


     ik =      62 coord.:    0.1950000   0.0000000   0.0000000
     -------------------------------------------------------------------
     E(   1 )=  -6.9248 eV   Re[Sigma]=    -105.035439 meV Im[Sigma]=      26.415501 meV     Z=       0.997782 lam=       0.002223
     E(   2 )=   9.9970 eV   Re[Sigma]=     -10.404292 meV Im[Sigma]=      97.345303 meV     Z=       0.991051 lam=       0.009030
     E(   3 )=  12.8687 eV   Re[Sigma]=     275.500118 meV Im[Sigma]=     324.761408 meV     Z=       1.068617 lam=      -0.064211
     E(   4 )=  12.8687 eV   Re[Sigma]=     275.500118 meV Im[Sigma]=     324.761408 meV     Z=       1.068617 lam=      -0.064211
     -------------------------------------------------------------------


     ik =      63 coord.:    0.1900000   0.0000000   0.0000000
     -------------------------------------------------------------------
     E(   1 )=  -6.9806 eV   Re[Sigma]=    -103.061658 meV Im[Sigma]=      26.661257 meV     Z=       0.998179 lam=       0.001824
     E(   2 )=  10.1787 eV   Re[Sigma]=      -9.531071 meV Im[Sigma]=     109.414263 meV     Z=       0.995283 lam=       0.004739
     E(   3 )=  12.9154 eV   Re[Sigma]=     274.484749 meV Im[Sigma]=     323.692502 meV     Z=       1.069948 lam=      -0.065376
     E(   4 )=  12.9154 eV   Re[Sigma]=     274.484749 meV Im[Sigma]=     323.692502 meV     Z=       1.069948 lam=      -0.065376
     -------------------------------------------------------------------


     ik =      64 coord.:    0.1850000   0.0000000   0.0000000
     -------------------------------------------------------------------
     E(   1 )=  -7.0349 eV   Re[Sigma]=    -101.140140 meV Im[Sigma]=      26.980267 meV     Z=       0.998579 lam=       0.001423
     E(   2 )=  10.3573 eV   Re[Sigma]=      -7.772878 meV Im[Sigma]=     123.011990 meV     Z=       1.001232 lam=      -0.001231
     E(   3 )=  12.9614 eV   Re[Sigma]=     273.520712 meV Im[Sigma]=     323.871257 meV     Z=       1.071807 lam=      -0.066996
     E(   4 )=  12.9614 eV   Re[Sigma]=     273.520712 meV Im[Sigma]=     323.871257 meV     Z=       1.071807 lam=      -0.066996
     -------------------------------------------------------------------


     ik =      65 coord.:    0.1800000   0.0000000   0.0000000
     -------------------------------------------------------------------
     E(   1 )=  -7.0875 eV   Re[Sigma]=     -99.269219 meV Im[Sigma]=      27.349450 meV     Z=       0.998976 lam=       0.001025
     E(   2 )=  10.5327 eV   Re[Sigma]=      -4.893285 meV Im[Sigma]=     137.562134 meV     Z=       1.008693 lam=      -0.008618
     E(   3 )=  13.0067 eV   Re[Sigma]=     272.637256 meV Im[Sigma]=     325.176436 meV     Z=       1.074091 lam=      -0.068980
     E(   4 )=  13.0067 eV   Re[Sigma]=     272.637256 meV Im[Sigma]=     325.176436 meV     Z=       1.074091 lam=      -0.068980
     -------------------------------------------------------------------


     ik =      66 coord.:    0.1750000   0.0000000   0.0000000
     -------------------------------------------------------------------
     E(   1 )=  -7.1384 eV   Re[Sigma]=     -97.450294 meV Im[Sigma]=      27.752145 meV     Z=       0.999367 lam=       0.000634
     E(   2 )=  10.7047 eV   Re[Sigma]=      -0.777039 meV Im[Sigma]=     152.400056 meV     Z=       1.016796 lam=      -0.016518
     E(   3 )=  13.0512 eV   Re[Sigma]=     271.853619 meV Im[Sigma]=     327.488578 meV     Z=       1.076724 lam=      -0.071256
     E(   4 )=  13.0512 eV   Re[Sigma]=     271.853619 meV Im[Sigma]=     327.488578 meV     Z=       1.076724 lam=      -0.071256
     -------------------------------------------------------------------


     ik =      67 coord.:    0.1700000   0.0000000   0.0000000
     -------------------------------------------------------------------
     E(   1 )=  -7.1876 eV   Re[Sigma]=     -95.683242 meV Im[Sigma]=      28.177155 meV     Z=       0.999750 lam=       0.000250
     E(   2 )=  10.8733 eV   Re[Sigma]=       4.487346 meV Im[Sigma]=     166.912571 meV     Z=       1.024292 lam=      -0.023716
     E(   3 )=  13.0949 eV   Re[Sigma]=     271.182356 meV Im[Sigma]=     330.697758 meV     Z=       1.079648 lam=      -0.073772
     E(   4 )=  13.0949 eV   Re[Sigma]=     271.182356 meV Im[Sigma]=     330.697758 meV     Z=       1.079648 lam=      -0.073772
     -------------------------------------------------------------------


     ik =      68 coord.:    0.1650000   0.0000000   0.0000000
     -------------------------------------------------------------------
     E(   1 )=  -7.2352 eV   Re[Sigma]=     -93.965085 meV Im[Sigma]=      28.617563 meV     Z=       1.000126 lam=      -0.000126
     E(   2 )=  11.0383 eV   Re[Sigma]=      10.622601 meV Im[Sigma]=     180.675799 meV     Z=       1.030240 lam=      -0.029353
     E(   3 )=  13.1377 eV   Re[Sigma]=     270.631473 meV Im[Sigma]=     334.708768 meV     Z=       1.082824 lam=      -0.076489
     E(   4 )=  13.1377 eV   Re[Sigma]=     270.631473 meV Im[Sigma]=     334.708768 meV     Z=       1.082824 lam=      -0.076489
     -------------------------------------------------------------------


     ik =      69 coord.:    0.1600000   0.0000000   0.0000000
     -------------------------------------------------------------------
     E(   1 )=  -7.2811 eV   Re[Sigma]=     -92.296649 meV Im[Sigma]=      29.069574 meV     Z=       1.000495 lam=      -0.000495
     E(   2 )=  11.1995 eV   Re[Sigma]=      17.268439 meV Im[Sigma]=     193.541300 meV     Z=       1.034439 lam=      -0.033292
     E(   3 )=  13.1796 eV   Re[Sigma]=     270.203778 meV Im[Sigma]=     339.443629 meV     Z=       1.086226 lam=      -0.079381
     E(   4 )=  13.1796 eV   Re[Sigma]=     270.203778 meV Im[Sigma]=     339.443629 meV     Z=       1.086226 lam=      -0.079381
     -------------------------------------------------------------------


     ik =      70 coord.:    0.1550000   0.0000000   0.0000000
     -------------------------------------------------------------------
     E(   1 )=  -7.3253 eV   Re[Sigma]=     -90.677406 meV Im[Sigma]=      29.531562 meV     Z=       1.000857 lam=      -0.000856
     E(   2 )=  11.3569 eV   Re[Sigma]=      24.100152 meV Im[Sigma]=     205.640123 meV     Z=       1.037314 lam=      -0.035972
     E(   3 )=  13.2207 eV   Re[Sigma]=     269.899241 meV Im[Sigma]=     344.841599 meV     Z=       1.089836 lam=      -0.082431
     E(   4 )=  13.2207 eV   Re[Sigma]=     269.899241 meV Im[Sigma]=     344.841599 meV     Z=       1.089836 lam=      -0.082431
     -------------------------------------------------------------------


     ik =      71 coord.:    0.1500000   0.0000000   0.0000000
     -------------------------------------------------------------------
     E(   1 )=  -7.3679 eV   Re[Sigma]=     -89.104229 meV Im[Sigma]=      30.003332 meV     Z=       1.001215 lam=      -0.001213
     E(   2 )=  11.5104 eV   Re[Sigma]=      30.902423 meV Im[Sigma]=     217.306678 meV     Z=       1.039629 lam=      -0.038118
     E(   3 )=  13.2607 eV   Re[Sigma]=     269.716126 meV Im[Sigma]=     350.857071 meV     Z=       1.093647 lam=      -0.085628
     E(   4 )=  13.2607 eV   Re[Sigma]=     269.716126 meV Im[Sigma]=     350.857071 meV     Z=       1.093647 lam=      -0.085628
     -------------------------------------------------------------------


     ik =      72 coord.:    0.1450000   0.0000000   0.0000000
     -------------------------------------------------------------------
     E(   1 )=  -7.4089 eV   Re[Sigma]=     -87.578294 meV Im[Sigma]=      30.485608 meV     Z=       1.001569 lam=      -0.001566
     E(   2 )=  11.6598 eV   Re[Sigma]=      37.594920 meV Im[Sigma]=     228.954293 meV     Z=       1.042209 lam=      -0.040499
     E(   3 )=  13.2998 eV   Re[Sigma]=     269.649465 meV Im[Sigma]=     357.456002 meV     Z=       1.097660 lam=      -0.088971
     E(   4 )=  13.2998 eV   Re[Sigma]=     269.649465 meV Im[Sigma]=     357.456002 meV     Z=       1.097660 lam=      -0.088971
     -------------------------------------------------------------------


     ik =      73 coord.:    0.1400000   0.0000000   0.0000000
     -------------------------------------------------------------------
     E(   1 )=  -7.4482 eV   Re[Sigma]=     -86.098620 meV Im[Sigma]=      30.979683 meV     Z=       1.001920 lam=      -0.001916
     E(   2 )=  11.8051 eV   Re[Sigma]=      44.214490 meV Im[Sigma]=     240.948044 meV     Z=       1.045667 lam=      -0.043673
     E(   3 )=  13.3378 eV   Re[Sigma]=     269.693176 meV Im[Sigma]=     364.611690 meV     Z=       1.101879 lam=      -0.092460
     E(   4 )=  13.3378 eV   Re[Sigma]=     269.693176 meV Im[Sigma]=     364.611690 meV     Z=       1.101879 lam=      -0.092460
     -------------------------------------------------------------------


     ik =      74 coord.:    0.1350000   0.0000000   0.0000000
     -------------------------------------------------------------------
     E(   1 )=  -7.4859 eV   Re[Sigma]=     -84.662404 meV Im[Sigma]=      31.487191 meV     Z=       1.002271 lam=      -0.002266
     E(   2 )=  11.9461 eV   Re[Sigma]=      50.858497 meV Im[Sigma]=     253.513732 meV     Z=       1.050276 lam=      -0.047869
     E(   3 )=  13.3748 eV   Re[Sigma]=     269.840266 meV Im[Sigma]=     372.300749 meV     Z=       1.106317 lam=      -0.096100
     E(   4 )=  13.3748 eV   Re[Sigma]=     269.840266 meV Im[Sigma]=     372.300749 meV     Z=       1.106317 lam=      -0.096100
     -------------------------------------------------------------------


     ik =      75 coord.:    0.1300000   0.0000000   0.0000000
     -------------------------------------------------------------------
     E(   1 )=  -7.5220 eV   Re[Sigma]=     -83.271428 meV Im[Sigma]=      32.009962 meV     Z=       1.002623 lam=      -0.002617
     E(   2 )=  12.0827 eV   Re[Sigma]=      57.627057 meV Im[Sigma]=     266.701326 meV     Z=       1.056048 lam=      -0.053073
     E(   3 )=  13.4107 eV   Re[Sigma]=     270.081048 meV Im[Sigma]=     380.500050 meV     Z=       1.110990 lam=      -0.099902
     E(   4 )=  13.4107 eV   Re[Sigma]=     270.081048 meV Im[Sigma]=     380.500050 meV     Z=       1.110990 lam=      -0.099902
     -------------------------------------------------------------------


     ik =      76 coord.:    0.1250000   0.0000000   0.0000000
     -------------------------------------------------------------------
     E(   1 )=  -7.5565 eV   Re[Sigma]=     -81.923772 meV Im[Sigma]=      32.549921 meV     Z=       1.002978 lam=      -0.002970
     E(   2 )=  12.2150 eV   Re[Sigma]=      64.595892 meV Im[Sigma]=     280.399161 meV     Z=       1.062882 lam=      -0.059162
     E(   3 )=  13.4455 eV   Re[Sigma]=     270.405547 meV Im[Sigma]=     389.185088 meV     Z=       1.115917 lam=      -0.103876
     E(   4 )=  13.4455 eV   Re[Sigma]=     270.405547 meV Im[Sigma]=     389.185088 meV     Z=       1.115917 lam=      -0.103876
     -------------------------------------------------------------------


     ik =      77 coord.:    0.1200000   0.0000000   0.0000000
     -------------------------------------------------------------------
     E(   1 )=  -7.5894 eV   Re[Sigma]=     -80.617651 meV Im[Sigma]=      33.109018 meV     Z=       1.003338 lam=      -0.003327
     E(   2 )=  12.3427 eV   Re[Sigma]=      71.808214 meV Im[Sigma]=     294.381113 meV     Z=       1.070647 lam=      -0.065985
     E(   3 )=  13.4792 eV   Re[Sigma]=     270.802501 meV Im[Sigma]=     398.329919 meV     Z=       1.121125 lam=      -0.108039
     E(   4 )=  13.4792 eV   Re[Sigma]=     270.802501 meV Im[Sigma]=     398.329919 meV     Z=       1.121125 lam=      -0.108039
     -------------------------------------------------------------------


     ik =      78 coord.:    0.1150000   0.0000000   0.0000000
     -------------------------------------------------------------------
     E(   1 )=  -7.6208 eV   Re[Sigma]=     -79.354984 meV Im[Sigma]=      33.689182 meV     Z=       1.003704 lam=      -0.003690
     E(   2 )=  12.4658 eV   Re[Sigma]=      79.276408 meV Im[Sigma]=     308.365809 meV     Z=       1.079207 lam=      -0.073394
     E(   3 )=  13.5116 eV   Re[Sigma]=     271.258240 meV Im[Sigma]=     407.908383 meV     Z=       1.126641 lam=      -0.112406
     E(   4 )=  13.5116 eV   Re[Sigma]=     271.258240 meV Im[Sigma]=     407.908383 meV     Z=       1.126641 lam=      -0.112406
     -------------------------------------------------------------------


     ik =      79 coord.:    0.1100000   0.0000000   0.0000000
     -------------------------------------------------------------------
     E(   1 )=  -7.6507 eV   Re[Sigma]=     -78.132680 meV Im[Sigma]=      34.292275 meV     Z=       1.004077 lam=      -0.004061
     E(   2 )=  12.5842 eV   Re[Sigma]=      86.989305 meV Im[Sigma]=     322.071422 meV     Z=       1.088422 lam=      -0.081238
     E(   3 )=  13.5429 eV   Re[Sigma]=     271.759229 meV Im[Sigma]=     417.896106 meV     Z=       1.132496 lam=      -0.116995
     E(   4 )=  13.5429 eV   Re[Sigma]=     271.759229 meV Im[Sigma]=     417.896106 meV     Z=       1.132496 lam=      -0.116995
     -------------------------------------------------------------------


     ik =      80 coord.:    0.1050000   0.0000000   0.0000000
     -------------------------------------------------------------------
     E(   1 )=  -7.6790 eV   Re[Sigma]=     -76.950992 meV Im[Sigma]=      34.920062 meV     Z=       1.004460 lam=      -0.004441
     E(   2 )=  12.6978 eV   Re[Sigma]=      94.913749 meV Im[Sigma]=     335.256969 meV     Z=       1.098131 lam=      -0.089362
     E(   3 )=  13.5730 eV   Re[Sigma]=     272.289735 meV Im[Sigma]=     428.272603 meV     Z=       1.138722 lam=      -0.121822
     E(   4 )=  13.5730 eV   Re[Sigma]=     272.289735 meV Im[Sigma]=     428.272603 meV     Z=       1.138722 lam=      -0.121822
     -------------------------------------------------------------------


     ik =      81 coord.:    0.1000000   0.0000000   0.0000000
     -------------------------------------------------------------------
     E(   1 )=  -7.7058 eV   Re[Sigma]=     -75.810442 meV Im[Sigma]=      35.574184 meV     Z=       1.004854 lam=      -0.004830
     E(   2 )=  12.8066 eV   Re[Sigma]=     102.998623 meV Im[Sigma]=     347.747539 meV     Z=       1.108156 lam=      -0.097600
     E(   3 )=  13.6018 eV   Re[Sigma]=     272.832663 meV Im[Sigma]=     439.022910 meV     Z=       1.145352 lam=      -0.126906
     E(   4 )=  13.6018 eV   Re[Sigma]=     272.832663 meV Im[Sigma]=     439.022910 meV     Z=       1.145352 lam=      -0.126906
     -------------------------------------------------------------------


     ik =      82 coord.:    0.0950000   0.0000000   0.0000000
     -------------------------------------------------------------------
     E(   1 )=  -7.7311 eV   Re[Sigma]=     -74.707857 meV Im[Sigma]=      36.256136 meV     Z=       1.005260 lam=      -0.005232
     E(   2 )=  12.9105 eV   Re[Sigma]=     111.179086 meV Im[Sigma]=     359.444944 meV     Z=       1.118300 lam=      -0.105785
     E(   3 )=  13.6293 eV   Re[Sigma]=     273.370878 meV Im[Sigma]=     450.138319 meV     Z=       1.152417 lam=      -0.132259
     E(   4 )=  13.6293 eV   Re[Sigma]=     273.370878 meV Im[Sigma]=     450.138319 meV     Z=       1.152417 lam=      -0.132259
     -------------------------------------------------------------------


     ik =      83 coord.:    0.0900000   0.0000000   0.0000000
     -------------------------------------------------------------------
     E(   1 )=  -7.7550 eV   Re[Sigma]=     -73.645503 meV Im[Sigma]=      36.967252 meV     Z=       1.005679 lam=      -0.005646
     E(   2 )=  13.0095 eV   Re[Sigma]=     119.377186 meV Im[Sigma]=     370.327131 meV     Z=       1.128358 lam=      -0.113757
     E(   3 )=  13.6556 eV   Re[Sigma]=     273.884658 meV Im[Sigma]=     461.616093 meV     Z=       1.159948 lam=      -0.137892
     E(   4 )=  13.6556 eV   Re[Sigma]=     273.884658 meV Im[Sigma]=     461.616093 meV     Z=       1.159948 lam=      -0.137892
     -------------------------------------------------------------------


     ik =      84 coord.:    0.0850000   0.0000000   0.0000000
     -------------------------------------------------------------------
     E(   1 )=  -7.7774 eV   Re[Sigma]=     -72.620987 meV Im[Sigma]=      37.708693 meV     Z=       1.006112 lam=      -0.006075
     E(   2 )=  13.1034 eV   Re[Sigma]=     127.508547 meV Im[Sigma]=     380.440020 meV     Z=       1.138138 lam=      -0.121372
     E(   3 )=  13.6805 eV   Re[Sigma]=     274.354684 meV Im[Sigma]=     473.458236 meV     Z=       1.167971 lam=      -0.143814
     E(   4 )=  13.6805 eV   Re[Sigma]=     274.354684 meV Im[Sigma]=     473.458236 meV     Z=       1.167971 lam=      -0.143814
     -------------------------------------------------------------------


     ik =      85 coord.:    0.0800000   0.0000000   0.0000000
     -------------------------------------------------------------------
     E(   1 )=  -7.7985 eV   Re[Sigma]=     -71.633843 meV Im[Sigma]=      38.481444 meV     Z=       1.006561 lam=      -0.006519
     E(   2 )=  13.1922 eV   Re[Sigma]=     135.484760 meV Im[Sigma]=     389.885025 meV     Z=       1.147478 lam=      -0.128524
     E(   3 )=  13.7042 eV   Re[Sigma]=     274.760379 meV Im[Sigma]=     485.669629 meV     Z=       1.176511 lam=      -0.150029
     E(   4 )=  13.7042 eV   Re[Sigma]=     274.760379 meV Im[Sigma]=     485.669629 meV     Z=       1.176511 lam=      -0.150029
     -------------------------------------------------------------------


     ik =      86 coord.:    0.0750000   0.0000000   0.0000000
     -------------------------------------------------------------------
     E(   1 )=  -7.8181 eV   Re[Sigma]=     -70.685106 meV Im[Sigma]=      39.286314 meV     Z=       1.007027 lam=      -0.006978
     E(   2 )=  13.2759 eV   Re[Sigma]=     143.217678 meV Im[Sigma]=     398.804844 meV     Z=       1.156269 lam=      -0.135149
     E(   3 )=  13.7265 eV   Re[Sigma]=     275.080053 meV Im[Sigma]=     498.255877 meV     Z=       1.185590 lam=      -0.156538
     E(   4 )=  13.7265 eV   Re[Sigma]=     275.080053 meV Im[Sigma]=     498.255877 meV     Z=       1.185590 lam=      -0.156538
     -------------------------------------------------------------------


     ik =      87 coord.:    0.0700000   0.0000000   0.0000000
     -------------------------------------------------------------------
     E(   1 )=  -7.8363 eV   Re[Sigma]=     -69.771505 meV Im[Sigma]=      40.123941 meV     Z=       1.007510 lam=      -0.007454
     E(   2 )=  13.3545 eV   Re[Sigma]=     150.625006 meV Im[Sigma]=     407.369366 meV     Z=       1.164468 lam=      -0.141239
     E(   3 )=  13.7474 eV   Re[Sigma]=     275.292796 meV Im[Sigma]=     511.221236 meV     Z=       1.195229 lam=      -0.163340
     E(   4 )=  13.7474 eV   Re[Sigma]=     275.292796 meV Im[Sigma]=     511.221236 meV     Z=       1.195229 lam=      -0.163340
     -------------------------------------------------------------------


     ik =      88 coord.:    0.0650000   0.0000000   0.0000000
     -------------------------------------------------------------------
     E(   1 )=  -7.8532 eV   Re[Sigma]=     -68.895808 meV Im[Sigma]=      40.994801 meV     Z=       1.008012 lam=      -0.007948
     E(   2 )=  13.4278 eV   Re[Sigma]=     157.630263 meV Im[Sigma]=     415.762946 meV     Z=       1.172108 lam=      -0.146836
     E(   3 )=  13.7669 eV   Re[Sigma]=     275.375645 meV Im[Sigma]=     524.566898 meV     Z=       1.205450 lam=      -0.170434
     E(   4 )=  13.7669 eV   Re[Sigma]=     275.375645 meV Im[Sigma]=     524.566898 meV     Z=       1.205450 lam=      -0.170434
     -------------------------------------------------------------------


     ik =      89 coord.:    0.0600000   0.0000000   0.0000000
     -------------------------------------------------------------------
     E(   1 )=  -7.8688 eV   Re[Sigma]=     -68.055743 meV Im[Sigma]=      41.899227 meV     Z=       1.008532 lam=      -0.008459
     E(   2 )=  13.4958 eV   Re[Sigma]=     164.167619 meV Im[Sigma]=     424.173689 meV     Z=       1.179290 lam=      -0.152032
     E(   3 )=  13.7851 eV   Re[Sigma]=     275.306938 meV Im[Sigma]=     538.289797 meV     Z=       1.216273 lam=      -0.177816
     E(   4 )=  13.7851 eV   Re[Sigma]=     275.306938 meV Im[Sigma]=     538.289797 meV     Z=       1.216273 lam=      -0.177816
     -------------------------------------------------------------------


     ik =      90 coord.:    0.0550000   0.0000000   0.0000000
     -------------------------------------------------------------------
     E(   1 )=  -7.8830 eV   Re[Sigma]=     -67.250931 meV Im[Sigma]=      42.837426 meV     Z=       1.009071 lam=      -0.008990
     E(   2 )=  13.5586 eV   Re[Sigma]=     170.180491 meV Im[Sigma]=     432.785007 meV     Z=       1.186177 lam=      -0.156955
     E(   3 )=  13.8019 eV   Re[Sigma]=     275.064696 meV Im[Sigma]=     552.382000 meV     Z=       1.227721 lam=      -0.185482
     E(   4 )=  13.8019 eV   Re[Sigma]=     275.064696 meV Im[Sigma]=     552.382000 meV     Z=       1.227721 lam=      -0.185482
     -------------------------------------------------------------------


     ik =      91 coord.:    0.0500000   0.0000000   0.0000000
     -------------------------------------------------------------------
     E(   1 )=  -7.8960 eV   Re[Sigma]=     -66.480520 meV Im[Sigma]=      43.809499 meV     Z=       1.009631 lam=      -0.009539
     E(   2 )=  13.6160 eV   Re[Sigma]=     175.621048 meV Im[Sigma]=     441.769348 meV     Z=       1.192976 lam=      -0.161760
     E(   3 )=  13.8172 eV   Re[Sigma]=     274.627514 meV Im[Sigma]=     566.830615 meV     Z=       1.239813 lam=      -0.193427
     E(   4 )=  13.8172 eV   Re[Sigma]=     274.627514 meV Im[Sigma]=     566.830615 meV     Z=       1.239813 lam=      -0.193427
     -------------------------------------------------------------------


     ik =      92 coord.:    0.0450000   0.0000000   0.0000000
     -------------------------------------------------------------------
     E(   1 )=  -7.9076 eV   Re[Sigma]=     -65.743413 meV Im[Sigma]=      44.815468 meV     Z=       1.010211 lam=      -0.010108
     E(   2 )=  13.6680 eV   Re[Sigma]=     180.448329 meV Im[Sigma]=     451.283807 meV     Z=       1.199924 lam=      -0.166614
     E(   3 )=  13.8311 eV   Re[Sigma]=     273.974895 meV Im[Sigma]=     581.618133 meV     Z=       1.252573 lam=      -0.201643
     E(   4 )=  13.8311 eV   Re[Sigma]=     273.974895 meV Im[Sigma]=     581.618133 meV     Z=       1.252573 lam=      -0.201643
     -------------------------------------------------------------------


     ik =      93 coord.:    0.0400000   0.0000000   0.0000000
     -------------------------------------------------------------------
     E(   1 )=  -7.9180 eV   Re[Sigma]=     -65.039884 meV Im[Sigma]=      45.855299 meV     Z=       1.010812 lam=      -0.010697
     E(   2 )=  13.7146 eV   Re[Sigma]=     184.625219 meV Im[Sigma]=     461.467192 meV     Z=       1.207266 lam=      -0.171682
     E(   3 )=  13.8436 eV   Re[Sigma]=     273.087064 meV Im[Sigma]=     596.723048 meV     Z=       1.266018 lam=      -0.210122
     E(   4 )=  13.8436 eV   Re[Sigma]=     273.087064 meV Im[Sigma]=     596.723048 meV     Z=       1.266018 lam=      -0.210122
     -------------------------------------------------------------------


     ik =      94 coord.:    0.0350000   0.0000000   0.0000000
     -------------------------------------------------------------------
     E(   1 )=  -7.9272 eV   Re[Sigma]=     -64.367624 meV Im[Sigma]=      46.928930 meV     Z=       1.011436 lam=      -0.011306
     E(   2 )=  13.7558 eV   Re[Sigma]=     188.116551 meV Im[Sigma]=     472.438088 meV     Z=       1.215249 lam=      -0.177123
     E(   3 )=  13.8546 eV   Re[Sigma]=     271.946312 meV Im[Sigma]=     612.120617 meV     Z=       1.280167 lam=      -0.218852
     E(   4 )=  13.8546 eV   Re[Sigma]=     271.946312 meV Im[Sigma]=     612.120617 meV     Z=       1.280167 lam=      -0.218852
     -------------------------------------------------------------------


     ik =      95 coord.:    0.0300000   0.0000000   0.0000000
     -------------------------------------------------------------------
     E(   1 )=  -7.9350 eV   Re[Sigma]=     -63.724157 meV Im[Sigma]=      48.036295 meV     Z=       1.012082 lam=      -0.011937
     E(   2 )=  13.7916 eV   Re[Sigma]=     190.885693 meV Im[Sigma]=     484.293429 meV     Z=       1.224108 lam=      -0.183078
     E(   3 )=  13.8642 eV   Re[Sigma]=     270.535957 meV Im[Sigma]=     627.783635 meV     Z=       1.295034 lam=      -0.227820
     E(   4 )=  13.8642 eV   Re[Sigma]=     270.535957 meV Im[Sigma]=     627.783635 meV     Z=       1.295034 lam=      -0.227820
     -------------------------------------------------------------------


     ik =      96 coord.:    0.0250000   0.0000000   0.0000000
     -------------------------------------------------------------------
     E(   1 )=  -7.9417 eV   Re[Sigma]=     -63.109734 meV Im[Sigma]=      49.177345 meV     Z=       1.012750 lam=      -0.012590
     E(   2 )=  13.8218 eV   Re[Sigma]=     192.890625 meV Im[Sigma]=     497.107191 meV     Z=       1.234063 lam=      -0.189668
     E(   3 )=  13.8723 eV   Re[Sigma]=     268.841292 meV Im[Sigma]=     643.683136 meV     Z=       1.310633 lam=      -0.237010
     E(   4 )=  13.8723 eV   Re[Sigma]=     268.841292 meV Im[Sigma]=     643.683136 meV     Z=       1.310633 lam=      -0.237010
     -------------------------------------------------------------------


     ik =      97 coord.:    0.0200000   0.0000000   0.0000000
     -------------------------------------------------------------------
     E(   1 )=  -7.9471 eV   Re[Sigma]=     -62.525692 meV Im[Sigma]=      50.352073 meV     Z=       1.013442 lam=      -0.013264
     E(   2 )=  13.8466 eV   Re[Sigma]=     194.082503 meV Im[Sigma]=     510.928786 meV     Z=       1.245311 lam=      -0.196988
     E(   3 )=  13.8789 eV   Re[Sigma]=     266.848583 meV Im[Sigma]=     659.788937 meV     Z=       1.326973 lam=      -0.246405
     E(   4 )=  13.8789 eV   Re[Sigma]=     266.848583 meV Im[Sigma]=     659.788937 meV     Z=       1.326973 lam=      -0.246405
     -------------------------------------------------------------------


     ik =      98 coord.:    0.0150000   0.0000000   0.0000000
     -------------------------------------------------------------------
     E(   1 )=  -7.9513 eV   Re[Sigma]=     -61.969522 meV Im[Sigma]=      51.560527 meV     Z=       1.014158 lam=      -0.013960
     E(   2 )=  13.8659 eV   Re[Sigma]=     194.404960 meV Im[Sigma]=     525.780891 meV     Z=       1.258020 lam=      -0.205100
     E(   3 )=  13.8841 eV   Re[Sigma]=     264.546634 meV Im[Sigma]=     676.070015 meV     Z=       1.344062 lam=      -0.255987
     E(   4 )=  13.8841 eV   Re[Sigma]=     264.546634 meV Im[Sigma]=     676.070015 meV     Z=       1.344062 lam=      -0.255987
     -------------------------------------------------------------------


     ik =      99 coord.:    0.0100000   0.0000000   0.0000000
     -------------------------------------------------------------------
[...]
      167        3      8.4307    151.3564    162.7175      1.0140     -0.0138
      168        3      8.3328    149.1953    160.8164      1.0143     -0.0141
      169        3      8.2367    147.0288    159.1049      1.0145     -0.0143
      170        3      8.1427    144.8973    157.4858      1.0146     -0.0144
      171        3      8.0507    142.8358    155.9005      1.0147     -0.0145
      172        3      7.9608    140.8637    154.3210      1.0147     -0.0145
      173        3      7.8732    138.9874    152.7338      1.0148     -0.0146
      174        3      7.7880    137.2050    151.1247      1.0150     -0.0148
      175        3      7.7051    135.5113    149.4719      1.0152     -0.0150
      176        3      7.6247    133.8999    147.7451      1.0155     -0.0152
      177        3      7.5468    132.3652    145.9104      1.0158     -0.0155
      178        3      7.4716    130.9030    143.9356      1.0160     -0.0158
      179        3      7.3990    129.5109    141.7960      1.0162     -0.0160
      180        3      7.3292    128.1883    139.4777      1.0164     -0.0161
      181        3      7.2623    126.9362    136.9789      1.0164     -0.0161
      182        3      7.1982    125.7562    134.3105      1.0162     -0.0160
      183        3      7.1370    124.6507    131.4940      1.0159     -0.0157
      184        3      7.0788    123.6213    128.5604      1.0154     -0.0151
      185        3      7.0237    122.6682    125.5469      1.0147     -0.0144
      186        3      6.9717    121.7899    122.4947      1.0137     -0.0136
      187        3      6.9228    120.9822    119.4460      1.0126     -0.0125
      188        3      6.8770    120.2382    116.4406      1.0114     -0.0113
      189        3      6.8345    119.5470    113.5136      1.0101     -0.0100
      190        3      6.7953    118.8876    110.6918      1.0087     -0.0086
      191        3      6.7594    118.2503    107.9921      1.0073     -0.0072
      192        3      6.7267    117.6312    105.4198      1.0059     -0.0059
      193        3      6.6975    117.0050    102.9684      1.0045     -0.0045
      194        3      6.6716    116.3508    100.6213      1.0033     -0.0033
      195        3      6.6491    115.6475     98.3540      1.0021     -0.0021
      196        3      6.6301    114.8810     96.1384      1.0010     -0.0010
      197        3      6.6145    114.0418     93.9462      1.0000      0.0000
      198        3      6.6023    113.1229     91.7531      0.9990      0.0010
      199        3      6.5936    112.1218     89.5414      0.9981      0.0019
      200        3      6.5884    111.0404     87.3021      0.9971      0.0029
      201        3      6.5866    109.8847     85.0349      0.9961      0.0039
  
        1        4     10.6149    -63.5656    440.7994      1.1840     -0.1554
        2        4     10.6157    -59.6436    450.5796      1.1967     -0.1644
        3        4     10.6184    -55.2089    460.4555      1.2102     -0.1737
        4        4     10.6228    -50.2275    470.2959      1.2241     -0.1831
        5        4     10.6289    -44.6783    479.9569      1.2380     -0.1923
        6        4     10.6367    -38.5583    489.2861      1.2515     -0.2009
        7        4     10.6463    -31.8880    498.1273      1.2638     -0.2087
        8        4     10.6576    -24.7161    506.3270      1.2742     -0.2152
        9        4     10.6706    -17.1199    513.7418      1.2821     -0.2200
       10        4     10.6853     -9.2038    520.2461      1.2870     -0.2230
       11        4     10.7016     -1.0916    525.7410      1.2887     -0.2240
       12        4     10.7196      7.0856    530.1617      1.2875     -0.2233
       13        4     10.7392     15.2028    533.4839      1.2836     -0.2210
       14        4     10.7605     23.1538    535.7279      1.2779     -0.2175
       15        4     10.7833     30.8613    536.9602      1.2712     -0.2133
       16        4     10.8076     38.2808    537.2912      1.2641     -0.2089
       17        4     10.8335     45.4012    536.8695      1.2573     -0.2046
       18        4     10.8608     52.2396    535.8730      1.2512     -0.2007
       19        4     10.8897     58.8338    534.4967      1.2459     -0.1974
       20        4     10.9199     65.2341    532.9394      1.2416     -0.1946
       21        4     10.9515     71.4947    531.3893      1.2381     -0.1923
       22        4     10.9845     77.6731    530.0111      1.2354     -0.1905
       23        4     11.0188     83.8233    528.9342      1.2332     -0.1891
       24        4     11.0543     89.9915    528.2454      1.2313     -0.1879
       25        4     11.0911     96.2147    527.9840      1.2296     -0.1867
       26        4     11.1291    102.5205    528.1424      1.2279     -0.1856
       27        4     11.1682    108.9271    528.6695      1.2261     -0.1844
       28        4     11.2084    115.4441    529.4788      1.2240     -0.1830
       29        4     11.2497    122.0722    530.4587      1.2215     -0.1814
       30        4     11.2920    128.8041    531.4860      1.2188     -0.1795
       31        4     11.3352    135.6241    532.4389      1.2157     -0.1774
       32        4     11.3793    142.5101    533.2087      1.2122     -0.1750
       33        4     11.4243    149.4383    533.7067      1.2085     -0.1725
       34        4     11.4701    156.3914    533.8642      1.2046     -0.1699
       35        4     11.5167    163.3641    533.6262      1.2008     -0.1672
       36        4     11.5640    170.3633    532.9410      1.1971     -0.1646
       37        4     11.6119    177.4048    531.7499      1.1935     -0.1622
       38        4     11.6604    184.4753    529.9817      1.1901     -0.1598
       39        4     11.7095    191.5723    527.5527      1.1869     -0.1575
       40        4     11.7590    198.6935    524.3713      1.1837     -0.1552
       41        4     11.8090    205.8293    520.3440      1.1807     -0.1530
       42        4     11.8594    212.9631    515.3816      1.1776     -0.1508
       43        4     11.9102    220.0707    509.4044      1.1744     -0.1485
       44        4     11.9612    227.1177    502.3489      1.1710     -0.1461
       45        4     12.0124    234.0571    494.1751      1.1672     -0.1432
       46        4     12.0639    240.8264    484.8758      1.1627     -0.1399
       47        4     12.1154    247.3458    474.4860      1.1574     -0.1360
       48        4     12.1670    253.5186    463.0907      1.1510     -0.1312
       49        4     12.2187    259.2336    450.8299      1.1435     -0.1255
       50        4     12.2703    264.3745    437.8984      1.1348     -0.1188
       51        4     12.3218    268.8311    424.5404      1.1253     -0.1113
       52        4     12.3732    272.5170    411.0387      1.1152     -0.1033
       53        4     12.4244    275.3858    397.6990      1.1052     -0.0952
       54        4     12.4753    277.4391    384.8314      1.0958     -0.0874
       55        4     12.5260    278.7291    372.7309      1.0875     -0.0804
       56        4     12.5763    279.3487    361.6595      1.0806     -0.0746
       57        4     12.6263    279.4147    351.8316      1.0753     -0.0701
       58        4     12.6758    279.0526    343.4041      1.0716     -0.0668
       59        4     12.7249    278.3829    336.4731      1.0692     -0.0648
       60        4     12.7734    277.5115    331.0745      1.0681     -0.0637
       61        4     12.8214    276.5269    327.1910      1.0679     -0.0636
       62        4     12.8687    275.5001    324.7614      1.0686     -0.0642
       63        4     12.9154    274.4847    323.6925      1.0699     -0.0654
       64        4     12.9614    273.5207    323.8713      1.0718     -0.0670
       65        4     13.0067    272.6373    325.1764      1.0741     -0.0690
       66        4     13.0512    271.8536    327.4886      1.0767     -0.0713
       67        4     13.0949    271.1824    330.6978      1.0796     -0.0738
       68        4     13.1377    270.6315    334.7088      1.0828     -0.0765
       69        4     13.1796    270.2038    339.4436      1.0862     -0.0794
       70        4     13.2207    269.8992    344.8416      1.0898     -0.0824
       71        4     13.2607    269.7161    350.8571      1.0936     -0.0856
       72        4     13.2998    269.6495    357.4560      1.0977     -0.0890
       73        4     13.3378    269.6932    364.6117      1.1019     -0.0925
       74        4     13.3748    269.8403    372.3007      1.1063     -0.0961
       75        4     13.4107    270.0810    380.5000      1.1110     -0.0999
       76        4     13.4455    270.4055    389.1851      1.1159     -0.1039
       77        4     13.4792    270.8025    398.3299      1.1211     -0.1080
       78        4     13.5116    271.2582    407.9084      1.1266     -0.1124
       79        4     13.5429    271.7592    417.8961      1.1325     -0.1170
       80        4     13.5730    272.2897    428.2726      1.1387     -0.1218
       81        4     13.6018    272.8327    439.0229      1.1454     -0.1269
       82        4     13.6293    273.3709    450.1383      1.1524     -0.1323
       83        4     13.6556    273.8847    461.6161      1.1599     -0.1379
       84        4     13.6805    274.3547    473.4582      1.1680     -0.1438
       85        4     13.7042    274.7604    485.6696      1.1765     -0.1500
       86        4     13.7265    275.0801    498.2559      1.1856     -0.1565
       87        4     13.7474    275.2928    511.2212      1.1952     -0.1633
       88        4     13.7669    275.3756    524.5669      1.2054     -0.1704
       89        4     13.7851    275.3069    538.2898      1.2163     -0.1778
       90        4     13.8019    275.0647    552.3820      1.2277     -0.1855
       91        4     13.8172    274.6275    566.8306      1.2398     -0.1934
       92        4     13.8311    273.9749    581.6181      1.2526     -0.2016
       93        4     13.8436    273.0871    596.7230      1.2660     -0.2101
       94        4     13.8546    271.9463    612.1206      1.2802     -0.2189
       95        4     13.8642    270.5360    627.7836      1.2950     -0.2278
       96        4     13.8723    268.8413    643.6831      1.3106     -0.2370
       97        4     13.8789    266.8486    659.7889      1.3270     -0.2464
       98        4     13.8841    264.5466    676.0700      1.3441     -0.2560
       99        4     13.8878    261.9250    692.4947      1.3619     -0.2657
      100        4     13.8900    258.9754    709.0305      1.3805     -0.2756
      101        4     13.8908    233.6064    675.8550      1.3671     -0.2685
      102        4     13.8889    241.2275    654.2465      1.3422     -0.2549
      103        4     13.8833    243.7642    634.9308      1.3221     -0.2436
      104        4     13.8740    245.6735    615.9227      1.3033     -0.2327
      105        4     13.8610    247.0133    597.2830      1.2858     -0.2223
      106        4     13.8443    247.8391    579.0578      1.2694     -0.2122
      107        4     13.8239    248.2041    561.2806      1.2542     -0.2027
      108        4     13.7998    248.1573    543.9746      1.2400     -0.1936
      109        4     13.7721    247.7472    527.1537      1.2269     -0.1849
      110        4     13.7408    247.0183    510.8248      1.2147     -0.1767
      111        4     13.7060    246.0123    494.9889      1.2033     -0.1689
      112        4     13.6676    244.7679    479.6422      1.1927     -0.1616
      113        4     13.6257    243.3206    464.7772      1.1829     -0.1546
      114        4     13.5804    241.7038    450.3836      1.1736     -0.1480
      115        4     13.5317    239.9486    436.4493      1.1650     -0.1417
      116        4     13.4797    238.0837    422.9606      1.1570     -0.1357
      117        4     13.4244    236.1360    409.9030      1.1494     -0.1300
      118        4     13.3658    234.1302    397.2619      1.1423     -0.1246
      119        4     13.3041    232.0893    385.0225      1.1355     -0.1194
      120        4     13.2393    230.0351    373.1705      1.1292     -0.1144
      121        4     13.1714    227.9872    361.6926      1.1231     -0.1096
      122        4     13.1006    225.9642    350.5767      1.1174     -0.1051
      123        4     13.0270    223.9832    339.8121      1.1119     -0.1007
      124        4     12.9505    222.0603    329.3906      1.1067     -0.0964
      125        4     12.8713    220.2100    319.3065      1.1016     -0.0923
      126        4     12.7895    218.4459    309.5574      1.0968     -0.0882
      127        4     12.7051    216.7803    300.1449      1.0921     -0.0843
      128        4     12.6183    215.2236    291.0748      1.0876     -0.0805
      129        4     12.5291    213.7854    282.3580      1.0832     -0.0768
      130        4     12.4376    212.4743    274.0103      1.0790     -0.0732
      131        4     12.3439    211.2972    266.0520      1.0748     -0.0696
      132        4     12.2482    210.2588    258.5068      1.0708     -0.0662
      133        4     12.1505    209.3618    251.4000      1.0670     -0.0628
      134        4     12.0509    208.6054    244.7554      1.0633     -0.0595
      135        4     11.9495    207.9857    238.5914      1.0597     -0.0563
      136        4     11.8465    207.4942    232.9174      1.0564     -0.0534
      137        4     11.7419    207.1176    227.7287      1.0533     -0.0506
      138        4     11.6358    206.8377    223.0043      1.0504     -0.0480
      139        4     11.5284    206.6323    218.7060      1.0479     -0.0457
      140        4     11.4198    206.4776    214.7817      1.0456     -0.0436
      141        4     11.3100    206.3530    211.1762      1.0436     -0.0417
      142        4     11.1993    206.2459    207.8491      1.0416     -0.0400
      143        4     11.0876    206.1559    204.8026      1.0397     -0.0382
      144        4     10.9751    206.0938    202.1106      1.0377     -0.0363
      145        4     10.8620    206.0728    199.9390      1.0356     -0.0343
      146        4     10.7483    206.0897    198.5346      1.0334     -0.0323
      147        4     10.6342    206.0955    198.1706      1.0315     -0.0305
      148        4     10.5197    205.9605    199.0467      1.0303     -0.0295
      149        4     10.4050    205.4554    201.1723      1.0304     -0.0295
      150        4     10.2902    204.2972    204.2761      1.0316     -0.0306
      151        4     10.1754    202.2753    207.7931      1.0334     -0.0323
      152        4     10.0608    199.3523    210.9633      1.0349     -0.0337
      153        4      9.9464    195.6618    213.0270      1.0355     -0.0343
      154        4      9.8323    191.4699    213.4455      1.0349     -0.0337
      155        4      9.7187    187.0949    212.0424      1.0331     -0.0320
      156        4      9.6057    182.7918    209.0000      1.0306     -0.0297
      157        4      9.4933    178.7085    204.7304      1.0279     -0.0272
      158        4      9.3818    174.9097    199.7090      1.0253     -0.0246
      159        4      9.2711    171.4129    194.3518      1.0228     -0.0223
      160        4      9.1615    168.2074    188.9706      1.0206     -0.0201
      161        4      9.0529    165.2729    183.7856      1.0186     -0.0183
      162        4      8.9456    162.5842    178.9567      1.0169     -0.0167
      163        4      8.8396    160.1096    174.6049      1.0156     -0.0153
      164        4      8.7350    157.8073    170.8107      1.0146     -0.0144
      165        4      8.6319    155.6229    167.6006      1.0140     -0.0138
      166        4      8.5305    153.4915    164.9355      1.0138     -0.0136
      167        4      8.4307    151.3564    162.7175      1.0140     -0.0138
      168        4      8.3328    149.1953    160.8164      1.0143     -0.0141
      169        4      8.2367    147.0288    159.1049      1.0145     -0.0143
      170        4      8.1427    144.8973    157.4858      1.0146     -0.0144
      171        4      8.0507    142.8358    155.9005      1.0147     -0.0145
      172        4      7.9608    140.8637    154.3210      1.0147     -0.0145
      173        4      7.8732    138.9874    152.7338      1.0148     -0.0146
      174        4      7.7880    137.2050    151.1247      1.0150     -0.0148
      175        4      7.7051    135.5113    149.4719      1.0152     -0.0150
      176        4      7.6247    133.8999    147.7451      1.0155     -0.0152
      177        4      7.5468    132.3652    145.9104      1.0158     -0.0155
      178        4      7.4716    130.9030    143.9356      1.0160     -0.0158
      179        4      7.3990    129.5109    141.7960      1.0162     -0.0160
      180        4      7.3292    128.1883    139.4777      1.0164     -0.0161
      181        4      7.2623    126.9362    136.9789      1.0164     -0.0161
      182        4      7.1982    125.7562    134.3105      1.0162     -0.0160
      183        4      7.1370    124.6507    131.4940      1.0159     -0.0157
      184        4      7.0788    123.6213    128.5604      1.0154     -0.0151
      185        4      7.0237    122.6682    125.5469      1.0147     -0.0144
      186        4      6.9717    121.7899    122.4947      1.0137     -0.0136
      187        4      6.9228    120.9822    119.4460      1.0126     -0.0125
      188        4      6.8770    120.2382    116.4406      1.0114     -0.0113
      189        4      6.8345    119.5470    113.5136      1.0101     -0.0100
      190        4      6.7953    118.8876    110.6918      1.0087     -0.0086
      191        4      6.7594    118.2503    107.9921      1.0073     -0.0072
      192        4      6.7267    117.6312    105.4198      1.0059     -0.0059
      193        4      6.6975    117.0050    102.9684      1.0045     -0.0045
      194        4      6.6716    116.3508    100.6213      1.0033     -0.0033
      195        4      6.6491    115.6475     98.3540      1.0021     -0.0021
      196        4      6.6301    114.8810     96.1384      1.0010     -0.0010
      197        4      6.6145    114.0418     93.9462      1.0000      0.0000
      198        4      6.6023    113.1229     91.7531      0.9990      0.0010
      199        4      6.5936    112.1218     89.5414      0.9981      0.0019
      200        4      6.5884    111.0404     87.3021      0.9971      0.0029
      201        4      6.5866    109.8847     85.0349      0.9961      0.0039
  
     ===================================================================
     Memory usage:  VmHWM =        20Mb
                   VmPeak =       359Mb
     ===================================================================


     Unfolding on the coarse grid
     elphon_wrap  :      0.00s CPU      0.00s WALL (       1 calls)

     INITIALIZATION: 




     Electron-Phonon interpolation
     ephwann      :      1.27s CPU      1.33s WALL (       1 calls)
     ep-interp    :      1.22s CPU      1.27s WALL (     201 calls)

     DynW2B       :      0.00s CPU      0.00s WALL (     201 calls)
     HamW2B       :      0.43s CPU      0.46s WALL (   81606 calls)
     ephW2Bp      :      0.03s CPU      0.03s WALL (     201 calls)
     ephW2B       :      0.19s CPU      0.20s WALL (   40401 calls)


     Total program execution
     EPW          :      1.28s CPU      1.34s WALL

     ===============================================================================
     The functionality-dependent EPW.bib file was created with suggested citations. 
     Please consider citing the papers listed in EPW.bib.                           
     ===============================================================================
                                                                                    
