                                                                                      
                                       ``:oss/                                        
                           `.+s+.     .+ys--yh+     `./ss+.                           
                          -sh//yy+`   +yy   +yy    -+h+-oyy                           
                          -yh- .oyy/.-sh.   .syo-.:sy-  /yh                           
                 `.-.`    `yh+   -oyyyo.     `/syys:    oys      `.`                  
               `/+ssys+-` `sh+      `                   oys`   .:osyo`                
               -yh- ./syyooyo`                          .sys+/oyo--yh/                
               `yy+    .-:-.                             `-/+/:`  -sh-                
                /yh.                                              oys                 
          ``..---hho---------`   .---------..`      `.-----.`    -hd+---.             
       `./osmNMMMMMMMMMMMMMMMs. +NNMMMMMMMMNNmh+.   yNMMMMMNm-  oNMMMMMNmo++:`        
       +sy--/sdMMMhyyyyyyyNMMh- .oyNMMmyyyyyhNMMm+` -yMMMdyyo:` .oyyNMMNhs+syy`       
       -yy/   /MMM+.`-+/``mMMy-   `mMMh:`````.dMMN:` `MMMy-`-dhhy```mMMy:``+hs        
        -yy+` /MMMo:-mMM+`-oo/.    mMMh:     `dMMN/`  dMMm:`dMMMMy..MMMo-.+yo`        
         .sys`/MMMMNNMMMs-         mMMmyooooymMMNo:   oMMM/sMMMMMM++MMN//oh:          
          `sh+/MMMhyyMMMs- `-`     mMMMMMMMMMNmy+-`   -MMMhMMMsmMMmdMMd/yy+           
    `-/+++oyy-/MMM+.`/hh/.`mNm:`   mMMd+/////:-.`      NMMMMMd/:NMMMMMy:/yyo/:.`      
   +os+//:-..-oMMMo:--:::-/MMMo. .-mMMd+---`           hMMMMN+. oMMMMMo. `-+osyso:`   
   syo     `mNMMMMMNNNNNNNNMMMo.oNNMMMMMNNNN:`         +MMMMs:`  dMMMN/`     ``:syo   
   /yh`     :syyyyyyyyyyyyyyyy+.`+syyyyyyyyo:`         .oyys:`   .oyys:`        +yh   
   -yh-        ````````````````    `````````              ``        ``          oys   
   -+h/------------------------::::::::://////++++++++++++++++++++++///////::::/yd:   
   shdddddddddddddddddddddddddddddhhhhhhhhyyyyyssssssssssssssssyyyyyyyhhhhhhhddddh`   
                                                                                      
  S. Ponce, E. R. Margine, C. Verdi, and F. Giustino,                                 
                                                Comput. Phys. Commun. 209, 116 (2016) 
                                                                                      

     Program EPW v.5.0.0 starts on 11Oct2018 at 14:45:59 

     This program is part of the open-source Quantum ESPRESSO suite
     for quantum simulation of materials; please cite
         "P. Giannozzi et al., J. Phys.:Condens. Matter 21 395502 (2009);
         "P. Giannozzi et al., J. Phys.:Condens. Matter 29 465901 (2017);
          URL http://www.quantum-espresso.org", 
     in publications or presentations arising from this work. More details at
     http://www.quantum-espresso.org/quote

     Parallel version (MPI), running on     1 processors

     MPI processes distributed on     1 nodes
                      
     ------------------------------------------------------------------------ 
                   RESTART - RESTART - RESTART - RESTART                         
     Restart is done without reading PWSCF save file.                  
     Be aware that some consistency checks are therefore not done.                  
     ------------------------------------------------------------------------ 
                      

     --                                                                         

     bravais-lattice index     =            0
     lattice parameter (a_0)   =       0.0000  a.u.
     unit-cell volume          =       0.0000 (a.u.)^3
     number of atoms/cell      =            0
     number of atomic types    =            0
     kinetic-energy cut-off    =       0.0000  Ry
     charge density cut-off    =       0.0000  Ry
     convergence threshold     =      0.0E+00
     beta                      =       0.0000
     number of iterations used =            0
     Exchange-correlation      = not set (-1 -1 -1 -1-1-1)


     celldm(1)=    0.00000  celldm(2)=    0.00000  celldm(3)=    0.00000
     celldm(4)=    0.00000  celldm(5)=    0.00000  celldm(6)=    0.00000

     crystal axes: (cart. coord. in units of a_0)
               a(1) = (  0.0000  0.0000  0.0000 )  
               a(2) = (  0.0000  0.0000  0.0000 )  
               a(3) = (  0.0000  0.0000  0.0000 )  

     reciprocal axes: (cart. coord. in units 2 pi/a_0)
               b(1) = (  0.0000  0.0000  0.0000 )  
               b(2) = (  0.0000  0.0000  0.0000 )  
               b(3) = (  0.0000  0.0000  0.0000 )  


     Atoms inside the unit cell: 

   Cartesian axes

     site n.  atom      mass           positions (a_0 units)


     No symmetry!

     G cutoff =    0.0000  (      0 G-vectors)     FFT grid: (  0,  0,  0)
     number of k points=    0
                       cart. coord. in units 2pi/a_0
     EPW          :      0.00s CPU      0.00s WALL

     EPW          :      0.00s CPU      0.00s WALL

     No wavefunction gauge setting applied

     -------------------------------------------------------------------
     Using ./diam.ukk from disk
     -------------------------------------------------------------------


     Using kmap and kgmap from disk

     Do not need to read .epb files; read .fmt files


     Band disentanglement is used:  nbndsub =    4
     Use zone-centred Wigner-Seitz cells 
     Number of WS vectors for electrons       43
     Number of WS vectors for phonons       43
     Number of WS vectors for electron-phonon       43
     Results may improve by using use_ws == .true. 

     Reading Hamiltonian, Dynamical matrix and EP vertex in Wann rep from file


     Finished reading Wann rep data from file

     ===================================================================
     Memory usage:  VmHWM =        14Mb
                   VmPeak =       273Mb
     ===================================================================
     
     Using q-mesh file: path.dat
     Size of q point mesh for interpolation:        201
      Using k-mesh file: path.dat
     Size of k point mesh for interpolation:        402
     Max number of k points per pool:              402

     Fermi energy coarse grid =  14.009584 eV

     ===================================================================

     Fermi energy corresponds to the coarse k-mesh

     ===================================================================

              ibndmin =     1  ebndmin =    -0.069
              ibndmax =     4  ebndmax =     1.021


     Number of ep-matrix elements per pool :        19296 ~=  150.75 Kb (@ 8 bytes/ DP)

     ===================================================================
     Electron (Imaginary) Self-Energy in the Migdal Approximation
     ===================================================================


     Fermi Surface thickness =  15.000000 eV

     Golden Rule strictly enforced with T =   0.025852 eV
     Gaussian Broadening:   1.000000 eV, ngauss=   1
 
     Progression iq (fine) =         50/       201
     Progression iq (fine) =        100/       201
     Progression iq (fine) =        150/       201
     Progression iq (fine) =        200/       201
     Average over degenerate eigenstates is performed
     WARNING: only the eigenstates within the Fermi window are meaningful

     ik =       1 coord.:    0.5000000   0.0000000   0.0000000
     -------------------------------------------------------------------
     E(   1 )=  -2.0314 eV   Re[Sigma]=     -92.999168 meV Im[Sigma]=     488.126519 meV     Z=       1.264580 lam=      -0.209223
     E(   2 )=  -0.4915 eV   Re[Sigma]=      -6.737754 meV Im[Sigma]=     441.636541 meV     Z=       1.213168 lam=      -0.175712
     E(   3 )=  10.6149 eV   Re[Sigma]=     -63.562927 meV Im[Sigma]=     440.801323 meV     Z=       1.183988 lam=      -0.155397
     E(   4 )=  10.6149 eV   Re[Sigma]=     -63.562927 meV Im[Sigma]=     440.801323 meV     Z=       1.183988 lam=      -0.155397
     -------------------------------------------------------------------


     ik =       2 coord.:    0.4950000   0.0000000   0.0000000
     -------------------------------------------------------------------
     E(   1 )=  -2.0404 eV   Re[Sigma]=    -104.300358 meV Im[Sigma]=     502.485245 meV     Z=       1.276193 lam=      -0.216420
     E(   2 )=  -0.4805 eV   Re[Sigma]=      -2.768109 meV Im[Sigma]=     446.136161 meV     Z=       1.220980 lam=      -0.180986
     E(   3 )=  10.6158 eV   Re[Sigma]=     -59.640954 meV Im[Sigma]=     450.581536 meV     Z=       1.196719 lam=      -0.164382
     E(   4 )=  10.6158 eV   Re[Sigma]=     -59.640954 meV Im[Sigma]=     450.581536 meV     Z=       1.196719 lam=      -0.164382
     -------------------------------------------------------------------


     ik =       3 coord.:    0.4900000   0.0000000   0.0000000
     -------------------------------------------------------------------
     E(   1 )=  -2.0668 eV   Re[Sigma]=    -121.824334 meV Im[Sigma]=     494.049012 meV     Z=       1.265701 lam=      -0.209924
     E(   2 )=  -0.4481 eV   Re[Sigma]=       6.495635 meV Im[Sigma]=     427.726505 meV     Z=       1.207962 lam=      -0.172160
     E(   3 )=  10.6184 eV   Re[Sigma]=     -55.206211 meV Im[Sigma]=     460.457486 meV     Z=       1.210181 lam=      -0.173678
     E(   4 )=  10.6184 eV   Re[Sigma]=     -55.206211 meV Im[Sigma]=     460.457486 meV     Z=       1.210181 lam=      -0.173678
     -------------------------------------------------------------------


     ik =       4 coord.:    0.4850000   0.0000000   0.0000000
     -------------------------------------------------------------------
     E(   1 )=  -2.1086 eV   Re[Sigma]=    -142.720939 meV Im[Sigma]=     466.214417 meV     Z=       1.238545 lam=      -0.192601
     E(   2 )=  -0.3962 eV   Re[Sigma]=      18.477662 meV Im[Sigma]=     391.113810 meV     Z=       1.179369 lam=      -0.152089
     E(   3 )=  10.6228 eV   Re[Sigma]=     -50.224869 meV Im[Sigma]=     470.297844 meV     Z=       1.224091 lam=      -0.183067
     E(   4 )=  10.6228 eV   Re[Sigma]=     -50.224869 meV Im[Sigma]=     470.297844 meV     Z=       1.224091 lam=      -0.183067
     -------------------------------------------------------------------


     ik =       5 coord.:    0.4800000   0.0000000   0.0000000
     -------------------------------------------------------------------
     E(   1 )=  -2.1632 eV   Re[Sigma]=    -163.859589 meV Im[Sigma]=     425.867076 meV     Z=       1.203925 lam=      -0.169383
     E(   2 )=  -0.3275 eV   Re[Sigma]=      30.269842 meV Im[Sigma]=     344.088876 meV     Z=       1.143907 lam=      -0.125803
     E(   3 )=  10.6289 eV   Re[Sigma]=     -44.675661 meV Im[Sigma]=     479.958869 meV     Z=       1.238037 lam=      -0.192270
     E(   4 )=  10.6289 eV   Re[Sigma]=     -44.675661 meV Im[Sigma]=     479.958869 meV     Z=       1.238037 lam=      -0.192270
     -------------------------------------------------------------------


     ik =       6 coord.:    0.4750000   0.0000000   0.0000000
     -------------------------------------------------------------------
     E(   1 )=  -2.2281 eV   Re[Sigma]=    -183.035459 meV Im[Sigma]=     380.388470 meV     Z=       1.169315 lam=      -0.144798
     E(   2 )=  -0.2445 eV   Re[Sigma]=      39.817752 meV Im[Sigma]=     294.542857 meV     Z=       1.108895 lam=      -0.098201
     E(   3 )=  10.6367 eV   Re[Sigma]=     -38.555553 meV Im[Sigma]=     489.288097 meV     Z=       1.251476 lam=      -0.200944
     E(   4 )=  10.6367 eV   Re[Sigma]=     -38.555553 meV Im[Sigma]=     489.288097 meV     Z=       1.251476 lam=      -0.200944
     -------------------------------------------------------------------


     ik =       7 coord.:    0.4700000   0.0000000   0.0000000
     -------------------------------------------------------------------
     E(   1 )=  -2.3010 eV   Re[Sigma]=    -199.240298 meV Im[Sigma]=     335.230841 meV     Z=       1.138167 lam=      -0.121394
     E(   2 )=  -0.1496 eV   Re[Sigma]=      46.250132 meV Im[Sigma]=     248.244767 meV     Z=       1.078377 lam=      -0.072680
     E(   3 )=  10.6463 eV   Re[Sigma]=     -31.885266 meV Im[Sigma]=     498.129368 meV     Z=       1.263755 lam=      -0.208708
     E(   4 )=  10.6463 eV   Re[Sigma]=     -31.885266 meV Im[Sigma]=     498.129368 meV     Z=       1.263755 lam=      -0.208708
     -------------------------------------------------------------------


     ik =       8 coord.:    0.4650000   0.0000000   0.0000000
     -------------------------------------------------------------------
     E(   1 )=  -2.3799 eV   Re[Sigma]=    -212.261180 meV Im[Sigma]=     293.098160 meV     Z=       1.110503 lam=      -0.099507
     E(   2 )=  -0.0448 eV   Re[Sigma]=      49.598423 meV Im[Sigma]=     208.148854 meV     Z=       1.053685 lam=      -0.050950
     E(   3 )=  10.6576 eV   Re[Sigma]=     -24.713354 meV Im[Sigma]=     506.329142 meV     Z=       1.274173 lam=      -0.215177
     E(   4 )=  10.6576 eV   Re[Sigma]=     -24.713354 meV Im[Sigma]=     506.329142 meV     Z=       1.274173 lam=      -0.215177
     -------------------------------------------------------------------


     ik =       9 coord.:    0.4600000   0.0000000   0.0000000
     -------------------------------------------------------------------
     E(   1 )=  -2.4632 eV   Re[Sigma]=    -222.135099 meV Im[Sigma]=     254.553696 meV     Z=       1.084785 lam=      -0.078159
     E(   2 )=   0.0686 eV   Re[Sigma]=      50.355078 meV Im[Sigma]=     174.944085 meV     Z=       1.034628 lam=      -0.033469
     E(   3 )=  10.6706 eV   Re[Sigma]=     -17.117172 meV Im[Sigma]=     513.743899 meV     Z=       1.282080 lam=      -0.220017
     E(   4 )=  10.6706 eV   Re[Sigma]=     -17.117172 meV Im[Sigma]=     513.743899 meV     Z=       1.282080 lam=      -0.220017
     -------------------------------------------------------------------


     ik =      10 coord.:    0.4550000   0.0000000   0.0000000
     -------------------------------------------------------------------
     E(   1 )=  -2.5499 eV   Re[Sigma]=    -228.852552 meV Im[Sigma]=     219.192538 meV     Z=       1.060072 lam=      -0.056668
     E(   2 )=   0.1891 eV   Re[Sigma]=      49.176570 meV Im[Sigma]=     148.056053 meV     Z=       1.020388 lam=      -0.019980
     E(   3 )=  10.6853 eV   Re[Sigma]=      -9.201020 meV Im[Sigma]=     520.248250 meV     Z=       1.286999 lam=      -0.222999
     E(   4 )=  10.6853 eV   Re[Sigma]=      -9.201020 meV Im[Sigma]=     520.248250 meV     Z=       1.286999 lam=      -0.222999
     -------------------------------------------------------------------


     ik =      11 coord.:    0.4500000   0.0000000   0.0000000
     -------------------------------------------------------------------
     E(   1 )=  -2.6391 eV   Re[Sigma]=    -232.422244 meV Im[Sigma]=     186.597079 meV     Z=       1.037200 lam=      -0.035866
     E(   2 )=   0.3160 eV   Re[Sigma]=      46.693318 meV Im[Sigma]=     126.452893 meV     Z=       1.009970 lam=      -0.009871
     E(   3 )=  10.7016 eV   Re[Sigma]=      -1.088806 meV Im[Sigma]=     525.743217 meV     Z=       1.288741 lam=      -0.224049
     E(   4 )=  10.7016 eV   Re[Sigma]=      -1.088806 meV Im[Sigma]=     525.743217 meV     Z=       1.288741 lam=      -0.224049
     -------------------------------------------------------------------


     ik =      12 coord.:    0.4450000   0.0000000   0.0000000
     -------------------------------------------------------------------
     E(   1 )=  -2.7300 eV   Re[Sigma]=    -233.087271 meV Im[Sigma]=     156.759852 meV     Z=       1.017954 lam=      -0.017638
     E(   2 )=   0.4486 eV   Re[Sigma]=      43.401829 meV Im[Sigma]=     109.104788 meV     Z=       1.002442 lam=      -0.002436
     E(   3 )=  10.7196 eV   Re[Sigma]=       7.088411 meV Im[Sigma]=     530.163957 meV     Z=       1.287458 lam=      -0.223276
     E(   4 )=  10.7196 eV   Re[Sigma]=       7.088411 meV Im[Sigma]=     530.163957 meV     Z=       1.287458 lam=      -0.223276
     -------------------------------------------------------------------


     ik =      13 coord.:    0.4400000   0.0000000   0.0000000
     -------------------------------------------------------------------
     E(   1 )=  -2.8223 eV   Re[Sigma]=    -231.392514 meV Im[Sigma]=     130.047773 meV     Z=       1.003417 lam=      -0.003405
     E(   2 )=   0.5863 eV   Re[Sigma]=      39.667680 meV Im[Sigma]=      95.144621 meV     Z=       0.997028 lam=       0.002981
     E(   3 )=  10.7392 eV   Re[Sigma]=      15.205603 meV Im[Sigma]=     533.486143 meV     Z=       1.283625 lam=      -0.220956
     E(   4 )=  10.7392 eV   Re[Sigma]=      15.205603 meV Im[Sigma]=     533.486143 meV     Z=       1.283625 lam=      -0.220956
     -------------------------------------------------------------------


     ik =      14 coord.:    0.4350000   0.0000000   0.0000000
     -------------------------------------------------------------------
     E(   1 )=  -2.9156 eV   Re[Sigma]=    -228.027606 meV Im[Sigma]=     106.939443 meV     Z=       0.993409 lam=       0.006635
     E(   2 )=   0.7288 eV   Re[Sigma]=      35.742708 meV Im[Sigma]=      83.882542 meV     Z=       0.993130 lam=       0.006917
     E(   3 )=  10.7605 eV   Re[Sigma]=      23.156675 meV Im[Sigma]=     535.730173 meV     Z=       1.277942 lam=      -0.217492
     E(   4 )=  10.7605 eV   Re[Sigma]=      23.156675 meV Im[Sigma]=     535.730173 meV     Z=       1.277942 lam=      -0.217492
     -------------------------------------------------------------------


     ik =      15 coord.:    0.4300000   0.0000000   0.0000000
     -------------------------------------------------------------------
     E(   1 )=  -3.0096 eV   Re[Sigma]=    -223.632209 meV Im[Sigma]=      87.754279 meV     Z=       0.987015 lam=       0.013156
     E(   2 )=   0.8756 eV   Re[Sigma]=      31.791001 meV Im[Sigma]=      74.780197 meV     Z=       0.990324 lam=       0.009771
     E(   3 )=  10.7833 eV   Re[Sigma]=      30.864124 meV Im[Sigma]=     536.962490 meV     Z=       1.271195 lam=      -0.213338
     E(   4 )=  10.7833 eV   Re[Sigma]=      30.864124 meV Im[Sigma]=     536.962490 meV     Z=       1.271195 lam=      -0.213338
     -------------------------------------------------------------------


     ik =      16 coord.:    0.4250000   0.0000000   0.0000000
     -------------------------------------------------------------------
     E(   1 )=  -3.1040 eV   Re[Sigma]=    -218.696906 meV Im[Sigma]=      72.499112 meV     Z=       0.983209 lam=       0.017078
     E(   2 )=   1.0267 eV   Re[Sigma]=      27.915770 meV Im[Sigma]=      67.426628 meV     Z=       0.988317 lam=       0.011821
     E(   3 )=  10.8076 eV   Re[Sigma]=      38.283720 meV Im[Sigma]=     537.293485 meV     Z=       1.264118 lam=      -0.208935
     E(   4 )=  10.8076 eV   Re[Sigma]=      38.283720 meV Im[Sigma]=     537.293485 meV     Z=       1.264118 lam=      -0.208935
     -------------------------------------------------------------------


     ik =      17 coord.:    0.4200000   0.0000000   0.0000000
     -------------------------------------------------------------------
     E(   1 )=  -3.1987 eV   Re[Sigma]=    -213.553788 meV Im[Sigma]=      60.860037 meV     Z=       0.981151 lam=       0.019211
     E(   2 )=   1.1816 eV   Re[Sigma]=      24.183921 meV Im[Sigma]=      61.531245 meV     Z=       0.986917 lam=       0.013256
     E(   3 )=  10.8335 eV   Re[Sigma]=      45.404128 meV Im[Sigma]=     536.871802 meV     Z=       1.257306 lam=      -0.204648
     E(   4 )=  10.8335 eV   Re[Sigma]=      45.404128 meV Im[Sigma]=     536.871802 meV     Z=       1.257306 lam=      -0.204648
     -------------------------------------------------------------------


     ik =      18 coord.:    0.4150000   0.0000000   0.0000000
     -------------------------------------------------------------------
     E(   1 )=  -3.2937 eV   Re[Sigma]=    -208.406659 meV Im[Sigma]=      52.299027 meV     Z=       0.980246 lam=       0.020152
     E(   2 )=   1.3404 eV   Re[Sigma]=      20.648031 meV Im[Sigma]=      56.903836 meV     Z=       0.985988 lam=       0.014211
     E(   3 )=  10.8608 eV   Re[Sigma]=      52.242462 meV Im[Sigma]=     535.875249 meV     Z=       1.251159 lam=      -0.200741
     E(   4 )=  10.8608 eV   Re[Sigma]=      52.242462 meV Im[Sigma]=     535.875249 meV     Z=       1.251159 lam=      -0.200741
     -------------------------------------------------------------------


     ik =      19 coord.:    0.4100000   0.0000000   0.0000000
     -------------------------------------------------------------------
     E(   1 )=  -3.3887 eV   Re[Sigma]=    -203.377829 meV Im[Sigma]=      46.188532 meV     Z=       0.980089 lam=       0.020315
     E(   2 )=   1.5028 eV   Re[Sigma]=      17.343103 meV Im[Sigma]=      53.295549 meV     Z=       0.985408 lam=       0.014808
     E(   3 )=  10.8897 eV   Re[Sigma]=      58.836687 meV Im[Sigma]=     534.498932 meV     Z=       1.245893 lam=      -0.197363
     E(   4 )=  10.8897 eV   Re[Sigma]=      58.836687 meV Im[Sigma]=     534.498932 meV     Z=       1.245893 lam=      -0.197363
     -------------------------------------------------------------------


     ik =      20 coord.:    0.4050000   0.0000000   0.0000000
     -------------------------------------------------------------------
     E(   1 )=  -3.4838 eV   Re[Sigma]=    -198.548613 meV Im[Sigma]=      41.927448 meV     Z=       0.980410 lam=       0.019981
     E(   2 )=   1.6686 eV   Re[Sigma]=      14.264336 meV Im[Sigma]=      50.413638 meV     Z=       0.985085 lam=       0.015141
     E(   3 )=  10.9199 eV   Re[Sigma]=      65.236985 meV Im[Sigma]=     532.941620 meV     Z=       1.241562 lam=      -0.194563
     E(   4 )=  10.9199 eV   Re[Sigma]=      65.236985 meV Im[Sigma]=     532.941620 meV     Z=       1.241562 lam=      -0.194563
     -------------------------------------------------------------------


     ik =      21 coord.:    0.4000000   0.0000000   0.0000000
     -------------------------------------------------------------------
     E(   1 )=  -3.5788 eV   Re[Sigma]=    -193.987698 meV Im[Sigma]=      39.010558 meV     Z=       0.981020 lam=       0.019347
     E(   2 )=   1.8378 eV   Re[Sigma]=      11.351005 meV Im[Sigma]=      48.020635 meV     Z=       0.984987 lam=       0.015242
     E(   3 )=  10.9515 eV   Re[Sigma]=      71.497637 meV Im[Sigma]=     531.391595 meV     Z=       1.238101 lam=      -0.192312
     E(   4 )=  10.9515 eV   Re[Sigma]=      71.497637 meV Im[Sigma]=     531.391595 meV     Z=       1.238101 lam=      -0.192312
     -------------------------------------------------------------------


     ik =      22 coord.:    0.3950000   0.0000000   0.0000000
     -------------------------------------------------------------------
     E(   1 )=  -3.6737 eV   Re[Sigma]=    -189.698135 meV Im[Sigma]=      37.051012 meV     Z=       0.981808 lam=       0.018530
     E(   2 )=   2.0103 eV   Re[Sigma]=       8.613761 meV Im[Sigma]=      46.182834 meV     Z=       0.985114 lam=       0.015110
     E(   3 )=  10.9845 eV   Re[Sigma]=      77.676008 meV Im[Sigma]=     530.013365 meV     Z=       1.235367 lam=      -0.190524
     E(   4 )=  10.9845 eV   Re[Sigma]=      77.676008 meV Im[Sigma]=     530.013365 meV     Z=       1.235367 lam=      -0.190524
     -------------------------------------------------------------------


     ik =      23 coord.:    0.3900000   0.0000000   0.0000000
     -------------------------------------------------------------------
     E(   1 )=  -3.7685 eV   Re[Sigma]=    -185.659197 meV Im[Sigma]=      35.770922 meV     Z=       0.982705 lam=       0.017599
     E(   2 )=   2.1858 eV   Re[Sigma]=       6.096344 meV Im[Sigma]=      44.894617 meV     Z=       0.985449 lam=       0.014766
     E(   3 )=  11.0188 eV   Re[Sigma]=      83.826281 meV Im[Sigma]=     528.936499 meV     Z=       1.233172 lam=      -0.189083
     E(   4 )=  11.0188 eV   Re[Sigma]=      83.826281 meV Im[Sigma]=     528.936499 meV     Z=       1.233172 lam=      -0.189083
     -------------------------------------------------------------------


     ik =      24 coord.:    0.3850000   0.0000000   0.0000000
     -------------------------------------------------------------------
     E(   1 )=  -3.8631 eV   Re[Sigma]=    -181.857388 meV Im[Sigma]=      34.977640 meV     Z=       0.983663 lam=       0.016608
     E(   2 )=   2.3644 eV   Re[Sigma]=       3.822423 meV Im[Sigma]=      43.990257 meV     Z=       0.985965 lam=       0.014235
     E(   3 )=  11.0543 eV   Re[Sigma]=      89.994498 meV Im[Sigma]=     528.247627 meV     Z=       1.231319 lam=      -0.187863
     E(   4 )=  11.0543 eV   Re[Sigma]=      89.994498 meV Im[Sigma]=     528.247627 meV     Z=       1.231319 lam=      -0.187863
     -------------------------------------------------------------------


     ik =      25 coord.:    0.3800000   0.0000000   0.0000000
     -------------------------------------------------------------------
     E(   1 )=  -3.9575 eV   Re[Sigma]=    -178.279117 meV Im[Sigma]=      34.538710 meV     Z=       0.984648 lam=       0.015592
     E(   2 )=   2.5459 eV   Re[Sigma]=       1.807940 meV Im[Sigma]=      43.216525 meV     Z=       0.986610 lam=       0.013571
     E(   3 )=  11.0911 eV   Re[Sigma]=      96.217670 meV Im[Sigma]=     527.986246 meV     Z=       1.229619 lam=      -0.186740
     E(   4 )=  11.0911 eV   Re[Sigma]=      96.217670 meV Im[Sigma]=     527.986246 meV     Z=       1.229619 lam=      -0.186740
     -------------------------------------------------------------------


     ik =      26 coord.:    0.3750000   0.0000000   0.0000000
     -------------------------------------------------------------------
     E(   1 )=  -4.0516 eV   Re[Sigma]=    -174.909507 meV Im[Sigma]=      34.361718 meV     Z=       0.985636 lam=       0.014574
     E(   2 )=   2.7301 eV   Re[Sigma]=       0.053782 meV Im[Sigma]=      42.277500 meV     Z=       0.987245 lam=       0.012919
     E(   3 )=  11.1291 eV   Re[Sigma]=     102.523420 meV Im[Sigma]=     528.144627 meV     Z=       1.227909 lam=      -0.185608
     E(   4 )=  11.1291 eV   Re[Sigma]=     102.523420 meV Im[Sigma]=     528.144627 meV     Z=       1.227909 lam=      -0.185608
     -------------------------------------------------------------------


     ik =      27 coord.:    0.3700000   0.0000000   0.0000000
     -------------------------------------------------------------------
     E(   1 )=  -4.1455 eV   Re[Sigma]=    -171.733234 meV Im[Sigma]=      34.380375 meV     Z=       0.986611 lam=       0.013571
     E(   2 )=   2.9170 eV   Re[Sigma]=      -1.485898 meV Im[Sigma]=      40.919019 meV     Z=       0.987551 lam=       0.012606
     E(   3 )=  11.1682 eV   Re[Sigma]=     108.930076 meV Im[Sigma]=     528.671759 meV     Z=       1.226055 lam=      -0.184376
     E(   4 )=  11.1682 eV   Re[Sigma]=     108.930076 meV Im[Sigma]=     528.671759 meV     Z=       1.226055 lam=      -0.184376
     -------------------------------------------------------------------


     ik =      28 coord.:    0.3650000   0.0000000   0.0000000
     -------------------------------------------------------------------
     E(   1 )=  -4.2390 eV   Re[Sigma]=    -168.735278 meV Im[Sigma]=      34.545743 meV     Z=       0.987565 lam=       0.012592
     E(   2 )=   3.1065 eV   Re[Sigma]=      -2.950843 meV Im[Sigma]=      39.050020 meV     Z=       0.987055 lam=       0.013115
     E(   3 )=  11.2084 eV   Re[Sigma]=     115.447043 meV Im[Sigma]=     529.481010 meV     Z=       1.223958 lam=      -0.182979
     E(   4 )=  11.2084 eV   Re[Sigma]=     115.447043 meV Im[Sigma]=     529.481010 meV     Z=       1.223958 lam=      -0.182979
     -------------------------------------------------------------------


     ik =      29 coord.:    0.3600000   0.0000000   0.0000000
     -------------------------------------------------------------------
     E(   1 )=  -4.3322 eV   Re[Sigma]=    -165.901391 meV Im[Sigma]=      34.820950 meV     Z=       0.988490 lam=       0.011644
     E(   2 )=   3.2984 eV   Re[Sigma]=      -4.577357 meV Im[Sigma]=      36.842046 meV     Z=       0.985542 lam=       0.014670
     E(   3 )=  11.2497 eV   Re[Sigma]=     122.075189 meV Im[Sigma]=     530.460936 meV     Z=       1.221550 lam=      -0.181368
     E(   4 )=  11.2497 eV   Re[Sigma]=     122.075189 meV Im[Sigma]=     530.460936 meV     Z=       1.221550 lam=      -0.181368
     -------------------------------------------------------------------


     ik =      30 coord.:    0.3550000   0.0000000   0.0000000
     -------------------------------------------------------------------
     E(   1 )=  -4.4250 eV   Re[Sigma]=    -163.218361 meV Im[Sigma]=      35.177968 meV     Z=       0.989385 lam=       0.010729
     E(   2 )=   3.4925 eV   Re[Sigma]=      -6.571421 meV Im[Sigma]=      34.727321 meV     Z=       0.983590 lam=       0.016683
     E(   3 )=  11.2920 eV   Re[Sigma]=     128.807033 meV Im[Sigma]=     531.488216 meV     Z=       1.218790 lam=      -0.179514
     E(   4 )=  11.2920 eV   Re[Sigma]=     128.807033 meV Im[Sigma]=     531.488216 meV     Z=       1.218790 lam=      -0.179514
     -------------------------------------------------------------------


     ik =      31 coord.:    0.3500000   0.0000000   0.0000000
     -------------------------------------------------------------------
     E(   1 )=  -4.5173 eV   Re[Sigma]=    -160.674149 meV Im[Sigma]=      35.595529 meV     Z=       0.990247 lam=       0.009849
     E(   2 )=   3.6889 eV   Re[Sigma]=      -8.931166 meV Im[Sigma]=      33.255705 meV     Z=       0.982250 lam=       0.018070
     E(   3 )=  11.3352 eV   Re[Sigma]=     135.627005 meV Im[Sigma]=     532.441090 meV     Z=       1.215663 lam=      -0.177404
     E(   4 )=  11.3352 eV   Re[Sigma]=     135.627005 meV Im[Sigma]=     532.441090 meV     Z=       1.215663 lam=      -0.177404
     -------------------------------------------------------------------


     ik =      32 coord.:    0.3450000   0.0000000   0.0000000
     -------------------------------------------------------------------
     E(   1 )=  -4.6092 eV   Re[Sigma]=    -158.257929 meV Im[Sigma]=      36.057641 meV     Z=       0.991079 lam=       0.009002
     E(   2 )=   3.8873 eV   Re[Sigma]=     -11.427056 meV Im[Sigma]=      32.861786 meV     Z=       0.982190 lam=       0.018133
     E(   3 )=  11.3793 eV   Re[Sigma]=     142.513002 meV Im[Sigma]=     533.210870 meV     Z=       1.212193 lam=      -0.175049
     E(   4 )=  11.3793 eV   Re[Sigma]=     142.513002 meV Im[Sigma]=     533.210870 meV     Z=       1.212193 lam=      -0.175049
     -------------------------------------------------------------------


     ik =      33 coord.:    0.3400000   0.0000000   0.0000000
     -------------------------------------------------------------------
     E(   1 )=  -4.7005 eV   Re[Sigma]=    -155.960083 meV Im[Sigma]=      36.552426 meV     Z=       0.991880 lam=       0.008186
     E(   2 )=   4.0875 eV   Re[Sigma]=     -13.740362 meV Im[Sigma]=      33.669779 meV     Z=       0.983383 lam=       0.016898
     E(   3 )=  11.4243 eV   Re[Sigma]=     149.441245 meV Im[Sigma]=     533.708810 meV     Z=       1.208464 lam=      -0.172503
     E(   4 )=  11.4243 eV   Re[Sigma]=     149.441245 meV Im[Sigma]=     533.708810 meV     Z=       1.208464 lam=      -0.172503
     -------------------------------------------------------------------


     ik =      34 coord.:    0.3350000   0.0000000   0.0000000
     -------------------------------------------------------------------
     E(   1 )=  -4.7914 eV   Re[Sigma]=    -153.772121 meV Im[Sigma]=      37.071097 meV     Z=       0.992655 lam=       0.007399
     E(   2 )=   4.2895 eV   Re[Sigma]=     -15.629601 meV Im[Sigma]=      35.453505 meV     Z=       0.985197 lam=       0.015026
     E(   3 )=  11.4701 eV   Re[Sigma]=     156.394327 meV Im[Sigma]=     533.866284 meV     Z=       1.204616 lam=      -0.169860
     E(   4 )=  11.4701 eV   Re[Sigma]=     156.394327 meV Im[Sigma]=     533.866284 meV     Z=       1.204616 lam=      -0.169860
     -------------------------------------------------------------------


     ik =      35 coord.:    0.3300000   0.0000000   0.0000000
     -------------------------------------------------------------------
     E(   1 )=  -4.8816 eV   Re[Sigma]=    -151.686045 meV Im[Sigma]=      37.606980 meV     Z=       0.993407 lam=       0.006637
     E(   2 )=   4.4931 eV   Re[Sigma]=     -17.040405 meV Im[Sigma]=      37.768440 meV     Z=       0.986801 lam=       0.013375
     E(   3 )=  11.5167 eV   Re[Sigma]=     163.366970 meV Im[Sigma]=     533.628316 meV     Z=       1.200796 lam=      -0.167219
     E(   4 )=  11.5167 eV   Re[Sigma]=     163.366970 meV Im[Sigma]=     533.628316 meV     Z=       1.200796 lam=      -0.167219
     -------------------------------------------------------------------


     ik =      36 coord.:    0.3250000   0.0000000   0.0000000
     -------------------------------------------------------------------
     E(   1 )=  -4.9711 eV   Re[Sigma]=    -149.685030 meV Im[Sigma]=      38.154482 meV     Z=       0.994142 lam=       0.005892
     E(   2 )=   4.6981 eV   Re[Sigma]=     -18.061745 meV Im[Sigma]=      40.162460 meV     Z=       0.987797 lam=       0.012353
     E(   3 )=  11.5640 eV   Re[Sigma]=     170.366149 meV Im[Sigma]=     532.943110 meV     Z=       1.197092 lam=      -0.164643
     E(   4 )=  11.5640 eV   Re[Sigma]=     170.366149 meV Im[Sigma]=     532.943110 meV     Z=       1.197092 lam=      -0.164643
     -------------------------------------------------------------------


     ik =      37 coord.:    0.3200000   0.0000000   0.0000000
     -------------------------------------------------------------------
     E(   1 )=  -5.0600 eV   Re[Sigma]=    -147.732955 meV Im[Sigma]=      38.707927 meV     Z=       0.994875 lam=       0.005152
     E(   2 )=   4.9045 eV   Re[Sigma]=     -18.784994 meV Im[Sigma]=      42.339333 meV     Z=       0.988291 lam=       0.011848
     E(   3 )=  11.6119 eV   Re[Sigma]=     177.407630 meV Im[Sigma]=     531.752000 meV     Z=       1.193538 lam=      -0.162155
     E(   4 )=  11.6119 eV   Re[Sigma]=     177.407630 meV Im[Sigma]=     531.752000 meV     Z=       1.193538 lam=      -0.162155
     -------------------------------------------------------------------


     ik =      38 coord.:    0.3150000   0.0000000   0.0000000
     -------------------------------------------------------------------
     E(   1 )=  -5.1482 eV   Re[Sigma]=    -145.887777 meV Im[Sigma]=      39.260192 meV     Z=       0.995585 lam=       0.004435
     E(   2 )=   5.1119 eV   Re[Sigma]=     -19.364283 meV Im[Sigma]=      44.206643 meV     Z=       0.988551 lam=       0.011582
     E(   3 )=  11.6604 eV   Re[Sigma]=     184.478135 meV Im[Sigma]=     529.983769 meV     Z=       1.190140 lam=      -0.159762
     E(   4 )=  11.6604 eV   Re[Sigma]=     184.478135 meV Im[Sigma]=     529.983769 meV     Z=       1.190140 lam=      -0.159762
     -------------------------------------------------------------------


     ik =      39 coord.:    0.3100000   0.0000000   0.0000000
     -------------------------------------------------------------------
     E(   1 )=  -5.2355 eV   Re[Sigma]=    -144.146362 meV Im[Sigma]=      39.801147 meV     Z=       0.996276 lam=       0.003738
     E(   2 )=   5.3204 eV   Re[Sigma]=     -19.827783 meV Im[Sigma]=      45.824943 meV     Z=       0.988735 lam=       0.011394
     E(   3 )=  11.7095 eV   Re[Sigma]=     191.575043 meV Im[Sigma]=     527.554752 meV     Z=       1.186885 lam=      -0.157458
     E(   4 )=  11.7095 eV   Re[Sigma]=     191.575043 meV Im[Sigma]=     527.554752 meV     Z=       1.186885 lam=      -0.157458
     -------------------------------------------------------------------


     ik =      40 coord.:    0.3050000   0.0000000   0.0000000
     -------------------------------------------------------------------
     E(   1 )=  -5.3221 eV   Re[Sigma]=    -142.490038 meV Im[Sigma]=      40.315972 meV     Z=       0.996953 lam=       0.003056
     E(   2 )=   5.5296 eV   Re[Sigma]=     -20.160382 meV Im[Sigma]=      47.320658 meV     Z=       0.988908 lam=       0.011217
     E(   3 )=  11.7590 eV   Re[Sigma]=     198.696281 meV Im[Sigma]=     524.373320 meV     Z=       1.183747 lam=      -0.155225
     E(   4 )=  11.7590 eV   Re[Sigma]=     198.696281 meV Im[Sigma]=     524.373320 meV     Z=       1.183747 lam=      -0.155225
     -------------------------------------------------------------------


     ik =      41 coord.:    0.3000000   0.0000000   0.0000000
     -------------------------------------------------------------------
     E(   1 )=  -5.4077 eV   Re[Sigma]=    -140.910944 meV Im[Sigma]=      40.783573 meV     Z=       0.997617 lam=       0.002388
     E(   2 )=   5.7395 eV   Re[Sigma]=     -20.349756 meV Im[Sigma]=      48.816771 meV     Z=       0.989096 lam=       0.011024
     E(   3 )=  11.8091 eV   Re[Sigma]=     205.832015 meV Im[Sigma]=     520.346036 meV     Z=       1.180682 lam=      -0.153032
     E(   4 )=  11.8091 eV   Re[Sigma]=     205.832015 meV Im[Sigma]=     520.346036 meV     Z=       1.180682 lam=      -0.153032
     -------------------------------------------------------------------


     ik =      42 coord.:    0.2950000   0.0000000   0.0000000
     -------------------------------------------------------------------
     E(   1 )=  -5.4925 eV   Re[Sigma]=    -139.403519 meV Im[Sigma]=      41.175490 meV     Z=       0.998265 lam=       0.001738
     E(   2 )=   5.9499 eV   Re[Sigma]=     -20.382136 meV Im[Sigma]=      50.401257 meV     Z=       0.989311 lam=       0.010804
     E(   3 )=  11.8595 eV   Re[Sigma]=     212.965819 meV Im[Sigma]=     515.383595 meV     Z=       1.177618 lam=      -0.150828
     E(   4 )=  11.8595 eV   Re[Sigma]=     212.965819 meV Im[Sigma]=     515.383595 meV     Z=       1.177618 lam=      -0.150828
     -------------------------------------------------------------------


     ik =      43 coord.:    0.2900000   0.0000000   0.0000000
     -------------------------------------------------------------------
     E(   1 )=  -5.5762 eV   Re[Sigma]=    -137.962485 meV Im[Sigma]=      41.455812 meV     Z=       0.998889 lam=       0.001112
     E(   2 )=   6.1606 eV   Re[Sigma]=     -20.241947 meV Im[Sigma]=      52.126185 meV     Z=       0.989562 lam=       0.010548
     E(   3 )=  11.9102 eV   Re[Sigma]=     220.073350 meV Im[Sigma]=     509.406425 meV     Z=       1.174449 lam=      -0.148537
     E(   4 )=  11.9102 eV   Re[Sigma]=     220.073350 meV Im[Sigma]=     509.406425 meV     Z=       1.174449 lam=      -0.148537
     -------------------------------------------------------------------


     ik =      44 coord.:    0.2850000   0.0000000   0.0000000
     -------------------------------------------------------------------
     E(   1 )=  -5.6589 eV   Re[Sigma]=    -136.581079 meV Im[Sigma]=      41.582664 meV     Z=       0.999474 lam=       0.000526
     E(   2 )=   6.3714 eV   Re[Sigma]=     -19.910641 meV Im[Sigma]=      54.021412 meV     Z=       0.989858 lam=       0.010246
     E(   3 )=  11.9612 eV   Re[Sigma]=     227.120317 meV Im[Sigma]=     502.350904 meV     Z=       1.171033 lam=      -0.146053
     E(   4 )=  11.9612 eV   Re[Sigma]=     227.120317 meV Im[Sigma]=     502.350904 meV     Z=       1.171033 lam=      -0.146053
     -------------------------------------------------------------------


     ik =      45 coord.:    0.2800000   0.0000000   0.0000000
     -------------------------------------------------------------------
     E(   1 )=  -5.7406 eV   Re[Sigma]=    -135.250209 meV Im[Sigma]=      41.511701 meV     Z=       0.999999 lam=       0.000001
     E(   2 )=   6.5822 eV   Re[Sigma]=     -19.366130 meV Im[Sigma]=      56.109313 meV     Z=       0.990211 lam=       0.009886
     E(   3 )=  12.0125 eV   Re[Sigma]=     234.059667 meV Im[Sigma]=     494.177077 meV     Z=       1.167192 lam=      -0.143243
     E(   4 )=  12.0125 eV   Re[Sigma]=     234.059667 meV Im[Sigma]=     494.177077 meV     Z=       1.167192 lam=      -0.143243
     -------------------------------------------------------------------


     ik =      46 coord.:    0.2750000   0.0000000   0.0000000
     -------------------------------------------------------------------
     E(   1 )=  -5.8211 eV   Re[Sigma]=    -133.957456 meV Im[Sigma]=      41.201656 meV     Z=       1.000432 lam=      -0.000431
     E(   2 )=   6.7928 eV   Re[Sigma]=     -18.582415 meV Im[Sigma]=      58.409506 meV     Z=       0.990636 lam=       0.009453
     E(   3 )=  12.0639 eV   Re[Sigma]=     240.828908 meV Im[Sigma]=     484.877762 meV     Z=       1.162716 lam=      -0.139945
     E(   4 )=  12.0639 eV   Re[Sigma]=     240.828908 meV Im[Sigma]=     484.877762 meV     Z=       1.162716 lam=      -0.139945
     -------------------------------------------------------------------


     ik =      47 coord.:    0.2700000   0.0000000   0.0000000
     -------------------------------------------------------------------
     E(   1 )=  -5.9005 eV   Re[Sigma]=    -132.684945 meV Im[Sigma]=      40.621424 meV     Z=       1.000727 lam=      -0.000726
     E(   2 )=   7.0031 eV   Re[Sigma]=     -17.531394 meV Im[Sigma]=      60.915716 meV     Z=       0.991138 lam=       0.008941
     E(   3 )=  12.1154 eV   Re[Sigma]=     247.348305 meV Im[Sigma]=     474.487931 meV     Z=       1.157388 lam=      -0.135985
     E(   4 )=  12.1154 eV   Re[Sigma]=     247.348305 meV Im[Sigma]=     474.487931 meV     Z=       1.157388 lam=      -0.135985
     -------------------------------------------------------------------


     ik =      48 coord.:    0.2650000   0.0000000   0.0000000
     -------------------------------------------------------------------
     E(   1 )=  -5.9786 eV   Re[Sigma]=    -131.407568 meV Im[Sigma]=      39.757515 meV     Z=       1.000833 lam=      -0.000832
     E(   2 )=   7.2127 eV   Re[Sigma]=     -16.192075 meV Im[Sigma]=      63.512920 meV     Z=       0.991691 lam=       0.008379
     E(   3 )=  12.1670 eV   Re[Sigma]=     253.521101 meV Im[Sigma]=     463.092664 meV     Z=       1.151015 lam=      -0.131202
     E(   4 )=  12.1670 eV   Re[Sigma]=     253.521101 meV Im[Sigma]=     463.092664 meV     Z=       1.151015 lam=      -0.131202
     -------------------------------------------------------------------


     ik =      49 coord.:    0.2600000   0.0000000   0.0000000
     -------------------------------------------------------------------
     E(   1 )=  -6.0555 eV   Re[Sigma]=    -130.095015 meV Im[Sigma]=      38.620220 meV     Z=       1.000696 lam=      -0.000696
     E(   2 )=   7.4217 eV   Re[Sigma]=     -14.579771 meV Im[Sigma]=      65.844330 meV     Z=       0.992178 lam=       0.007884
     E(   3 )=  12.2187 eV   Re[Sigma]=     259.236033 meV Im[Sigma]=     450.831874 meV     Z=       1.143487 lam=      -0.125482
     E(   4 )=  12.2187 eV   Re[Sigma]=     259.236033 meV Im[Sigma]=     450.831874 meV     Z=       1.143487 lam=      -0.125482
     -------------------------------------------------------------------


     ik =      50 coord.:    0.2550000   0.0000000   0.0000000
     -------------------------------------------------------------------
     E(   1 )=  -6.1311 eV   Re[Sigma]=    -128.708130 meV Im[Sigma]=      37.246723 meV     Z=       1.000287 lam=      -0.000287
     E(   2 )=   7.6298 eV   Re[Sigma]=     -12.799493 meV Im[Sigma]=      67.322035 meV     Z=       0.992370 lam=       0.007689
     E(   3 )=  12.2703 eV   Re[Sigma]=     264.376830 meV Im[Sigma]=     437.900363 meV     Z=       1.134832 lam=      -0.118812
     E(   4 )=  12.2703 eV   Re[Sigma]=     264.376830 meV Im[Sigma]=     437.900363 meV     Z=       1.134832 lam=      -0.118812
     -------------------------------------------------------------------


     ik =      51 coord.:    0.2500000   0.0000000   0.0000000
     -------------------------------------------------------------------
     E(   1 )=  -6.2054 eV   Re[Sigma]=    -127.210651 meV Im[Sigma]=      35.699856 meV     Z=       0.999624 lam=       0.000376
     E(   2 )=   7.8368 eV   Re[Sigma]=     -11.109831 meV Im[Sigma]=      67.543659 meV     Z=       0.992041 lam=       0.008023
     E(   3 )=  12.3218 eV   Re[Sigma]=     268.833385 meV Im[Sigma]=     424.542382 meV     Z=       1.125264 lam=      -0.111320
     E(   4 )=  12.3218 eV   Re[Sigma]=     268.833385 meV Im[Sigma]=     424.542382 meV     Z=       1.125264 lam=      -0.111320
     -------------------------------------------------------------------


     ik =      52 coord.:    0.2450000   0.0000000   0.0000000
     -------------------------------------------------------------------
     E(   1 )=  -6.2783 eV   Re[Sigma]=    -125.573570 meV Im[Sigma]=      34.062137 meV     Z=       0.998795 lam=       0.001206
     E(   2 )=   8.0426 eV   Re[Sigma]=      -9.831620 meV Im[Sigma]=      66.811303 meV     Z=       0.991447 lam=       0.008627
     E(   3 )=  12.3732 eV   Re[Sigma]=     272.519319 meV Im[Sigma]=     411.040695 meV     Z=       1.115195 lam=      -0.103296
     E(   4 )=  12.3732 eV   Re[Sigma]=     272.519319 meV Im[Sigma]=     411.040695 meV     Z=       1.115195 lam=      -0.103296
     -------------------------------------------------------------------


     ik =      53 coord.:    0.2400000   0.0000000   0.0000000
     -------------------------------------------------------------------
     E(   1 )=  -6.3498 eV   Re[Sigma]=    -123.783970 meV Im[Sigma]=      32.425946 meV     Z=       0.997941 lam=       0.002063
     E(   2 )=   8.2470 eV   Re[Sigma]=      -8.979754 meV Im[Sigma]=      65.941700 meV     Z=       0.991074 lam=       0.009006
     E(   3 )=  12.4244 eV   Re[Sigma]=     275.388027 meV Im[Sigma]=     397.701009 meV     Z=       1.105169 lam=      -0.095161
     E(   4 )=  12.4244 eV   Re[Sigma]=     275.388027 meV Im[Sigma]=     397.701009 meV     Z=       1.105169 lam=      -0.095161
     -------------------------------------------------------------------


     ik =      54 coord.:    0.2350000   0.0000000   0.0000000
     -------------------------------------------------------------------
     E(   1 )=  -6.4198 eV   Re[Sigma]=    -121.854509 meV Im[Sigma]=      30.881773 meV     Z=       0.997208 lam=       0.002800
     E(   2 )=   8.4498 eV   Re[Sigma]=      -8.402492 meV Im[Sigma]=      65.482292 meV     Z=       0.990180 lam=       0.009917
     E(   3 )=  12.4753 eV   Re[Sigma]=     277.441275 meV Im[Sigma]=     384.833414 meV     Z=       1.095767 lam=      -0.087397
     E(   4 )=  12.4753 eV   Re[Sigma]=     277.441275 meV Im[Sigma]=     384.833414 meV     Z=       1.095767 lam=      -0.087397
     -------------------------------------------------------------------


     ik =      55 coord.:    0.2300000   0.0000000   0.0000000
     -------------------------------------------------------------------
     E(   1 )=  -6.4884 eV   Re[Sigma]=    -119.813737 meV Im[Sigma]=      29.506999 meV     Z=       0.996691 lam=       0.003320
     E(   2 )=   8.6509 eV   Re[Sigma]=      -8.167178 meV Im[Sigma]=      65.455539 meV     Z=       0.988501 lam=       0.011632
     E(   3 )=  12.5260 eV   Re[Sigma]=     278.731217 meV Im[Sigma]=     372.732948 meV     Z=       1.087478 lam=      -0.080441
     E(   4 )=  12.5260 eV   Re[Sigma]=     278.731217 meV Im[Sigma]=     372.732948 meV     Z=       1.087478 lam=      -0.080441
     -------------------------------------------------------------------


     ik =      56 coord.:    0.2250000   0.0000000   0.0000000
     -------------------------------------------------------------------
     E(   1 )=  -6.5554 eV   Re[Sigma]=    -117.697765 meV Im[Sigma]=      28.357508 meV     Z=       0.996419 lam=       0.003594
     E(   2 )=   8.8501 eV   Re[Sigma]=      -8.337698 meV Im[Sigma]=      65.842590 meV     Z=       0.986820 lam=       0.013356
     E(   3 )=  12.5763 eV   Re[Sigma]=     279.350779 meV Im[Sigma]=     361.661583 meV     Z=       1.080625 lam=      -0.074610
     E(   4 )=  12.5763 eV   Re[Sigma]=     279.350779 meV Im[Sigma]=     361.661583 meV     Z=       1.080625 lam=      -0.074610
     -------------------------------------------------------------------


     ik =      57 coord.:    0.2200000   0.0000000   0.0000000
     -------------------------------------------------------------------
     E(   1 )=  -6.6209 eV   Re[Sigma]=    -115.545433 meV Im[Sigma]=      27.463587 meV     Z=       0.996366 lam=       0.003648
     E(   2 )=   9.0473 eV   Re[Sigma]=      -8.814840 meV Im[Sigma]=      66.943538 meV     Z=       0.985762 lam=       0.014444
     E(   3 )=  12.6263 eV   Re[Sigma]=     279.416714 meV Im[Sigma]=     351.833666 meV     Z=       1.075339 lam=      -0.070061
     E(   4 )=  12.6263 eV   Re[Sigma]=     279.416714 meV Im[Sigma]=     351.833666 meV     Z=       1.075339 lam=      -0.070061
     -------------------------------------------------------------------


     ik =      58 coord.:    0.2150000   0.0000000   0.0000000
     -------------------------------------------------------------------
     E(   1 )=  -6.6849 eV   Re[Sigma]=    -113.386957 meV Im[Sigma]=      26.830406 meV     Z=       0.996483 lam=       0.003530
     E(   2 )=   9.2422 eV   Re[Sigma]=      -9.425314 meV Im[Sigma]=      69.255803 meV     Z=       0.985421 lam=       0.014794
     E(   3 )=  12.6758 eV   Re[Sigma]=     279.054536 meV Im[Sigma]=     343.406286 meV     Z=       1.071589 lam=      -0.066806
     E(   4 )=  12.6758 eV   Re[Sigma]=     279.054536 meV Im[Sigma]=     343.406286 meV     Z=       1.071589 lam=      -0.066806
     -------------------------------------------------------------------


     ik =      59 coord.:    0.2100000   0.0000000   0.0000000
     -------------------------------------------------------------------
     E(   1 )=  -6.7473 eV   Re[Sigma]=    -111.243249 meV Im[Sigma]=      26.442253 meV     Z=       0.996720 lam=       0.003291
     E(   2 )=   9.4348 eV   Re[Sigma]=     -10.015882 meV Im[Sigma]=      73.228329 meV     Z=       0.985705 lam=       0.014502
     E(   3 )=  12.7249 eV   Re[Sigma]=     278.384843 meV Im[Sigma]=     336.475277 meV     Z=       1.069235 lam=      -0.064752
     E(   4 )=  12.7249 eV   Re[Sigma]=     278.384843 meV Im[Sigma]=     336.475277 meV     Z=       1.069235 lam=      -0.064752
     -------------------------------------------------------------------


     ik =      60 coord.:    0.2050000   0.0000000   0.0000000
     -------------------------------------------------------------------
     E(   1 )=  -6.8081 eV   Re[Sigma]=    -109.131535 meV Im[Sigma]=      26.269006 meV     Z=       0.997034 lam=       0.002974
     E(   2 )=   9.6249 eV   Re[Sigma]=     -10.464346 meV Im[Sigma]=      79.159581 meV     Z=       0.986607 lam=       0.013575
     E(   3 )=  12.7734 eV   Re[Sigma]=     277.513383 meV Im[Sigma]=     331.076732 meV     Z=       1.068088 lam=      -0.063747
     E(   4 )=  12.7734 eV   Re[Sigma]=     277.513383 meV Im[Sigma]=     331.076732 meV     Z=       1.068088 lam=      -0.063747
     -------------------------------------------------------------------


     ik =      61 coord.:    0.2000000   0.0000000   0.0000000
     -------------------------------------------------------------------
     E(   1 )=  -6.8672 eV   Re[Sigma]=    -107.061536 meV Im[Sigma]=      26.273139 meV     Z=       0.997395 lam=       0.002611
     E(   2 )=   9.8124 eV   Re[Sigma]=     -10.647104 meV Im[Sigma]=      87.199060 meV     Z=       0.988286 lam=       0.011853
     E(   3 )=  12.8214 eV   Re[Sigma]=     276.528717 meV Im[Sigma]=     327.193263 meV     Z=       1.067944 lam=      -0.063621
     E(   4 )=  12.8214 eV   Re[Sigma]=     276.528717 meV Im[Sigma]=     327.193263 meV     Z=       1.067944 lam=      -0.063621
     -------------------------------------------------------------------


     ik =      62 coord.:    0.1950000   0.0000000   0.0000000
     -------------------------------------------------------------------
     E(   1 )=  -6.9248 eV   Re[Sigma]=    -105.037168 meV Im[Sigma]=      26.415869 meV     Z=       0.997782 lam=       0.002223
     E(   2 )=   9.9970 eV   Re[Sigma]=     -10.406475 meV Im[Sigma]=      97.345574 meV     Z=       0.991050 lam=       0.009030
     E(   3 )=  12.8687 eV   Re[Sigma]=     275.501892 meV Im[Sigma]=     324.763712 meV     Z=       1.068618 lam=      -0.064212
     E(   4 )=  12.8687 eV   Re[Sigma]=     275.501892 meV Im[Sigma]=     324.763712 meV     Z=       1.068618 lam=      -0.064212
     -------------------------------------------------------------------


     ik =      63 coord.:    0.1900000   0.0000000   0.0000000
     -------------------------------------------------------------------
     E(   1 )=  -6.9806 eV   Re[Sigma]=    -103.063322 meV Im[Sigma]=      26.661631 meV     Z=       0.998179 lam=       0.001824
     E(   2 )=  10.1787 eV   Re[Sigma]=      -9.533227 meV Im[Sigma]=     109.414583 meV     Z=       0.995283 lam=       0.004740
     E(   3 )=  12.9154 eV   Re[Sigma]=     274.486473 meV Im[Sigma]=     323.694851 meV     Z=       1.069949 lam=      -0.065376
     E(   4 )=  12.9154 eV   Re[Sigma]=     274.486473 meV Im[Sigma]=     323.694851 meV     Z=       1.069949 lam=      -0.065376
     -------------------------------------------------------------------


     ik =      64 coord.:    0.1850000   0.0000000   0.0000000
     -------------------------------------------------------------------
     E(   1 )=  -7.0349 eV   Re[Sigma]=    -101.141740 meV Im[Sigma]=      26.980647 meV     Z=       0.998579 lam=       0.001423
     E(   2 )=  10.3573 eV   Re[Sigma]=      -7.775003 meV Im[Sigma]=     123.012370 meV     Z=       1.001232 lam=      -0.001230
     E(   3 )=  12.9614 eV   Re[Sigma]=     273.522386 meV Im[Sigma]=     323.873655 meV     Z=       1.071808 lam=      -0.066997
     E(   4 )=  12.9614 eV   Re[Sigma]=     273.522386 meV Im[Sigma]=     323.873655 meV     Z=       1.071808 lam=      -0.066997
     -------------------------------------------------------------------


     ik =      65 coord.:    0.1800000   0.0000000   0.0000000
     -------------------------------------------------------------------
     E(   1 )=  -7.0875 eV   Re[Sigma]=     -99.270757 meV Im[Sigma]=      27.349836 meV     Z=       0.998976 lam=       0.001025
     E(   2 )=  10.5327 eV   Re[Sigma]=      -4.895372 meV Im[Sigma]=     137.562585 meV     Z=       1.008692 lam=      -0.008617
     E(   3 )=  13.0067 eV   Re[Sigma]=     272.638882 meV Im[Sigma]=     325.178885 meV     Z=       1.074092 lam=      -0.068981
     E(   4 )=  13.0067 eV   Re[Sigma]=     272.638882 meV Im[Sigma]=     325.178885 meV     Z=       1.074092 lam=      -0.068981
     -------------------------------------------------------------------


     ik =      66 coord.:    0.1750000   0.0000000   0.0000000
     -------------------------------------------------------------------
     E(   1 )=  -7.1384 eV   Re[Sigma]=     -97.451771 meV Im[Sigma]=      27.752537 meV     Z=       0.999367 lam=       0.000634
     E(   2 )=  10.7047 eV   Re[Sigma]=      -0.779082 meV Im[Sigma]=     152.400594 meV     Z=       1.016795 lam=      -0.016518
     E(   3 )=  13.0512 eV   Re[Sigma]=     271.855196 meV Im[Sigma]=     327.491079 meV     Z=       1.076725 lam=      -0.071257
     E(   4 )=  13.0512 eV   Re[Sigma]=     271.855196 meV Im[Sigma]=     327.491079 meV     Z=       1.076725 lam=      -0.071257
     -------------------------------------------------------------------


     ik =      67 coord.:    0.1700000   0.0000000   0.0000000
     -------------------------------------------------------------------
     E(   1 )=  -7.1876 eV   Re[Sigma]=     -95.684661 meV Im[Sigma]=      28.177553 meV     Z=       0.999750 lam=       0.000250
     E(   2 )=  10.8733 eV   Re[Sigma]=       4.485352 meV Im[Sigma]=     166.913212 meV     Z=       1.024291 lam=      -0.023715
     E(   3 )=  13.0949 eV   Re[Sigma]=     271.183886 meV Im[Sigma]=     330.700314 meV     Z=       1.079649 lam=      -0.073773
     E(   4 )=  13.0949 eV   Re[Sigma]=     271.183886 meV Im[Sigma]=     330.700314 meV     Z=       1.079649 lam=      -0.073773
     -------------------------------------------------------------------


     ik =      68 coord.:    0.1650000   0.0000000   0.0000000
     -------------------------------------------------------------------
     E(   1 )=  -7.2352 eV   Re[Sigma]=     -93.966446 meV Im[Sigma]=      28.617966 meV     Z=       1.000126 lam=      -0.000126
     E(   2 )=  11.0383 eV   Re[Sigma]=      10.620662 meV Im[Sigma]=     180.676562 meV     Z=       1.030240 lam=      -0.029352
     E(   3 )=  13.1377 eV   Re[Sigma]=     270.632956 meV Im[Sigma]=     334.711381 meV     Z=       1.082825 lam=      -0.076490
     E(   4 )=  13.1377 eV   Re[Sigma]=     270.632956 meV Im[Sigma]=     334.711381 meV     Z=       1.082825 lam=      -0.076490
     -------------------------------------------------------------------


     ik =      69 coord.:    0.1600000   0.0000000   0.0000000
     -------------------------------------------------------------------
     E(   1 )=  -7.2811 eV   Re[Sigma]=     -92.297954 meV Im[Sigma]=      29.069983 meV     Z=       1.000495 lam=      -0.000495
     E(   2 )=  11.1995 eV   Re[Sigma]=      17.266561 meV Im[Sigma]=     193.542208 meV     Z=       1.034438 lam=      -0.033292
     E(   3 )=  13.1797 eV   Re[Sigma]=     270.205215 meV Im[Sigma]=     339.446302 meV     Z=       1.086227 lam=      -0.079382
     E(   4 )=  13.1797 eV   Re[Sigma]=     270.205215 meV Im[Sigma]=     339.446302 meV     Z=       1.086227 lam=      -0.079382
     -------------------------------------------------------------------


     ik =      70 coord.:    0.1550000   0.0000000   0.0000000
     -------------------------------------------------------------------
     E(   1 )=  -7.3253 eV   Re[Sigma]=     -90.678658 meV Im[Sigma]=      29.531976 meV     Z=       1.000857 lam=      -0.000857
     E(   2 )=  11.3569 eV   Re[Sigma]=      24.098342 meV Im[Sigma]=     205.641197 meV     Z=       1.037314 lam=      -0.035971
     E(   3 )=  13.2207 eV   Re[Sigma]=     269.900633 meV Im[Sigma]=     344.844335 meV     Z=       1.089837 lam=      -0.082431
     E(   4 )=  13.2207 eV   Re[Sigma]=     269.900633 meV Im[Sigma]=     344.844335 meV     Z=       1.089837 lam=      -0.082431
     -------------------------------------------------------------------


     ik =      71 coord.:    0.1500000   0.0000000   0.0000000
     -------------------------------------------------------------------
     E(   1 )=  -7.3679 eV   Re[Sigma]=     -89.105427 meV Im[Sigma]=      30.003752 meV     Z=       1.001215 lam=      -0.001213
     E(   2 )=  11.5104 eV   Re[Sigma]=      30.900687 meV Im[Sigma]=     217.307942 meV     Z=       1.039629 lam=      -0.038118
     E(   3 )=  13.2607 eV   Re[Sigma]=     269.717474 meV Im[Sigma]=     350.859873 meV     Z=       1.093648 lam=      -0.085629
     E(   4 )=  13.2607 eV   Re[Sigma]=     269.717474 meV Im[Sigma]=     350.859873 meV     Z=       1.093648 lam=      -0.085629
     -------------------------------------------------------------------


     ik =      72 coord.:    0.1450000   0.0000000   0.0000000
     -------------------------------------------------------------------
     E(   1 )=  -7.4089 eV   Re[Sigma]=     -87.579442 meV Im[Sigma]=      30.486033 meV     Z=       1.001569 lam=      -0.001566
     E(   2 )=  11.6598 eV   Re[Sigma]=      37.593265 meV Im[Sigma]=     228.955769 meV     Z=       1.042209 lam=      -0.040499
     E(   3 )=  13.2998 eV   Re[Sigma]=     269.650770 meV Im[Sigma]=     357.458873 meV     Z=       1.097661 lam=      -0.088972
     E(   4 )=  13.2998 eV   Re[Sigma]=     269.650770 meV Im[Sigma]=     357.458873 meV     Z=       1.097661 lam=      -0.088972
     -------------------------------------------------------------------


     ik =      73 coord.:    0.1400000   0.0000000   0.0000000
     -------------------------------------------------------------------
     E(   1 )=  -7.4482 eV   Re[Sigma]=     -86.099718 meV Im[Sigma]=      30.980112 meV     Z=       1.001920 lam=      -0.001916
     E(   2 )=  11.8051 eV   Re[Sigma]=      44.212923 meV Im[Sigma]=     240.949749 meV     Z=       1.045667 lam=      -0.043672
     E(   3 )=  13.3378 eV   Re[Sigma]=     269.694439 meV Im[Sigma]=     364.614631 meV     Z=       1.101881 lam=      -0.092461
     E(   4 )=  13.3378 eV   Re[Sigma]=     269.694439 meV Im[Sigma]=     364.614631 meV     Z=       1.101881 lam=      -0.092461
     -------------------------------------------------------------------


     ik =      74 coord.:    0.1350000   0.0000000   0.0000000
     -------------------------------------------------------------------
     E(   1 )=  -7.4859 eV   Re[Sigma]=     -84.663454 meV Im[Sigma]=      31.487626 meV     Z=       1.002271 lam=      -0.002266
     E(   2 )=  11.9461 eV   Re[Sigma]=      50.857024 meV Im[Sigma]=     253.515676 meV     Z=       1.050275 lam=      -0.047869
     E(   3 )=  13.3748 eV   Re[Sigma]=     269.841489 meV Im[Sigma]=     372.303763 meV     Z=       1.106319 lam=      -0.096101
     E(   4 )=  13.3748 eV   Re[Sigma]=     269.841489 meV Im[Sigma]=     372.303763 meV     Z=       1.106319 lam=      -0.096101
     -------------------------------------------------------------------


     ik =      75 coord.:    0.1300000   0.0000000   0.0000000
     -------------------------------------------------------------------
     E(   1 )=  -7.5220 eV   Re[Sigma]=     -83.272432 meV Im[Sigma]=      32.010402 meV     Z=       1.002624 lam=      -0.002617
     E(   2 )=  12.0828 eV   Re[Sigma]=      57.625686 meV Im[Sigma]=     266.703512 meV     Z=       1.056048 lam=      -0.053073
     E(   3 )=  13.4107 eV   Re[Sigma]=     270.082231 meV Im[Sigma]=     380.503136 meV     Z=       1.110991 lam=      -0.099903
     E(   4 )=  13.4107 eV   Re[Sigma]=     270.082231 meV Im[Sigma]=     380.503136 meV     Z=       1.110991 lam=      -0.099903
     -------------------------------------------------------------------


     ik =      76 coord.:    0.1250000   0.0000000   0.0000000
     -------------------------------------------------------------------
     E(   1 )=  -7.5565 eV   Re[Sigma]=     -81.924731 meV Im[Sigma]=      32.550366 meV     Z=       1.002979 lam=      -0.002970
     E(   2 )=  12.2150 eV   Re[Sigma]=      64.594630 meV Im[Sigma]=     280.401580 meV     Z=       1.062882 lam=      -0.059162
     E(   3 )=  13.4455 eV   Re[Sigma]=     270.406693 meV Im[Sigma]=     389.188247 meV     Z=       1.115919 lam=      -0.103877
     E(   4 )=  13.4455 eV   Re[Sigma]=     270.406693 meV Im[Sigma]=     389.188247 meV     Z=       1.115919 lam=      -0.103877
     -------------------------------------------------------------------


     ik =      77 coord.:    0.1200000   0.0000000   0.0000000
     -------------------------------------------------------------------
     E(   1 )=  -7.5895 eV   Re[Sigma]=     -80.618568 meV Im[Sigma]=      33.109469 meV     Z=       1.003338 lam=      -0.003327
     E(   2 )=  12.3427 eV   Re[Sigma]=      71.807066 meV Im[Sigma]=     294.383749 meV     Z=       1.070647 lam=      -0.065985
     E(   3 )=  13.4792 eV   Re[Sigma]=     270.803611 meV Im[Sigma]=     398.333147 meV     Z=       1.121127 lam=      -0.108040
     E(   4 )=  13.4792 eV   Re[Sigma]=     270.803611 meV Im[Sigma]=     398.333147 meV     Z=       1.121127 lam=      -0.108040
     -------------------------------------------------------------------


     ik =      78 coord.:    0.1150000   0.0000000   0.0000000
     -------------------------------------------------------------------
     E(   1 )=  -7.6208 eV   Re[Sigma]=     -79.355859 meV Im[Sigma]=      33.689639 meV     Z=       1.003704 lam=      -0.003690
     E(   2 )=  12.4658 eV   Re[Sigma]=      79.275380 meV Im[Sigma]=     308.368637 meV     Z=       1.079208 lam=      -0.073395
     E(   3 )=  13.5116 eV   Re[Sigma]=     271.259317 meV Im[Sigma]=     407.911678 meV     Z=       1.126643 lam=      -0.112407
     E(   4 )=  13.5116 eV   Re[Sigma]=     271.259317 meV Im[Sigma]=     407.911678 meV     Z=       1.126643 lam=      -0.112407
     -------------------------------------------------------------------


     ik =      79 coord.:    0.1100000   0.0000000   0.0000000
     -------------------------------------------------------------------
     E(   1 )=  -7.6507 eV   Re[Sigma]=     -78.133515 meV Im[Sigma]=      34.292738 meV     Z=       1.004078 lam=      -0.004061
     E(   2 )=  12.5842 eV   Re[Sigma]=      86.988402 meV Im[Sigma]=     322.074409 meV     Z=       1.088422 lam=      -0.081239
     E(   3 )=  13.5429 eV   Re[Sigma]=     271.760276 meV Im[Sigma]=     417.899463 meV     Z=       1.132498 lam=      -0.116996
     E(   4 )=  13.5429 eV   Re[Sigma]=     271.760276 meV Im[Sigma]=     417.899463 meV     Z=       1.132498 lam=      -0.116996
     -------------------------------------------------------------------


     ik =      80 coord.:    0.1050000   0.0000000   0.0000000
     -------------------------------------------------------------------
     E(   1 )=  -7.6790 eV   Re[Sigma]=     -76.951788 meV Im[Sigma]=      34.920531 meV     Z=       1.004460 lam=      -0.004441
     E(   2 )=  12.6978 eV   Re[Sigma]=      94.912972 meV Im[Sigma]=     335.260078 meV     Z=       1.098132 lam=      -0.089362
     E(   3 )=  13.5730 eV   Re[Sigma]=     272.290753 meV Im[Sigma]=     428.276019 meV     Z=       1.138724 lam=      -0.121824
     E(   4 )=  13.5730 eV   Re[Sigma]=     272.290753 meV Im[Sigma]=     428.276019 meV     Z=       1.138724 lam=      -0.121824
     -------------------------------------------------------------------


     ik =      81 coord.:    0.1000000   0.0000000   0.0000000
     -------------------------------------------------------------------
     E(   1 )=  -7.7058 eV   Re[Sigma]=     -75.811202 meV Im[Sigma]=      35.574659 meV     Z=       1.004854 lam=      -0.004830
     E(   2 )=  12.8066 eV   Re[Sigma]=     102.997973 meV Im[Sigma]=     347.750731 meV     Z=       1.108157 lam=      -0.097601
     E(   3 )=  13.6018 eV   Re[Sigma]=     272.833655 meV Im[Sigma]=     439.026380 meV     Z=       1.145354 lam=      -0.126907
     E(   4 )=  13.6018 eV   Re[Sigma]=     272.833655 meV Im[Sigma]=     439.026380 meV     Z=       1.145354 lam=      -0.126907
     -------------------------------------------------------------------


     ik =      82 coord.:    0.0950000   0.0000000   0.0000000
     -------------------------------------------------------------------
     E(   1 )=  -7.7311 eV   Re[Sigma]=     -74.708581 meV Im[Sigma]=      36.256617 meV     Z=       1.005260 lam=      -0.005232
     E(   2 )=  12.9105 eV   Re[Sigma]=     111.178563 meV Im[Sigma]=     359.448180 meV     Z=       1.118301 lam=      -0.105786
     E(   3 )=  13.6293 eV   Re[Sigma]=     273.371849 meV Im[Sigma]=     450.141841 meV     Z=       1.152419 lam=      -0.132260
     E(   4 )=  13.6293 eV   Re[Sigma]=     273.371849 meV Im[Sigma]=     450.141841 meV     Z=       1.152419 lam=      -0.132260
     -------------------------------------------------------------------


     ik =      83 coord.:    0.0900000   0.0000000   0.0000000
     -------------------------------------------------------------------
     E(   1 )=  -7.7550 eV   Re[Sigma]=     -73.646192 meV Im[Sigma]=      36.967740 meV     Z=       1.005679 lam=      -0.005647
     E(   2 )=  13.0095 eV   Re[Sigma]=     119.376785 meV Im[Sigma]=     370.330374 meV     Z=       1.128360 lam=      -0.113758
     E(   3 )=  13.6556 eV   Re[Sigma]=     273.885609 meV Im[Sigma]=     461.619665 meV     Z=       1.159950 lam=      -0.137894
     E(   4 )=  13.6556 eV   Re[Sigma]=     273.885609 meV Im[Sigma]=     461.619665 meV     Z=       1.159950 lam=      -0.137894
     -------------------------------------------------------------------


     ik =      84 coord.:    0.0850000   0.0000000   0.0000000
     -------------------------------------------------------------------
     E(   1 )=  -7.7774 eV   Re[Sigma]=     -72.621644 meV Im[Sigma]=      37.709188 meV     Z=       1.006112 lam=      -0.006075
     E(   2 )=  13.1034 eV   Re[Sigma]=     127.508262 meV Im[Sigma]=     380.443238 meV     Z=       1.138140 lam=      -0.121373
     E(   3 )=  13.6806 eV   Re[Sigma]=     274.355619 meV Im[Sigma]=     473.461860 meV     Z=       1.167973 lam=      -0.143816
     E(   4 )=  13.6806 eV   Re[Sigma]=     274.355619 meV Im[Sigma]=     473.461860 meV     Z=       1.167973 lam=      -0.143816
     -------------------------------------------------------------------


     ik =      85 coord.:    0.0800000   0.0000000   0.0000000
     -------------------------------------------------------------------
     E(   1 )=  -7.7985 eV   Re[Sigma]=     -71.634468 meV Im[Sigma]=      38.481946 meV     Z=       1.006562 lam=      -0.006519
     E(   2 )=  13.1922 eV   Re[Sigma]=     135.484584 meV Im[Sigma]=     389.888191 meV     Z=       1.147480 lam=      -0.128525
     E(   3 )=  13.7042 eV   Re[Sigma]=     274.761301 meV Im[Sigma]=     485.673307 meV     Z=       1.176513 lam=      -0.150030
     E(   4 )=  13.7042 eV   Re[Sigma]=     274.761301 meV Im[Sigma]=     485.673307 meV     Z=       1.176513 lam=      -0.150030
     -------------------------------------------------------------------


     ik =      86 coord.:    0.0750000   0.0000000   0.0000000
     -------------------------------------------------------------------
     E(   1 )=  -7.8181 eV   Re[Sigma]=     -70.685701 meV Im[Sigma]=      39.286824 meV     Z=       1.007027 lam=      -0.006978
     E(   2 )=  13.2760 eV   Re[Sigma]=     143.217601 meV Im[Sigma]=     398.807936 meV     Z=       1.156271 lam=      -0.135151
     E(   3 )=  13.7265 eV   Re[Sigma]=     275.080964 meV Im[Sigma]=     498.259612 meV     Z=       1.185592 lam=      -0.156539
     E(   4 )=  13.7265 eV   Re[Sigma]=     275.080964 meV Im[Sigma]=     498.259612 meV     Z=       1.185592 lam=      -0.156539
     -------------------------------------------------------------------


     ik =      87 coord.:    0.0700000   0.0000000   0.0000000
     -------------------------------------------------------------------
     E(   1 )=  -7.8363 eV   Re[Sigma]=     -69.772071 meV Im[Sigma]=      40.124458 meV     Z=       1.007511 lam=      -0.007455
     E(   2 )=  13.3545 eV   Re[Sigma]=     150.625019 meV Im[Sigma]=     407.372369 meV     Z=       1.164470 lam=      -0.141240
     E(   3 )=  13.7474 eV   Re[Sigma]=     275.293699 meV Im[Sigma]=     511.225035 meV     Z=       1.195231 lam=      -0.163342
     E(   4 )=  13.7474 eV   Re[Sigma]=     275.293699 meV Im[Sigma]=     511.225035 meV     Z=       1.195231 lam=      -0.163342
     -------------------------------------------------------------------


     ik =      88 coord.:    0.0650000   0.0000000   0.0000000
     -------------------------------------------------------------------
     E(   1 )=  -7.8532 eV   Re[Sigma]=     -68.896348 meV Im[Sigma]=      40.995327 meV     Z=       1.008012 lam=      -0.007948
     E(   2 )=  13.4278 eV   Re[Sigma]=     157.630355 meV Im[Sigma]=     415.765850 meV     Z=       1.172110 lam=      -0.146837
     E(   3 )=  13.7669 eV   Re[Sigma]=     275.376541 meV Im[Sigma]=     524.570766 meV     Z=       1.205452 lam=      -0.170436
     E(   4 )=  13.7669 eV   Re[Sigma]=     275.376541 meV Im[Sigma]=     524.570766 meV     Z=       1.205452 lam=      -0.170436
     -------------------------------------------------------------------


     ik =      89 coord.:    0.0600000   0.0000000   0.0000000
     -------------------------------------------------------------------
     E(   1 )=  -7.8688 eV   Re[Sigma]=     -68.056257 meV Im[Sigma]=      41.899762 meV     Z=       1.008532 lam=      -0.008460
     E(   2 )=  13.4958 eV   Re[Sigma]=     164.167776 meV Im[Sigma]=     424.176488 meV     Z=       1.179291 lam=      -0.152033
     E(   3 )=  13.7851 eV   Re[Sigma]=     275.307828 meV Im[Sigma]=     538.293743 meV     Z=       1.216276 lam=      -0.177818
     E(   4 )=  13.7851 eV   Re[Sigma]=     275.307828 meV Im[Sigma]=     538.293743 meV     Z=       1.216276 lam=      -0.177818
     -------------------------------------------------------------------


     ik =      90 coord.:    0.0550000   0.0000000   0.0000000
     -------------------------------------------------------------------
     E(   1 )=  -7.8830 eV   Re[Sigma]=     -67.251421 meV Im[Sigma]=      42.837969 meV     Z=       1.009071 lam=      -0.008990
     E(   2 )=  13.5586 eV   Re[Sigma]=     170.180705 meV Im[Sigma]=     432.787701 meV     Z=       1.186178 lam=      -0.156956
     E(   3 )=  13.8019 eV   Re[Sigma]=     275.065581 meV Im[Sigma]=     552.386030 meV     Z=       1.227723 lam=      -0.185484
     E(   4 )=  13.8019 eV   Re[Sigma]=     275.065581 meV Im[Sigma]=     552.386030 meV     Z=       1.227723 lam=      -0.185484
     -------------------------------------------------------------------


     ik =      91 coord.:    0.0500000   0.0000000   0.0000000
     -------------------------------------------------------------------
     E(   1 )=  -7.8960 eV   Re[Sigma]=     -66.480986 meV Im[Sigma]=      43.810051 meV     Z=       1.009631 lam=      -0.009539
     E(   2 )=  13.6160 eV   Re[Sigma]=     175.621307 meV Im[Sigma]=     441.771939 meV     Z=       1.192978 lam=      -0.161762
     E(   3 )=  13.8172 eV   Re[Sigma]=     274.628392 meV Im[Sigma]=     566.834736 meV     Z=       1.239816 lam=      -0.193429
     E(   4 )=  13.8172 eV   Re[Sigma]=     274.628392 meV Im[Sigma]=     566.834736 meV     Z=       1.239816 lam=      -0.193429
     -------------------------------------------------------------------


     ik =      92 coord.:    0.0450000   0.0000000   0.0000000
     -------------------------------------------------------------------
     E(   1 )=  -7.9076 eV   Re[Sigma]=     -65.743858 meV Im[Sigma]=      44.816029 meV     Z=       1.010211 lam=      -0.010108
     E(   2 )=  13.6680 eV   Re[Sigma]=     180.448623 meV Im[Sigma]=     451.286300 meV     Z=       1.199925 lam=      -0.166615
     E(   3 )=  13.8311 eV   Re[Sigma]=     273.975766 meV Im[Sigma]=     581.622352 meV     Z=       1.252576 lam=      -0.201645
     E(   4 )=  13.8311 eV   Re[Sigma]=     273.975766 meV Im[Sigma]=     581.622352 meV     Z=       1.252576 lam=      -0.201645
     -------------------------------------------------------------------


     ik =      93 coord.:    0.0400000   0.0000000   0.0000000
     -------------------------------------------------------------------
     E(   1 )=  -7.9180 eV   Re[Sigma]=     -65.040309 meV Im[Sigma]=      45.855870 meV     Z=       1.010813 lam=      -0.010697
     E(   2 )=  13.7146 eV   Re[Sigma]=     184.625539 meV Im[Sigma]=     461.469596 meV     Z=       1.207267 lam=      -0.171683
     E(   3 )=  13.8436 eV   Re[Sigma]=     273.087926 meV Im[Sigma]=     596.727372 meV     Z=       1.266021 lam=      -0.210124
     E(   4 )=  13.8436 eV   Re[Sigma]=     273.087926 meV Im[Sigma]=     596.727372 meV     Z=       1.266021 lam=      -0.210124
     -------------------------------------------------------------------


     ik =      94 coord.:    0.0350000   0.0000000   0.0000000
     -------------------------------------------------------------------
     E(   1 )=  -7.9272 eV   Re[Sigma]=     -64.368029 meV Im[Sigma]=      46.929510 meV     Z=       1.011436 lam=      -0.011307
     E(   2 )=  13.7558 eV   Re[Sigma]=     188.116889 meV Im[Sigma]=     472.440410 meV     Z=       1.215250 lam=      -0.177124
     E(   3 )=  13.8546 eV   Re[Sigma]=     271.947163 meV Im[Sigma]=     612.125050 meV     Z=       1.280170 lam=      -0.218854
     E(   4 )=  13.8546 eV   Re[Sigma]=     271.947163 meV Im[Sigma]=     612.125050 meV     Z=       1.280170 lam=      -0.218854
     -------------------------------------------------------------------


     ik =      95 coord.:    0.0300000   0.0000000   0.0000000
     -------------------------------------------------------------------
     E(   1 )=  -7.9350 eV   Re[Sigma]=     -63.724544 meV Im[Sigma]=      48.036885 meV     Z=       1.012082 lam=      -0.011938
     E(   2 )=  13.7916 eV   Re[Sigma]=     190.886042 meV Im[Sigma]=     484.295680 meV     Z=       1.224109 lam=      -0.183080
     E(   3 )=  13.8642 eV   Re[Sigma]=     270.536794 meV Im[Sigma]=     627.788182 meV     Z=       1.295038 lam=      -0.227822
     E(   4 )=  13.8642 eV   Re[Sigma]=     270.536794 meV Im[Sigma]=     627.788182 meV     Z=       1.295038 lam=      -0.227822
     -------------------------------------------------------------------


     ik =      96 coord.:    0.0250000   0.0000000   0.0000000
     -------------------------------------------------------------------
     E(   1 )=  -7.9417 eV   Re[Sigma]=     -63.110104 meV Im[Sigma]=      49.177945 meV     Z=       1.012751 lam=      -0.012590
     E(   2 )=  13.8218 eV   Re[Sigma]=     192.890980 meV Im[Sigma]=     497.109380 meV     Z=       1.234064 lam=      -0.189670
     E(   3 )=  13.8723 eV   Re[Sigma]=     268.842113 meV Im[Sigma]=     643.687799 meV     Z=       1.310636 lam=      -0.237012
     E(   4 )=  13.8723 eV   Re[Sigma]=     268.842113 meV Im[Sigma]=     643.687799 meV     Z=       1.310636 lam=      -0.237012
     -------------------------------------------------------------------


     ik =      97 coord.:    0.0200000   0.0000000   0.0000000
     -------------------------------------------------------------------
     E(   1 )=  -7.9471 eV   Re[Sigma]=     -62.526047 meV Im[Sigma]=      50.352683 meV     Z=       1.013443 lam=      -0.013264
     E(   2 )=  13.8466 eV   Re[Sigma]=     194.082857 meV Im[Sigma]=     510.930923 meV     Z=       1.245312 lam=      -0.196989
     E(   3 )=  13.8789 eV   Re[Sigma]=     266.849384 meV Im[Sigma]=     659.793718 meV     Z=       1.326977 lam=      -0.246407
     E(   4 )=  13.8789 eV   Re[Sigma]=     266.849384 meV Im[Sigma]=     659.793718 meV     Z=       1.326977 lam=      -0.246407
     -------------------------------------------------------------------


     ik =      98 coord.:    0.0150000   0.0000000   0.0000000
     -------------------------------------------------------------------
     E(   1 )=  -7.9513 eV   Re[Sigma]=     -61.969863 meV Im[Sigma]=      51.561147 meV     Z=       1.014158 lam=      -0.013960
     E(   2 )=  13.8659 eV   Re[Sigma]=     194.405308 meV Im[Sigma]=     525.782986 meV     Z=       1.258022 lam=      -0.205101
     E(   3 )=  13.8841 eV   Re[Sigma]=     264.547413 meV Im[Sigma]=     676.074916 meV     Z=       1.344066 lam=      -0.255989
     E(   4 )=  13.8841 eV   Re[Sigma]=     264.547413 meV Im[Sigma]=     676.074916 meV     Z=       1.344066 lam=      -0.255989
     -------------------------------------------------------------------


     ik =      99 coord.:    0.0100000   0.0000000   0.0000000
     -------------------------------------------------------------------
     E(   1 )=  -7.9544 eV   Re[Sigma]=     -61.441924 meV Im[Sigma]=      52.803453 meV     Z=       1.014898 lam=      -0.014679
     E(   2 )=  13.8797 eV   Re[Sigma]=     193.791446 meV Im[Sigma]=     541.658516 meV     Z=       1.272326 lam=      -0.214038
     E(   3 )=  13.8878 eV   Re[Sigma]=     261.925735 meV Im[Sigma]=     692.499697 meV     Z=       1.361909 lam=      -0.265736
[...]
      170        3      8.1427    144.9023    157.4868      1.0146     -0.0144
      171        3      8.0507    142.8409    155.9015      1.0147     -0.0145
      172        3      7.9608    140.8689    154.3220      1.0147     -0.0145
      173        3      7.8732    138.9927    152.7347      1.0148     -0.0146
      174        3      7.7880    137.2104    151.1257      1.0150     -0.0148
      175        3      7.7051    135.5167    149.4729      1.0152     -0.0150
      176        3      7.6247    133.9054    147.7462      1.0155     -0.0152
      177        3      7.5468    132.3708    145.9114      1.0158     -0.0155
      178        3      7.4716    130.9086    143.9366      1.0160     -0.0158
      179        3      7.3990    129.5167    141.7970      1.0162     -0.0160
      180        3      7.3292    128.1941    139.4787      1.0164     -0.0161
      181        3      7.2623    126.9420    136.9800      1.0164     -0.0161
      182        3      7.1982    125.7621    134.3116      1.0162     -0.0160
      183        3      7.1370    124.6566    131.4951      1.0159     -0.0157
      184        3      7.0788    123.6273    128.5615      1.0154     -0.0151
      185        3      7.0237    122.6742    125.5480      1.0147     -0.0144
      186        3      6.9717    121.7960    122.4958      1.0137     -0.0135
      187        3      6.9228    120.9884    119.4470      1.0126     -0.0125
      188        3      6.8770    120.2444    116.4417      1.0114     -0.0113
      189        3      6.8345    119.5533    113.5146      1.0101     -0.0100
      190        3      6.7953    118.8939    110.6929      1.0087     -0.0086
      191        3      6.7594    118.2566    107.9931      1.0073     -0.0072
      192        3      6.7267    117.6375    105.4208      1.0059     -0.0059
      193        3      6.6975    117.0113    102.9694      1.0045     -0.0045
      194        3      6.6716    116.3572    100.6222      1.0033     -0.0033
      195        3      6.6491    115.6540     98.3550      1.0021     -0.0021
      196        3      6.6301    114.8874     96.1394      1.0010     -0.0010
      197        3      6.6145    114.0483     93.9471      1.0000      0.0000
      198        3      6.6023    113.1294     91.7540      0.9990      0.0010
      199        3      6.5936    112.1282     89.5423      0.9981      0.0019
      200        3      6.5884    111.0468     87.3029      0.9971      0.0029
      201        3      6.5867    109.8911     85.0357      0.9961      0.0039
  
        1        4     10.6149    -63.5629    440.8013      1.1840     -0.1554
        2        4     10.6158    -59.6410    450.5815      1.1967     -0.1644
        3        4     10.6184    -55.2062    460.4575      1.2102     -0.1737
        4        4     10.6228    -50.2249    470.2978      1.2241     -0.1831
        5        4     10.6289    -44.6757    479.9589      1.2380     -0.1923
        6        4     10.6367    -38.5556    489.2881      1.2515     -0.2009
        7        4     10.6463    -31.8853    498.1294      1.2638     -0.2087
        8        4     10.6576    -24.7134    506.3291      1.2742     -0.2152
        9        4     10.6706    -17.1172    513.7439      1.2821     -0.2200
       10        4     10.6853     -9.2010    520.2483      1.2870     -0.2230
       11        4     10.7016     -1.0888    525.7432      1.2887     -0.2240
       12        4     10.7196      7.0884    530.1640      1.2875     -0.2233
       13        4     10.7392     15.2056    533.4861      1.2836     -0.2210
       14        4     10.7605     23.1567    535.7302      1.2779     -0.2175
       15        4     10.7833     30.8641    536.9625      1.2712     -0.2133
       16        4     10.8076     38.2837    537.2935      1.2641     -0.2089
       17        4     10.8335     45.4041    536.8718      1.2573     -0.2046
       18        4     10.8608     52.2425    535.8752      1.2512     -0.2007
       19        4     10.8897     58.8367    534.4989      1.2459     -0.1974
       20        4     10.9199     65.2370    532.9416      1.2416     -0.1946
       21        4     10.9515     71.4976    531.3916      1.2381     -0.1923
       22        4     10.9845     77.6760    530.0134      1.2354     -0.1905
       23        4     11.0188     83.8263    528.9365      1.2332     -0.1891
       24        4     11.0543     89.9945    528.2476      1.2313     -0.1879
       25        4     11.0911     96.2177    527.9862      1.2296     -0.1867
       26        4     11.1291    102.5234    528.1446      1.2279     -0.1856
       27        4     11.1682    108.9301    528.6718      1.2261     -0.1844
       28        4     11.2084    115.4470    529.4810      1.2240     -0.1830
       29        4     11.2497    122.0752    530.4609      1.2216     -0.1814
       30        4     11.2920    128.8070    531.4882      1.2188     -0.1795
       31        4     11.3352    135.6270    532.4411      1.2157     -0.1774
       32        4     11.3793    142.5130    533.2109      1.2122     -0.1750
       33        4     11.4243    149.4412    533.7088      1.2085     -0.1725
       34        4     11.4701    156.3943    533.8663      1.2046     -0.1699
       35        4     11.5167    163.3670    533.6283      1.2008     -0.1672
       36        4     11.5640    170.3661    532.9431      1.1971     -0.1646
       37        4     11.6119    177.4076    531.7520      1.1935     -0.1622
       38        4     11.6604    184.4781    529.9838      1.1901     -0.1598
       39        4     11.7095    191.5750    527.5548      1.1869     -0.1575
       40        4     11.7590    198.6963    524.3733      1.1837     -0.1552
       41        4     11.8091    205.8320    520.3460      1.1807     -0.1530
       42        4     11.8595    212.9658    515.3836      1.1776     -0.1508
       43        4     11.9102    220.0733    509.4064      1.1744     -0.1485
       44        4     11.9612    227.1203    502.3509      1.1710     -0.1461
       45        4     12.0125    234.0597    494.1771      1.1672     -0.1432
       46        4     12.0639    240.8289    484.8778      1.1627     -0.1399
       47        4     12.1154    247.3483    474.4879      1.1574     -0.1360
       48        4     12.1670    253.5211    463.0927      1.1510     -0.1312
       49        4     12.2187    259.2360    450.8319      1.1435     -0.1255
       50        4     12.2703    264.3768    437.9004      1.1348     -0.1188
       51        4     12.3218    268.8334    424.5424      1.1253     -0.1113
       52        4     12.3732    272.5193    411.0407      1.1152     -0.1033
       53        4     12.4244    275.3880    397.7010      1.1052     -0.0952
       54        4     12.4753    277.4413    384.8334      1.0958     -0.0874
       55        4     12.5260    278.7312    372.7329      1.0875     -0.0804
       56        4     12.5763    279.3508    361.6616      1.0806     -0.0746
       57        4     12.6263    279.4167    351.8337      1.0753     -0.0701
       58        4     12.6758    279.0545    343.4063      1.0716     -0.0668
       59        4     12.7249    278.3848    336.4753      1.0692     -0.0648
       60        4     12.7734    277.5134    331.0767      1.0681     -0.0637
       61        4     12.8214    276.5287    327.1933      1.0679     -0.0636
       62        4     12.8687    275.5019    324.7637      1.0686     -0.0642
       63        4     12.9154    274.4865    323.6949      1.0699     -0.0654
       64        4     12.9614    273.5224    323.8737      1.0718     -0.0670
       65        4     13.0067    272.6389    325.1789      1.0741     -0.0690
       66        4     13.0512    271.8552    327.4911      1.0767     -0.0713
       67        4     13.0949    271.1839    330.7003      1.0796     -0.0738
       68        4     13.1377    270.6330    334.7114      1.0828     -0.0765
       69        4     13.1797    270.2052    339.4463      1.0862     -0.0794
       70        4     13.2207    269.9006    344.8443      1.0898     -0.0824
       71        4     13.2607    269.7175    350.8599      1.0936     -0.0856
       72        4     13.2998    269.6508    357.4589      1.0977     -0.0890
       73        4     13.3378    269.6944    364.6146      1.1019     -0.0925
       74        4     13.3748    269.8415    372.3038      1.1063     -0.0961
       75        4     13.4107    270.0822    380.5031      1.1110     -0.0999
       76        4     13.4455    270.4067    389.1882      1.1159     -0.1039
       77        4     13.4792    270.8036    398.3331      1.1211     -0.1080
       78        4     13.5116    271.2593    407.9117      1.1266     -0.1124
       79        4     13.5429    271.7603    417.8995      1.1325     -0.1170
       80        4     13.5730    272.2908    428.2760      1.1387     -0.1218
       81        4     13.6018    272.8337    439.0264      1.1454     -0.1269
       82        4     13.6293    273.3718    450.1418      1.1524     -0.1323
       83        4     13.6556    273.8856    461.6197      1.1599     -0.1379
       84        4     13.6806    274.3556    473.4619      1.1680     -0.1438
       85        4     13.7042    274.7613    485.6733      1.1765     -0.1500
       86        4     13.7265    275.0810    498.2596      1.1856     -0.1565
       87        4     13.7474    275.2937    511.2250      1.1952     -0.1633
       88        4     13.7669    275.3765    524.5708      1.2055     -0.1704
       89        4     13.7851    275.3078    538.2937      1.2163     -0.1778
       90        4     13.8019    275.0656    552.3860      1.2277     -0.1855
       91        4     13.8172    274.6284    566.8347      1.2398     -0.1934
       92        4     13.8311    273.9758    581.6224      1.2526     -0.2016
       93        4     13.8436    273.0879    596.7274      1.2660     -0.2101
       94        4     13.8546    271.9472    612.1251      1.2802     -0.2189
       95        4     13.8642    270.5368    627.7882      1.2950     -0.2278
       96        4     13.8723    268.8421    643.6878      1.3106     -0.2370
       97        4     13.8789    266.8494    659.7937      1.3270     -0.2464
       98        4     13.8841    264.5474    676.0749      1.3441     -0.2560
       99        4     13.8878    261.9257    692.4997      1.3619     -0.2657
      100        4     13.8900    258.9761    709.0357      1.3805     -0.2756
      101        4     13.8908    233.6069    675.8592      1.3671     -0.2685
      102        4     13.8889    241.2283    654.2508      1.3422     -0.2549
      103        4     13.8833    243.7650    634.9346      1.3221     -0.2436
      104        4     13.8740    245.6742    615.9262      1.3033     -0.2327
      105        4     13.8610    247.0140    597.2863      1.2858     -0.2223
      106        4     13.8443    247.8399    579.0608      1.2694     -0.2122
      107        4     13.8239    248.2048    561.2835      1.2542     -0.2027
      108        4     13.7998    248.1581    543.9773      1.2400     -0.1936
      109        4     13.7721    247.7480    527.1563      1.2269     -0.1849
      110        4     13.7408    247.0191    510.8273      1.2147     -0.1767
      111        4     13.7060    246.0131    494.9912      1.2033     -0.1689
      112        4     13.6676    244.7687    479.6444      1.1927     -0.1616
      113        4     13.6257    243.3214    464.7792      1.1829     -0.1546
      114        4     13.5804    241.7047    450.3856      1.1736     -0.1480
      115        4     13.5317    239.9495    436.4512      1.1650     -0.1417
      116        4     13.4797    238.0846    422.9624      1.1570     -0.1357
      117        4     13.4244    236.1368    409.9048      1.1494     -0.1300
      118        4     13.3658    234.1310    397.2636      1.1423     -0.1246
      119        4     13.3041    232.0903    385.0241      1.1356     -0.1194
      120        4     13.2393    230.0360    373.1721      1.1292     -0.1144
      121        4     13.1714    227.9881    361.6942      1.1231     -0.1096
      122        4     13.1006    225.9651    350.5782      1.1174     -0.1051
      123        4     13.0270    223.9842    339.8136      1.1119     -0.1007
      124        4     12.9505    222.0613    329.3921      1.1067     -0.0964
      125        4     12.8713    220.2111    319.3080      1.1016     -0.0923
      126        4     12.7895    218.4470    309.5589      1.0968     -0.0882
      127        4     12.7051    216.7814    300.1464      1.0921     -0.0843
      128        4     12.6183    215.2248    291.0763      1.0876     -0.0805
      129        4     12.5291    213.7866    282.3596      1.0832     -0.0768
      130        4     12.4376    212.4756    274.0119      1.0790     -0.0732
      131        4     12.3439    211.2985    266.0535      1.0748     -0.0696
      132        4     12.2482    210.2602    258.5084      1.0708     -0.0662
      133        4     12.1505    209.3632    251.4016      1.0670     -0.0628
      134        4     12.0509    208.6069    244.7570      1.0633     -0.0595
      135        4     11.9495    207.9872    238.5932      1.0597     -0.0563
      136        4     11.8465    207.4958    232.9191      1.0564     -0.0534
      137        4     11.7419    207.1193    227.7305      1.0533     -0.0506
      138        4     11.6358    206.8395    223.0061      1.0504     -0.0480
      139        4     11.5284    206.6342    218.7078      1.0479     -0.0457
      140        4     11.4198    206.4796    214.7836      1.0456     -0.0436
      141        4     11.3100    206.3551    211.1781      1.0436     -0.0417
      142        4     11.1993    206.2481    207.8511      1.0416     -0.0400
      143        4     11.0876    206.1581    204.8046      1.0397     -0.0382
      144        4     10.9751    206.0961    202.1127      1.0377     -0.0363
      145        4     10.8620    206.0752    199.9410      1.0356     -0.0343
      146        4     10.7483    206.0922    198.5367      1.0334     -0.0323
      147        4     10.6342    206.0981    198.1727      1.0315     -0.0305
      148        4     10.5197    205.9633    199.0488      1.0303     -0.0295
      149        4     10.4050    205.4583    201.1744      1.0304     -0.0295
      150        4     10.2902    204.3002    204.2782      1.0316     -0.0306
      151        4     10.1754    202.2784    207.7952      1.0334     -0.0323
      152        4     10.0608    199.3555    210.9654      1.0349     -0.0337
      153        4      9.9464    195.6650    213.0290      1.0355     -0.0343
      154        4      9.8323    191.4733    213.4475      1.0349     -0.0337
      155        4      9.7187    187.0984    212.0444      1.0331     -0.0320
      156        4      9.6057    182.7955    209.0018      1.0306     -0.0297
      157        4      9.4933    178.7123    204.7322      1.0279     -0.0272
      158        4      9.3818    174.9136    199.7108      1.0253     -0.0246
      159        4      9.2711    171.4169    194.3535      1.0228     -0.0223
      160        4      9.1615    168.2114    188.9722      1.0206     -0.0201
      161        4      9.0529    165.2770    183.7870      1.0186     -0.0183
      162        4      8.9456    162.5885    178.9581      1.0169     -0.0167
      163        4      8.8396    160.1140    174.6062      1.0156     -0.0153
      164        4      8.7350    157.8118    170.8119      1.0146     -0.0144
      165        4      8.6319    155.6275    167.6018      1.0140     -0.0138
      166        4      8.5305    153.4962    164.9366      1.0138     -0.0136
      167        4      8.4307    151.3611    162.7186      1.0140     -0.0138
      168        4      8.3328    149.2001    160.8174      1.0143     -0.0141
      169        4      8.2367    147.0337    159.1060      1.0145     -0.0143
      170        4      8.1427    144.9023    157.4868      1.0146     -0.0144
      171        4      8.0507    142.8409    155.9015      1.0147     -0.0145
      172        4      7.9608    140.8689    154.3220      1.0147     -0.0145
      173        4      7.8732    138.9927    152.7347      1.0148     -0.0146
      174        4      7.7880    137.2104    151.1257      1.0150     -0.0148
      175        4      7.7051    135.5167    149.4729      1.0152     -0.0150
      176        4      7.6247    133.9054    147.7462      1.0155     -0.0152
      177        4      7.5468    132.3708    145.9114      1.0158     -0.0155
      178        4      7.4716    130.9086    143.9366      1.0160     -0.0158
      179        4      7.3990    129.5167    141.7970      1.0162     -0.0160
      180        4      7.3292    128.1941    139.4787      1.0164     -0.0161
      181        4      7.2623    126.9420    136.9800      1.0164     -0.0161
      182        4      7.1982    125.7621    134.3116      1.0162     -0.0160
      183        4      7.1370    124.6566    131.4951      1.0159     -0.0157
      184        4      7.0788    123.6273    128.5615      1.0154     -0.0151
      185        4      7.0237    122.6742    125.5480      1.0147     -0.0144
      186        4      6.9717    121.7960    122.4958      1.0137     -0.0135
      187        4      6.9228    120.9884    119.4470      1.0126     -0.0125
      188        4      6.8770    120.2444    116.4417      1.0114     -0.0113
      189        4      6.8345    119.5533    113.5146      1.0101     -0.0100
      190        4      6.7953    118.8939    110.6929      1.0087     -0.0086
      191        4      6.7594    118.2566    107.9931      1.0073     -0.0072
      192        4      6.7267    117.6375    105.4208      1.0059     -0.0059
      193        4      6.6975    117.0113    102.9694      1.0045     -0.0045
      194        4      6.6716    116.3572    100.6222      1.0033     -0.0033
      195        4      6.6491    115.6540     98.3550      1.0021     -0.0021
      196        4      6.6301    114.8874     96.1394      1.0010     -0.0010
      197        4      6.6145    114.0483     93.9471      1.0000      0.0000
      198        4      6.6023    113.1294     91.7540      0.9990      0.0010
      199        4      6.5936    112.1282     89.5423      0.9981      0.0019
      200        4      6.5884    111.0468     87.3029      0.9971      0.0029
      201        4      6.5867    109.8911     85.0357      0.9961      0.0039
  
     ===================================================================
     Memory usage:  VmHWM =        17Mb
                   VmPeak =       290Mb
     ===================================================================


     Unfolding on the coarse grid
     elphon_wrap  :      0.00s CPU      0.00s WALL (       1 calls)

     INITIALIZATION: 



     Electron-Phonon interpolation
     ephwann      :      1.22s CPU      1.33s WALL (       1 calls)
     ep-interp    :      1.17s CPU      1.27s WALL (     201 calls)

     DynW2B       :      0.00s CPU      0.00s WALL (     201 calls)
     HamW2B       :      0.33s CPU      0.35s WALL (   81204 calls)
     ephW2Bp      :      0.04s CPU      0.04s WALL (     201 calls)


     Total program execution
     EPW          :      1.22s CPU      1.33s WALL

                                                                                          
 Please consider citing:                                                                  
 S. Ponce, E. R. Margine, C. Verdi and F. Giustino, Comput. Phys. Commun. 209, 116 (2016) 
                                                                                          
 In addition, if you used anisotropic Eliashberg superconductivity please cite:           
              E. R. Margine and F. Giustino, Phys. Rev. B 87, 024505 (2013)               
              if you used transport properties (scattering rates, mobility) please cite:  
              S. Ponce, E. R. Margine and F. Giustino, Phys. Rev. B 97, 121201 (2018)     
