                                                                                      
                                       ``:oss/                                        
                           `.+s+.     .+ys--yh+     `./ss+.                           
                          -sh//yy+`   +yy   +yy    -+h+-oyy                           
                          -yh- .oyy/.-sh.   .syo-.:sy-  /yh                           
                 `.-.`    `yh+   -oyyyo.     `/syys:    oys      `.`                  
               `/+ssys+-` `sh+      `                   oys`   .:osyo`                
               -yh- ./syyooyo`                          .sys+/oyo--yh/                
               `yy+    .-:-.                             `-/+/:`  -sh-                
                /yh.                                              oys                 
          ``..---hho---------`   .---------..`      `.-----.`    -hd+---.             
       `./osmNMMMMMMMMMMMMMMMs. +NNMMMMMMMMNNmh+.   yNMMMMMNm-  oNMMMMMNmo++:`        
       +sy--/sdMMMhyyyyyyyNMMh- .oyNMMmyyyyyhNMMm+` -yMMMdyyo:` .oyyNMMNhs+syy`       
       -yy/   /MMM+.`-+/``mMMy-   `mMMh:`````.dMMN:` `MMMy-`-dhhy```mMMy:``+hs        
        -yy+` /MMMo:-mMM+`-oo/.    mMMh:     `dMMN/`  dMMm:`dMMMMy..MMMo-.+yo`        
         .sys`/MMMMNNMMMs-         mMMmyooooymMMNo:   oMMM/sMMMMMM++MMN//oh:          
          `sh+/MMMhyyMMMs- `-`     mMMMMMMMMMNmy+-`   -MMMhMMMsmMMmdMMd/yy+           
    `-/+++oyy-/MMM+.`/hh/.`mNm:`   mMMd+/////:-.`      NMMMMMd/:NMMMMMy:/yyo/:.`      
   +os+//:-..-oMMMo:--:::-/MMMo. .-mMMd+---`           hMMMMN+. oMMMMMo. `-+osyso:`   
   syo     `mNMMMMMNNNNNNNNMMMo.oNNMMMMMNNNN:`         +MMMMs:`  dMMMN/`     ``:syo   
   /yh`     :syyyyyyyyyyyyyyyy+.`+syyyyyyyyo:`         .oyys:`   .oyys:`        +yh   
   -yh-        ````````````````    `````````              ``        ``          oys   
   -+h/------------------------::::::::://////++++++++++++++++++++++///////::::/yd:   
   shdddddddddddddddddddddddddddddhhhhhhhhyyyyyssssssssssssssssyyyyyyyhhhhhhhddddh`   
                                                                                      
  S. Ponce, E. R. Margine, C. Verdi, and F. Giustino,                                 
                                                Comput. Phys. Commun. 209, 116 (2016) 
                                                                                      

     Program EPW v.5.2.0 starts on  9Jul2020 at 18:49:34 

     This program is part of the open-source Quantum ESPRESSO suite
     for quantum simulation of materials; please cite
         "P. Giannozzi et al., J. Phys.:Condens. Matter 21 395502 (2009);
         "P. Giannozzi et al., J. Phys.:Condens. Matter 29 465901 (2017);
          URL http://www.quantum-espresso.org", 
     in publications or presentations arising from this work. More details at
     http://www.quantum-espresso.org/quote

     Parallel version (MPI), running on     4 processors

     MPI processes distributed on     1 nodes
     K-points division:     npool     =       4
     Fft bands division:     nmany     =       1
                      
     ------------------------------------------------------------------------ 
                   RESTART - RESTART - RESTART - RESTART                         
     Restart is done without reading PWSCF save file.                  
     Be aware that some consistency checks are therefore not done.                  
     ------------------------------------------------------------------------ 
                      

     --                                                                         

     bravais-lattice index     =            0
     lattice parameter (a_0)   =       0.0000  a.u.
     unit-cell volume          =       0.0000 (a.u.)^3
     number of atoms/cell      =            0
     number of atomic types    =            0
     kinetic-energy cut-off    =       0.0000  Ry
     charge density cut-off    =       0.0000  Ry
     Exchange-correlation= not set
                           (  -1  -1  -1  -1  -1  -1  -1)


     celldm(1)=    0.00000  celldm(2)=    0.00000  celldm(3)=    0.00000
     celldm(4)=    0.00000  celldm(5)=    0.00000  celldm(6)=    0.00000

     crystal axes: (cart. coord. in units of a_0)
               a(1) = (  0.0000  0.0000  0.0000 )  
               a(2) = (  0.0000  0.0000  0.0000 )  
               a(3) = (  0.0000  0.0000  0.0000 )  

     reciprocal axes: (cart. coord. in units 2 pi/a_0)
               b(1) = (  0.0000  0.0000  0.0000 )  
               b(2) = (  0.0000  0.0000  0.0000 )  
               b(3) = (  0.0000  0.0000  0.0000 )  


     Atoms inside the unit cell: 

   Cartesian axes

     site n.  atom      mass           positions (a_0 units)

 
     No symmetry!

     G cutoff =    0.0000  (      0 G-vectors)     FFT grid: (  0,  0,  0)
     number of k points=    0
                       cart. coord. in units 2pi/a_0

     ===========================================================================
     Performing the CUMULANT EXPANSION of the retarded Greens function to obtain
     the electron spectral function.
     There is no spin degeneracy factor, as in spectral_func.f90
     Warning: the routine is sequential but very fast.
     ===========================================================================

     Read self-energy from file specfun_sup.elself

     Check: nk =  216, ibndmin =    1, ibndmax =    4 kbT (eV) =     0.025852

        k   Energy [eV]            A(k,w) [meV^-1]            Z-factor    
                        with convolutions  |    using FFT 
        1    -4.00000      0.1133663E-05      0.4370645E-04     0.9843
        1    -3.73680      0.1596330E-05      0.4537506E-04
        1    -3.47370      0.1566455E-05      0.4718111E-04
        1    -3.21050      0.1943665E-05      0.4923174E-04
        1    -2.94740      0.2537305E-05      0.5164455E-04
        1    -2.68420      0.3113971E-05      0.5456072E-04
        1    -2.42110      0.3626191E-05      0.5818573E-04
        1    -2.15790      0.4169583E-05      0.6284226E-04
        1    -1.89470      0.4925852E-05      0.6904691E-04
        1    -1.63160      0.6117965E-05      0.7765448E-04
        1    -1.36840      0.8096426E-05      0.9016095E-04
        1    -1.10530      0.1150070E-04      0.1093638E-03
        1    -0.84210      0.1776698E-04      0.1408485E-03
        1    -0.57890      0.3148336E-04      0.1962908E-03
        1    -0.31580      0.7012491E-04      0.2991641E-03
        1    -0.05260      0.2689723E-03      0.4773131E-03
        1     0.21050      0.4998058E-02      0.6452217E-03
        1     0.47370      0.2688755E-03      0.5579809E-03
        1     0.73680      0.7030835E-04      0.3591133E-03
        1     1.00000      0.3404441E-04      0.2284444E-03
 
        2    -4.00000      0.3751312E-05      0.4863765E-04     1.0039
        2    -3.73680      0.3691805E-05      0.5137568E-04
        2    -3.47370      0.3899515E-05      0.5453503E-04
        2    -3.21050      0.4266378E-05      0.5836065E-04
        2    -2.94740      0.4900602E-05      0.6318266E-04
        2    -2.68420      0.6209146E-05      0.6948842E-04
        2    -2.42110      0.8028299E-05      0.7808687E-04
        2    -2.15790      0.1076951E-04      0.9041507E-04
        2    -1.89470      0.1552772E-04      0.1091685E-03
        2    -1.63160      0.2414150E-04      0.1397094E-03
        2    -1.36840      0.4274335E-04      0.1932324E-03
        2    -1.10530      0.9487949E-04      0.2925293E-03
        2    -0.84210      0.3519767E-03      0.4675977E-03
        2    -0.57890      0.3810822E-02      0.6489984E-03
        2    -0.31580      0.3523264E-03      0.5817734E-03
        2    -0.05260      0.9495591E-04      0.3778888E-03
        2     0.21050      0.4272997E-04      0.2390873E-03
        2     0.47370      0.2407732E-04      0.1636353E-03
        2     0.73680      0.1543789E-04      0.1216869E-03
        2     1.00000      0.1073032E-04      0.9666086E-04
 
        3    -4.00000      0.1480836E-04      0.8043152E-04     1.0252
        3    -3.73680      0.1789183E-04      0.9535483E-04
        3    -3.47370      0.2398106E-04      0.1178622E-03
        3    -3.21050      0.3583615E-04      0.1548639E-03
        3    -2.94740      0.6242335E-04      0.2209438E-03
        3    -2.68420      0.1359293E-03      0.3442940E-03
        3    -2.42110      0.4709176E-03      0.5442334E-03
        3    -2.15790      0.2700420E-02      0.6685172E-03
        3    -1.89470      0.4708913E-03      0.5176640E-03
        3    -1.63160      0.1356030E-03      0.3242718E-03
        3    -1.36840      0.6195834E-04      0.2094044E-03
        3    -1.10530      0.3519104E-04      0.1478095E-03
        3    -0.84210      0.2261972E-04      0.1130643E-03
        3    -0.57890      0.1574584E-04      0.9190939E-04
        3    -0.31580      0.1158574E-04      0.7810709E-04
        3    -0.05260      0.8877985E-05      0.6859580E-04
        3     0.21050      0.7019635E-05      0.6176379E-04
        3     0.47370      0.5688213E-05      0.5669514E-04
        3     0.73680      0.4702456E-05      0.5283065E-04
        3     1.00000      0.3951876E-05      0.4981004E-04
 
        4    -4.00000      0.3963378E-04      0.1814235E-03     1.0437
        4    -3.73680      0.6813694E-04      0.2709297E-03
        4    -3.47370      0.1475347E-03      0.4334469E-03
        4    -3.21050      0.5016347E-03      0.6394833E-03
        4    -2.94740      0.2560378E-02      0.6355347E-03
        4    -2.68420      0.5013822E-03      0.4274853E-03
        4    -2.42110      0.1477993E-03      0.2666457E-03
        4    -2.15790      0.6816683E-04      0.1790019E-03
        4    -1.89470      0.3854449E-04      0.1314934E-03
        4    -1.63160      0.2476376E-04      0.1038350E-03
        4    -1.36840      0.1723904E-04      0.8644100E-04
        4    -1.10530      0.1268540E-04      0.7477290E-04
        4    -0.84210      0.9720035E-05      0.6654329E-04
        4    -0.57890      0.7682502E-05      0.6051101E-04
        4    -0.31580      0.6223107E-05      0.5595699E-04
        4    -0.05260      0.5141933E-05      0.5244056E-04
        4     0.21050      0.4321934E-05      0.4967615E-04
        4     0.47370      0.3683138E-05      0.4746795E-04
        4     0.73680      0.3176037E-05      0.4567525E-04
        4     1.00000      0.2766689E-05      0.4419535E-04
 
        5    -4.00000      0.1483095E-04      0.8043180E-04     1.0252
        5    -3.73680      0.1791694E-04      0.9535473E-04
        5    -3.47370      0.2401353E-04      0.1178600E-03
        5    -3.21050      0.3588438E-04      0.1548577E-03
        5    -2.94740      0.6250495E-04      0.2209316E-03
        5    -2.68420      0.1360966E-03      0.3442747E-03
        5    -2.42110      0.4713406E-03      0.5442097E-03
        5    -2.15790      0.2696761E-02      0.6684987E-03
        5    -1.89470      0.4713141E-03      0.5176514E-03
        5    -1.63160      0.1357696E-03      0.3242610E-03
        5    -1.36840      0.6204076E-04      0.2093961E-03
        5    -1.10530      0.3523840E-04      0.1478041E-03
        5    -0.84210      0.2265038E-04      0.1130611E-03
        5    -0.57890      0.1576727E-04      0.9190747E-04
        5    -0.31580      0.1160155E-04      0.7810584E-04
        5    -0.05260      0.8890125E-05      0.6859483E-04
        5     0.21050      0.7029246E-05      0.6176290E-04
        5     0.47370      0.5696010E-05      0.5669423E-04
        5     0.73680      0.4708906E-05      0.5282968E-04
        5     1.00000      0.3957299E-05      0.4980898E-04
 
        6    -4.00000      0.3772422E-05      0.4864437E-04     1.0041
        6    -3.73680      0.3713986E-05      0.5138340E-04
        6    -3.47370      0.3923649E-05      0.5454374E-04
        6    -3.21050      0.4292784E-05      0.5837037E-04
        6    -2.94740      0.4928464E-05      0.6319342E-04
        6    -2.68420      0.6217574E-05      0.6950027E-04
        6    -2.42110      0.8041637E-05      0.7809983E-04
        6    -2.15790      0.1079474E-04      0.9042922E-04
        6    -1.89470      0.1558287E-04      0.1091841E-03
        6    -1.63160      0.2422132E-04      0.1397274E-03
        6    -1.36840      0.4288186E-04      0.1932563E-03
        6    -1.10530      0.9517605E-04      0.2925685E-03
        6    -0.84210      0.3529200E-03      0.4676657E-03
        6    -0.57890      0.3799522E-02      0.6490680E-03
        6    -0.31580      0.3532704E-03      0.5817896E-03
        6    -0.05260      0.9525125E-04      0.3778850E-03
        6     0.21050      0.4286712E-04      0.2390849E-03
        6     0.47370      0.2415504E-04      0.1636363E-03
        6     0.73680      0.1548788E-04      0.1216901E-03
        6     1.00000      0.1076513E-04      0.9666490E-04
 
        7    -4.00000      0.3634566E-05      0.4861843E-04     1.0039
        7    -3.73680      0.3578783E-05      0.5134805E-04
        7    -3.47370      0.3786755E-05      0.5450022E-04
        7    -3.21050      0.4152807E-05      0.5832011E-04
        7    -2.94740      0.4812880E-05      0.6313825E-04
        7    -2.68420      0.6158993E-05      0.6944296E-04
        7    -2.42110      0.7943602E-05      0.7804508E-04
        7    -2.15790      0.1062889E-04      0.9038491E-04
        7    -1.89470      0.1531212E-04      0.1091622E-03
        7    -1.63160      0.2380538E-04      0.1397441E-03
        7    -1.36840      0.4215364E-04      0.1933289E-03
        7    -1.10530      0.9360277E-04      0.2927099E-03
        7    -0.84210      0.3478715E-03      0.4678623E-03
        7    -0.57890      0.3865860E-02      0.6492077E-03
        7    -0.31580      0.3482177E-03      0.5818030E-03
        7    -0.05260      0.9367453E-04      0.3778910E-03
        7     0.21050      0.4213976E-04      0.2391011E-03
        7     0.47370      0.2373849E-04      0.1636507E-03
        7     0.73680      0.1521961E-04      0.1216999E-03
        7     1.00000      0.1057826E-04      0.9667170E-04
 
        8    -4.00000      0.8230948E-05      0.6277627E-04     1.0074
        8    -3.73680      0.9082342E-05      0.7010676E-04
        8    -3.47370      0.1093712E-04      0.7986334E-04
        8    -3.21050      0.1406309E-04      0.9374500E-04
        8    -2.94740      0.1958782E-04      0.1149264E-03
        8    -2.68420      0.3021906E-04      0.1498269E-03
        8    -2.42110      0.5318899E-04      0.2120246E-03
        8    -2.15790      0.1169682E-03      0.3281715E-03
        8    -1.89470      0.4197882E-03      0.5210225E-03
        8    -1.63160      0.3056314E-02      0.6599788E-03
        8    -1.36840      0.4195450E-03      0.5271167E-03
        8    -1.10530      0.1169934E-03      0.3321615E-03
        8    -0.84210      0.5321989E-04      0.2133907E-03
        8    -0.57890      0.3010117E-04      0.1495406E-03
        8    -0.31580      0.1932759E-04      0.1136308E-03
        8    -0.05260      0.1344565E-04      0.9187246E-04
        8     0.21050      0.9890167E-05      0.7776123E-04
        8     0.47370      0.7577324E-05      0.6809637E-04
        8     0.73680      0.5990325E-05      0.6118352E-04
        8     1.00000      0.4853399E-05      0.5605747E-04
 
        9    -4.00000      0.2769517E-04      0.1189815E-03     1.0438
        9    -3.73680      0.4058179E-04      0.1574302E-03
        9    -3.47370      0.7028920E-04      0.2256194E-03
        9    -3.21050      0.1519449E-03      0.3525107E-03
        9    -2.94740      0.5111044E-03      0.5566387E-03
        9    -2.68420      0.2482191E-02      0.6781480E-03
        9    -2.42110      0.5114337E-03      0.5207245E-03
        9    -2.15790      0.1518874E-03      0.3254176E-03
        9    -1.89470      0.7005402E-04      0.2103301E-03
        9    -1.63160      0.3971796E-04      0.1487888E-03
        9    -1.36840      0.2553082E-04      0.1140986E-03
        9    -1.10530      0.1777853E-04      0.9296267E-04
        9    -0.84210      0.1308058E-04      0.7915008E-04
        9    -0.57890      0.1002156E-04      0.6960572E-04
        9    -0.31580      0.7920114E-05      0.6272436E-04
        9    -0.05260      0.6417937E-05      0.5760171E-04
        9     0.21050      0.5306249E-05      0.5369303E-04
        9     0.47370      0.4459640E-05      0.5064843E-04
        9     0.73680      0.3800253E-05      0.4823037E-04
        9     1.00000      0.3276724E-05      0.4627257E-04
 
       10    -4.00000      0.2819231E-02      0.6062582E-03     1.0000
       10    -3.73680      0.4400122E-03      0.4494200E-03
       10    -3.47370      0.1250915E-03      0.2800017E-03
       10    -3.21050      0.5710406E-04      0.1825210E-03
       10    -2.94740      0.3238838E-04      0.1304218E-03
       10    -2.68420      0.2082360E-04      0.1009437E-03
       10    -2.42110      0.1450363E-04      0.8287920E-04
       10    -2.15790      0.1067550E-04      0.7098383E-04
       10    -1.89470      0.8183888E-05      0.6269875E-04
       10    -1.63160      0.6472565E-05      0.5668274E-04
       10    -1.36840      0.5245834E-05      0.5217538E-04
       10    -1.10530      0.4337146E-05      0.4871358E-04
       10    -0.84210      0.3644789E-05      0.4599905E-04
       10    -0.57890      0.3105307E-05      0.4383274E-04
       10    -0.31580      0.2676966E-05      0.4207904E-04
       10    -0.05260      0.2331176E-05      0.4064332E-04
       10     0.21050      0.2048792E-05      0.3945650E-04
       10     0.47370      0.1813863E-05      0.3846563E-04
       10     0.73680      0.1613562E-05      0.3762848E-04
       10     1.00000      0.1439132E-05      0.3691223E-04
 
       11    -4.00000      0.2565673E-04      0.1255051E-03     1.0410
       11    -3.73680      0.3765476E-04      0.1688761E-03
       11    -3.47370      0.6538070E-04      0.2469617E-03
       11    -3.21050      0.1420203E-03      0.3912319E-03
       11    -2.94740      0.4873673E-03      0.6013599E-03
       11    -2.68420      0.2663321E-02      0.6630791E-03
       11    -2.42110      0.4876997E-03      0.4723616E-03
       11    -2.15790      0.1419856E-03      0.2938500E-03
       11    -1.89470      0.6519568E-04      0.1935168E-03
       11    -1.63160      0.3688321E-04      0.1395147E-03
       11    -1.36840      0.2369111E-04      0.1085532E-03
       11    -1.10530      0.1649088E-04      0.8938320E-04
       11    -0.84210      0.1213044E-04      0.7669540E-04
       11    -0.57890      0.9292447E-05      0.6784437E-04
       11    -0.31580      0.7343434E-05      0.6141684E-04
       11    -0.05260      0.5950208E-05      0.5660517E-04
       11     0.21050      0.4919265E-05      0.5291705E-04
       11     0.47370      0.4134237E-05      0.5003330E-04
       11     0.73680      0.3522889E-05      0.4773560E-04
       11     1.00000      0.3037530E-05      0.4587030E-04
 
       12    -4.00000      0.3642876E-05      0.5312047E-04     1.0052
       12    -3.73680      0.3668046E-05      0.5712708E-04
       12    -3.47370      0.4018077E-05      0.6202501E-04
       12    -3.21050      0.4778043E-05      0.6832727E-04
       12    -2.94740      0.6209257E-05      0.7683225E-04
       12    -2.68420      0.8091696E-05      0.8889885E-04
       12    -2.42110      0.1073530E-04      0.1070620E-03
       12    -2.15790      0.1504218E-04      0.1363707E-03
       12    -1.89470      0.2314027E-04      0.1873594E-03
       12    -1.63160      0.4087762E-04      0.2816603E-03
       12    -1.36840      0.9095804E-04      0.4502360E-03
       12    -1.10530      0.3399095E-03      0.6404849E-03
       12    -0.84210      0.3984458E-02      0.5970493E-03
       12    -0.57890      0.3400176E-03      0.3927535E-03
       12    -0.31580      0.9129474E-04      0.2473118E-03
       12    -0.05260      0.4115136E-04      0.1680547E-03
       12     0.21050      0.2310569E-04      0.1242987E-03
       12     0.47370      0.1480580E-04      0.9841202E-04
       12     0.73680      0.1029153E-04      0.8198735E-04
       12     1.00000      0.7564350E-05      0.7092828E-04
 
       13    -4.00000      0.1453072E-04      0.8038431E-04     1.0245
       13    -3.73680      0.1757147E-04      0.9529993E-04
       13    -3.47370      0.2357012E-04      0.1178052E-03
       13    -3.21050      0.3524426E-04      0.1548063E-03
       13    -2.94740      0.6142599E-04      0.2208715E-03
       13    -2.68420      0.1338880E-03      0.3441568E-03
       13    -2.42110      0.4656930E-03      0.5439853E-03
       13    -2.15790      0.2741922E-02      0.6683606E-03
       13    -1.89470      0.4656708E-03      0.5177135E-03
       13    -1.63160      0.1335766E-03      0.3243533E-03
       13    -1.36840      0.6097698E-04      0.2094557E-03
       13    -1.10530      0.3462363E-04      0.1478287E-03
       13    -0.84210      0.2225198E-04      0.1130617E-03
       13    -0.57890      0.1548868E-04      0.9189495E-04
       13    -0.31580      0.1139602E-04      0.7808765E-04
       13    -0.05260      0.8732368E-05      0.6857535E-04
       13     0.21050      0.6904361E-05      0.6174430E-04
       13     0.47370      0.5594730E-05      0.5667742E-04
       13     0.73680      0.4625138E-05      0.5281498E-04
       13     1.00000      0.3886877E-05      0.4979652E-04
 
       14    -4.00000      0.2712648E-04      0.1187735E-03     1.0424
       14    -3.73680      0.3974690E-04      0.1571238E-03
       14    -3.47370      0.6888222E-04      0.2251130E-03
       14    -3.21050      0.1491023E-03      0.3515985E-03
       14    -2.94740      0.5043779E-03      0.5553251E-03
       14    -2.68420      0.2528464E-02      0.6777095E-03
       14    -2.42110      0.5047050E-03      0.5212802E-03
       14    -2.15790      0.1490332E-03      0.3258963E-03
       14    -1.89470      0.6863811E-04      0.2105865E-03
       14    -1.63160      0.3889838E-04      0.1489027E-03
       14    -1.36840      0.2500000E-04      0.1141346E-03
       14    -1.10530      0.1740718E-04      0.9295857E-04
       14    -0.84210      0.1280659E-04      0.7912654E-04
       14    -0.57890      0.9811291E-05      0.6957357E-04
       14    -0.31580      0.7753773E-05      0.6268911E-04
       14    -0.05260      0.6283023E-05      0.5756605E-04
       14     0.21050      0.5194628E-05      0.5365816E-04
       14     0.47370      0.4365782E-05      0.5061487E-04
       14     0.73680      0.3720251E-05      0.4819838E-04
       14     1.00000      0.3207728E-05      0.4624231E-04
 
       15    -4.00000      0.3308422E-02      0.1061703E-03     1.0000
       15    -3.73680      0.3913234E-03      0.8699591E-04
       15    -3.47370      0.1077498E-03      0.7449450E-04
       15    -3.21050      0.4883531E-04      0.6585762E-04
       15    -2.94740      0.2763220E-04      0.5960542E-04
       15    -2.68420      0.1774570E-04      0.5490948E-04
       15    -2.42110      0.1235149E-04      0.5128135E-04
       15    -2.15790      0.9087415E-05      0.4841926E-04
       15    -1.89470      0.6964382E-05      0.4612629E-04
       15    -1.63160      0.5506933E-05      0.4426633E-04
       15    -1.36840      0.4462584E-05      0.4274097E-04
       15    -1.10530      0.3689237E-05      0.4147684E-04
       15    -0.84210      0.3100159E-05      0.4041825E-04
       15    -0.57890      0.2641263E-05      0.3952323E-04
       15    -0.31580      0.2276974E-05      0.3876064E-04
       15    -0.05260      0.1982913E-05      0.3810722E-04
       15     0.21050      0.1742715E-05      0.3754462E-04
       15     0.47370      0.1542991E-05      0.3705727E-04
       15     0.73680      0.1373145E-05      0.3663142E-04
       15     1.00000      0.1225829E-05      0.3625554E-04
 
       16    -4.00000      0.3660562E-02      0.6785961E-04     1.0000
       16    -3.73680      0.3614200E-03      0.6116955E-04
       16    -3.47370      0.9800179E-04      0.5619061E-04
       16    -3.21050      0.4427701E-04      0.5236930E-04
       16    -2.94740      0.2499611E-04      0.4936587E-04
       16    -2.68420      0.1604127E-04      0.4695727E-04
       16    -2.42110      0.1116084E-04      0.4499463E-04
       16    -2.15790      0.8209418E-05      0.4337685E-04
       16    -1.89470      0.6290480E-05      0.4203202E-04
       16    -1.63160      0.4973499E-05      0.4090599E-04
       16    -1.36840      0.4030001E-05      0.3995653E-04
       16    -1.10530      0.3331455E-05      0.3914998E-04
       16    -0.84210      0.2799433E-05      0.3845939E-04
       16    -0.57890      0.2385038E-05      0.3786361E-04
       16    -0.31580      0.2056110E-05      0.3734662E-04
       16    -0.05260      0.1790604E-05      0.3689626E-04
       16     0.21050      0.1573702E-05      0.3650265E-04
       16     0.47370      0.1393400E-05      0.3615700E-04
       16     0.73680      0.1240292E-05      0.3585113E-04
       16     1.00000      0.1107792E-05      0.3557795E-04
 
       17    -4.00000      0.3052210E-02      0.2307468E-03     1.0000
       17    -3.73680      0.4157417E-03      0.1575024E-03
       17    -3.47370      0.1161943E-03      0.1173987E-03
       17    -3.21050      0.5283432E-04      0.9383403E-04
       17    -2.94740      0.2993338E-04      0.7888978E-04
       17    -2.68420      0.1923431E-04      0.6876906E-04
       17    -2.42110      0.1339200E-04      0.6155307E-04
       17    -2.15790      0.9855026E-05      0.5620793E-04
       17    -1.89470      0.7553737E-05      0.5213626E-04
       17    -1.63160      0.5973540E-05      0.4896790E-04
       17    -1.36840      0.4841031E-05      0.4645932E-04
       17    -1.10530      0.4002274E-05      0.4444271E-04
       17    -0.84210      0.3363288E-05      0.4279876E-04
       17    -0.57890      0.2865456E-05      0.4144169E-04
       17    -0.31580      0.2470223E-05      0.4030993E-04
       17    -0.05260      0.2151172E-05      0.3935867E-04
       17     0.21050      0.1890592E-05      0.3855372E-04
       17     0.47370      0.1673864E-05      0.3786740E-04
       17     0.73680      0.1489327E-05      0.3727632E-04
       17     1.00000      0.1328956E-05      0.3676159E-04
 
       18    -4.00000      0.2564459E-04      0.1254513E-03     1.0410
       18    -3.73680      0.3761849E-04      0.1687806E-03
       18    -3.47370      0.6531206E-04      0.2467816E-03
       18    -3.21050      0.1418735E-03      0.3909084E-03
       18    -2.94740      0.4869913E-03      0.6010303E-03
       18    -2.68420      0.2666620E-02      0.6632833E-03
       18    -2.42110      0.4873233E-03      0.4727756E-03
       18    -2.15790      0.1418324E-03      0.2941168E-03
       18    -1.89470      0.6511767E-04      0.1936636E-03
       18    -1.63160      0.3683870E-04      0.1395965E-03
       18    -1.36840      0.2366241E-04      0.1086009E-03
       18    -1.10530      0.1647083E-04      0.8941311E-04
       18    -0.84210      0.1211563E-04      0.7671592E-04
       18    -0.57890      0.9281073E-05      0.6785978E-04
       18    -0.31580      0.7334420E-05      0.6142922E-04
       18    -0.05260      0.5942888E-05      0.5661553E-04
       18     0.21050      0.4913208E-05      0.5292591E-04
       18     0.47370      0.4129140E-05      0.5004091E-04
       18     0.73680      0.3518538E-05      0.4774216E-04
       18     1.00000      0.3033772E-05      0.4587594E-04
 
       19    -4.00000      0.3900393E-04      0.1814273E-03     1.0432
       19    -3.73680      0.6709676E-04      0.2709153E-03
       19    -3.47370      0.1454306E-03      0.4333688E-03
       19    -3.21050      0.4965873E-03      0.6394017E-03
       19    -2.94740      0.2599873E-02      0.6356889E-03
       19    -2.68420      0.4963378E-03      0.4277216E-03
       19    -2.42110      0.1457020E-03      0.2668223E-03
       19    -2.15790      0.6713961E-04      0.1791094E-03
       19    -1.89470      0.3794156E-04      0.1315510E-03
       19    -1.63160      0.2437208E-04      0.1038624E-03
       19    -1.36840      0.1696481E-04      0.8645210E-04
       19    -1.10530      0.1248294E-04      0.7477589E-04
       19    -0.84210      0.9564595E-05      0.6654263E-04
       19    -0.57890      0.7559516E-05      0.6050905E-04
       19    -0.31580      0.6123439E-05      0.5595495E-04
       19    -0.05260      0.5059570E-05      0.5243908E-04
       19     0.21050      0.4252662E-05      0.4967549E-04
       19     0.47370      0.3624076E-05      0.4746827E-04
       19     0.73680      0.3125086E-05      0.4567668E-04
       19     1.00000      0.2722294E-05      0.4419804E-04
 
       20    -4.00000      0.2836318E-02      0.6071259E-03     1.0000
       20    -3.73680      0.4381481E-03      0.4504456E-03
       20    -3.47370      0.1243714E-03      0.2806775E-03
       20    -3.21050      0.5675248E-04      0.1829303E-03
       20    -2.94740      0.3219176E-04      0.1306812E-03
       20    -2.68420      0.2069707E-04      0.1011200E-03
       20    -2.42110      0.1441528E-04      0.8300863E-04
       20    -2.15790      0.1061034E-04      0.7108621E-04
       20    -1.89470      0.8133864E-05      0.6278498E-04
       20    -1.63160      0.6432960E-05      0.5675888E-04
       20    -1.36840      0.5213713E-05      0.5224479E-04
       20    -1.10530      0.4310578E-05      0.4877818E-04
       20    -0.84210      0.3622457E-05      0.4606001E-04
       20    -0.57890      0.3086282E-05      0.4389075E-04
       20    -0.31580      0.2660568E-05      0.4213458E-04
       20    -0.05260      0.2316901E-05      0.4069670E-04
       20     0.21050      0.2036246E-05      0.3950801E-04
       20     0.47370      0.1802762E-05      0.3851551E-04
       20     0.73680      0.1603714E-05      0.3767697E-04
       20     1.00000      0.1430402E-05      0.3695952E-04
 
       21    -4.00000      0.3679007E-02      0.6788852E-04     1.0000
       21    -3.73680      0.3599651E-03      0.6119190E-04
       21    -3.47370      0.9754223E-04      0.5620896E-04
       21    -3.21050      0.4406268E-04      0.5238515E-04
       21    -2.94740      0.2487194E-04      0.4938014E-04
       21    -2.68420      0.1596103E-04      0.4697058E-04
       21    -2.42110      0.1110480E-04      0.4500740E-04
       21    -2.15790      0.8168109E-05      0.4338938E-04
       21    -1.89470      0.6258779E-05      0.4204448E-04
       21    -1.63160      0.4948409E-05      0.4091846E-04
       21    -1.36840      0.4009656E-05      0.3996898E-04
       21    -1.10530      0.3314629E-05      0.3916239E-04
       21    -0.84210      0.2785291E-05      0.3847175E-04
       21    -0.57890      0.2372988E-05      0.3787593E-04
       21    -0.31580      0.2045724E-05      0.3735892E-04
       21    -0.05260      0.1781560E-05      0.3690857E-04
       21     0.21050      0.1565753E-05      0.3651499E-04
       21     0.47370      0.1386365E-05      0.3616937E-04
       21     0.73680      0.1234043E-05      0.3586355E-04
       21     1.00000      0.1102237E-05      0.3559044E-04
 
       22    -4.00000      0.4333351E-02      0.4849309E-04     1.0000
       22    -3.73680      0.3141164E-03      0.4642012E-04
       22    -3.47370      0.8349322E-04      0.4468967E-04
       22    -3.21050      0.3756601E-04      0.4323462E-04
       22    -2.94740      0.2113531E-04      0.4200349E-04
       22    -2.68420      0.1355151E-04      0.4095358E-04
       22    -2.42110      0.9423915E-05      0.4005215E-04
       22    -2.15790      0.6929642E-05      0.3927490E-04
       22    -1.89470      0.5308725E-05      0.3860295E-04
       22    -1.63160      0.4196670E-05      0.3802056E-04
       22    -1.36840      0.3400201E-05      0.3751413E-04
       22    -1.10530      0.2810646E-05      0.3707184E-04
       22    -0.84210      0.2361723E-05      0.3668350E-04
       22    -0.57890      0.2012117E-05      0.3634070E-04
       22    -0.31580      0.1734655E-05      0.3603695E-04
       22    -0.05260      0.1510702E-05      0.3576727E-04
       22     0.21050      0.1327709E-05      0.3552746E-04
       22     0.47370      0.1175659E-05      0.3531352E-04
       22     0.73680      0.1046813E-05      0.3512144E-04
       22     1.00000      0.9356778E-06      0.3494757E-04
 
       23    -4.00000      0.3679011E-02      0.6788854E-04     1.0000
       23    -3.73680      0.3599647E-03      0.6119192E-04
       23    -3.47370      0.9754213E-04      0.5620898E-04
       23    -3.21050      0.4406263E-04      0.5238517E-04
       23    -2.94740      0.2487192E-04      0.4938015E-04
       23    -2.68420      0.1596101E-04      0.4697059E-04
       23    -2.42110      0.1110479E-04      0.4500741E-04
       23    -2.15790      0.8168100E-05      0.4338940E-04
       23    -1.89470      0.6258772E-05      0.4204450E-04
       23    -1.63160      0.4948403E-05      0.4091847E-04
       23    -1.36840      0.4009652E-05      0.3996900E-04
       23    -1.10530      0.3314625E-05      0.3916241E-04
       23    -0.84210      0.2785288E-05      0.3847176E-04
       23    -0.57890      0.2372986E-05      0.3787594E-04
       23    -0.31580      0.2045721E-05      0.3735893E-04
       23    -0.05260      0.1781558E-05      0.3690858E-04
       23     0.21050      0.1565751E-05      0.3651500E-04
       23     0.47370      0.1386363E-05      0.3616938E-04
       23     0.73680      0.1234041E-05      0.3586356E-04
       23     1.00000      0.1102235E-05      0.3559046E-04
 
       24    -4.00000      0.2836320E-02      0.6071259E-03     1.0000
       24    -3.73680      0.4381478E-03      0.4504457E-03
       24    -3.47370      0.1243713E-03      0.2806776E-03
       24    -3.21050      0.5675244E-04      0.1829303E-03
       24    -2.94740      0.3219173E-04      0.1306813E-03
       24    -2.68420      0.2069705E-04      0.1011201E-03
       24    -2.42110      0.1441527E-04      0.8300865E-04
       24    -2.15790      0.1061033E-04      0.7108622E-04
       24    -1.89470      0.8133856E-05      0.6278499E-04
       24    -1.63160      0.6432954E-05      0.5675889E-04
       24    -1.36840      0.5213709E-05      0.5224480E-04
       24    -1.10530      0.4310574E-05      0.4877819E-04
       24    -0.84210      0.3622454E-05      0.4606002E-04
       24    -0.57890      0.3086279E-05      0.4389076E-04
       24    -0.31580      0.2660566E-05      0.4213459E-04
       24    -0.05260      0.2316899E-05      0.4069671E-04
       24     0.21050      0.2036245E-05      0.3950802E-04
       24     0.47370      0.1802761E-05      0.3851552E-04
       24     0.73680      0.1603712E-05      0.3767698E-04
       24     1.00000      0.1430401E-05      0.3695952E-04
 
       25    -4.00000      0.1453069E-04      0.8038431E-04     1.0245
       25    -3.73680      0.1757143E-04      0.9529993E-04
       25    -3.47370      0.2357007E-04      0.1178052E-03
       25    -3.21050      0.3524420E-04      0.1548063E-03
       25    -2.94740      0.6142589E-04      0.2208715E-03
       25    -2.68420      0.1338878E-03      0.3441568E-03
       25    -2.42110      0.4656925E-03      0.5439853E-03
       25    -2.15790      0.2741926E-02      0.6683607E-03
       25    -1.89470      0.4656702E-03      0.5177135E-03
       25    -1.63160      0.1335764E-03      0.3243533E-03
       25    -1.36840      0.6097688E-04      0.2094557E-03
       25    -1.10530      0.3462357E-04      0.1478287E-03
       25    -0.84210      0.2225194E-04      0.1130617E-03
       25    -0.57890      0.1548866E-04      0.9189495E-04
       25    -0.31580      0.1139600E-04      0.7808765E-04
       25    -0.05260      0.8732354E-05      0.6857535E-04
       25     0.21050      0.6904349E-05      0.6174430E-04
       25     0.47370      0.5594720E-05      0.5667742E-04
       25     0.73680      0.4625130E-05      0.5281498E-04
       25     1.00000      0.3886870E-05      0.4979652E-04
 
       26    -4.00000      0.2564457E-04      0.1254513E-03     1.0410
       26    -3.73680      0.3761846E-04      0.1687806E-03
       26    -3.47370      0.6531201E-04      0.2467816E-03
       26    -3.21050      0.1418734E-03      0.3909083E-03
       26    -2.94740      0.4869911E-03      0.6010302E-03
       26    -2.68420      0.2666622E-02      0.6632834E-03
       26    -2.42110      0.4873230E-03      0.4727757E-03
       26    -2.15790      0.1418323E-03      0.2941169E-03
       26    -1.89470      0.6511761E-04      0.1936637E-03
       26    -1.63160      0.3683867E-04      0.1395965E-03
       26    -1.36840      0.2366239E-04      0.1086009E-03
       26    -1.10530      0.1647081E-04      0.8941312E-04
       26    -0.84210      0.1211562E-04      0.7671592E-04
       26    -0.57890      0.9281065E-05      0.6785978E-04
       26    -0.31580      0.7334414E-05      0.6142922E-04
       26    -0.05260      0.5942883E-05      0.5661553E-04
       26     0.21050      0.4913204E-05      0.5292591E-04
       26     0.47370      0.4129137E-05      0.5004091E-04
       26     0.73680      0.3518535E-05      0.4774216E-04
       26     1.00000      0.3033770E-05      0.4587594E-04
 
       27    -4.00000      0.3052212E-02      0.2307469E-03     1.0000
       27    -3.73680      0.4157415E-03      0.1575024E-03
       27    -3.47370      0.1161942E-03      0.1173988E-03
       27    -3.21050      0.5283428E-04      0.9383405E-04
       27    -2.94740      0.2993335E-04      0.7888979E-04
       27    -2.68420      0.1923429E-04      0.6876907E-04
       27    -2.42110      0.1339198E-04      0.6155308E-04
       27    -2.15790      0.9855016E-05      0.5620794E-04
       27    -1.89470      0.7553730E-05      0.5213627E-04
       27    -1.63160      0.5973535E-05      0.4896791E-04
       27    -1.36840      0.4841026E-05      0.4645933E-04
       27    -1.10530      0.4002270E-05      0.4444272E-04
       27    -0.84210      0.3363285E-05      0.4279877E-04
       27    -0.57890      0.2865453E-05      0.4144170E-04
       27    -0.31580      0.2470220E-05      0.4030994E-04
       27    -0.05260      0.2151170E-05      0.3935868E-04
       27     0.21050      0.1890590E-05      0.3855373E-04
       27     0.47370      0.1673862E-05      0.3786741E-04
       27     0.73680      0.1489325E-05      0.3727633E-04
       27     1.00000      0.1328955E-05      0.3676159E-04
 
       28    -4.00000      0.3660562E-02      0.6785960E-04     1.0000
       28    -3.73680      0.3614200E-03      0.6116955E-04
       28    -3.47370      0.9800177E-04      0.5619061E-04
       28    -3.21050      0.4427700E-04      0.5236930E-04
       28    -2.94740      0.2499611E-04      0.4936587E-04
       28    -2.68420      0.1604127E-04      0.4695727E-04
       28    -2.42110      0.1116084E-04      0.4499463E-04
       28    -2.15790      0.8209418E-05      0.4337685E-04
       28    -1.89470      0.6290480E-05      0.4203202E-04
       28    -1.63160      0.4973499E-05      0.4090599E-04
       28    -1.36840      0.4030001E-05      0.3995653E-04
       28    -1.10530      0.3331455E-05      0.3914998E-04
       28    -0.84210      0.2799433E-05      0.3845939E-04
       28    -0.57890      0.2385038E-05      0.3786361E-04
       28    -0.31580      0.2056110E-05      0.3734662E-04
       28    -0.05260      0.1790604E-05      0.3689626E-04
       28     0.21050      0.1573702E-05      0.3650265E-04
       28     0.47370      0.1393400E-05      0.3615700E-04
       28     0.73680      0.1240292E-05      0.3585113E-04
       28     1.00000      0.1107792E-05      0.3557795E-04
 
       29    -4.00000      0.3291830E-02      0.1061464E-03     1.0000
       29    -3.73680      0.3928393E-03      0.8698312E-04
       29    -3.47370      0.1082634E-03      0.7448807E-04
       29    -3.21050      0.4907630E-04      0.6585448E-04
       29    -2.94740      0.2777064E-04      0.5960368E-04
       29    -2.68420      0.1783517E-04      0.5490808E-04
       29    -2.42110      0.1241400E-04      0.5127976E-04
       29    -2.15790      0.9133513E-05      0.4841728E-04
       29    -1.89470      0.6999768E-05      0.4612388E-04
       29    -1.63160      0.5534944E-05      0.4426351E-04
       29    -1.36840      0.4485301E-05      0.4273780E-04
       29    -1.10530      0.3708026E-05      0.4147338E-04
       29    -0.84210      0.3115952E-05      0.4041456E-04
       29    -0.57890      0.2654718E-05      0.3951938E-04
       29    -0.31580      0.2288572E-05      0.3875666E-04
       29    -0.05260      0.1993011E-05      0.3810315E-04
       29     0.21050      0.1751590E-05      0.3754048E-04
       29     0.47370      0.1550845E-05      0.3705308E-04
       29     0.73680      0.1380119E-05      0.3662718E-04
       29     1.00000      0.1232022E-05      0.3625124E-04
 
       30    -4.00000      0.2712646E-04      0.1187735E-03     1.0424
       30    -3.73680      0.3974686E-04      0.1571238E-03
       30    -3.47370      0.6888216E-04      0.2251129E-03
       30    -3.21050      0.1491021E-03      0.3515983E-03
       30    -2.94740      0.5043776E-03      0.5553249E-03
       30    -2.68420      0.2528465E-02      0.6777094E-03
       30    -2.42110      0.5047047E-03      0.5212803E-03
       30    -2.15790      0.1490330E-03      0.3258964E-03
       30    -1.89470      0.6863804E-04      0.2105865E-03
       30    -1.63160      0.3889834E-04      0.1489027E-03
       30    -1.36840      0.2499998E-04      0.1141346E-03
       30    -1.10530      0.1740716E-04      0.9295857E-04
       30    -0.84210      0.1280658E-04      0.7912653E-04
       30    -0.57890      0.9811282E-05      0.6957356E-04
       30    -0.31580      0.7753765E-05      0.6268910E-04
       30    -0.05260      0.6283017E-05      0.5756605E-04
       30     0.21050      0.5194623E-05      0.5365816E-04
       30     0.47370      0.4365777E-05      0.5061486E-04
       30     0.73680      0.3720248E-05      0.4819838E-04
       30     1.00000      0.3207725E-05      0.4624230E-04
 
       31    -4.00000      0.3634568E-05      0.4861843E-04     1.0039
       31    -3.73680      0.3578784E-05      0.5134805E-04
       31    -3.47370      0.3786755E-05      0.5450022E-04
       31    -3.21050      0.4152805E-05      0.5832010E-04
       31    -2.94740      0.4812871E-05      0.6313825E-04
       31    -2.68420      0.6158982E-05      0.6944296E-04
       31    -2.42110      0.7943589E-05      0.7804508E-04
       31    -2.15790      0.1062887E-04      0.9038492E-04
       31    -1.89470      0.1531211E-04      0.1091622E-03
       31    -1.63160      0.2380535E-04      0.1397441E-03
       31    -1.36840      0.4215359E-04      0.1933289E-03
       31    -1.10530      0.9360266E-04      0.2927099E-03
       31    -0.84210      0.3478712E-03      0.4678624E-03
       31    -0.57890      0.3865865E-02      0.6492077E-03
       31    -0.31580      0.3482174E-03      0.5818030E-03
       31    -0.05260      0.9367442E-04      0.3778909E-03
       31     0.21050      0.4213970E-04      0.2391011E-03
       31     0.47370      0.2373846E-04      0.1636507E-03
       31     0.73680      0.1521960E-04      0.1216999E-03
       31     1.00000      0.1057825E-04      0.9667169E-04
 
       32    -4.00000      0.3642876E-05      0.5312047E-04     1.0052
       32    -3.73680      0.3668049E-05      0.5712708E-04
       32    -3.47370      0.4018080E-05      0.6202501E-04
       32    -3.21050      0.4778043E-05      0.6832727E-04
       32    -2.94740      0.6209253E-05      0.7683225E-04
       32    -2.68420      0.8091692E-05      0.8889884E-04
       32    -2.42110      0.1073530E-04      0.1070620E-03
       32    -2.15790      0.1504217E-04      0.1363707E-03
       32    -1.89470      0.2314027E-04      0.1873594E-03
       32    -1.63160      0.4087763E-04      0.2816603E-03
       32    -1.36840      0.9095804E-04      0.4502360E-03
       32    -1.10530      0.3399095E-03      0.6404849E-03
       32    -0.84210      0.3984458E-02      0.5970493E-03
       32    -0.57890      0.3400176E-03      0.3927535E-03
       32    -0.31580      0.9129474E-04      0.2473118E-03
       32    -0.05260      0.4115136E-04      0.1680547E-03
       32     0.21050      0.2310569E-04      0.1242987E-03
       32     0.47370      0.1480580E-04      0.9841202E-04
       32     0.73680      0.1029153E-04      0.8198735E-04
       32     1.00000      0.7564350E-05      0.7092828E-04
 
       33    -4.00000      0.2565671E-04      0.1255051E-03     1.0410
       33    -3.73680      0.3765472E-04      0.1688760E-03
       33    -3.47370      0.6538063E-04      0.2469617E-03
       33    -3.21050      0.1420202E-03      0.3912318E-03
       33    -2.94740      0.4873670E-03      0.6013598E-03
       33    -2.68420      0.2663322E-02      0.6630791E-03
       33    -2.42110      0.4876993E-03      0.4723615E-03
       33    -2.15790      0.1419854E-03      0.2938499E-03
       33    -1.89470      0.6519561E-04      0.1935167E-03
       33    -1.63160      0.3688317E-04      0.1395147E-03
       33    -1.36840      0.2369109E-04      0.1085532E-03
       33    -1.10530      0.1649087E-04      0.8938319E-04
       33    -0.84210      0.1213042E-04      0.7669538E-04
       33    -0.57890      0.9292437E-05      0.6784436E-04
       33    -0.31580      0.7343426E-05      0.6141683E-04
       33    -0.05260      0.5950202E-05      0.5660516E-04
       33     0.21050      0.4919260E-05      0.5291705E-04
       33     0.47370      0.4134233E-05      0.5003329E-04
       33     0.73680      0.3522886E-05      0.4773560E-04
       33     1.00000      0.3037527E-05      0.4587030E-04
 
       34    -4.00000      0.2819233E-02      0.6062583E-03     1.0000
       34    -3.73680      0.4400119E-03      0.4494202E-03
       34    -3.47370      0.1250914E-03      0.2800018E-03
       34    -3.21050      0.5710402E-04      0.1825211E-03
       34    -2.94740      0.3238835E-04      0.1304219E-03
       34    -2.68420      0.2082358E-04      0.1009437E-03
       34    -2.42110      0.1450362E-04      0.8287921E-04
       34    -2.15790      0.1067549E-04      0.7098385E-04
       34    -1.89470      0.8183881E-05      0.6269876E-04
       34    -1.63160      0.6472559E-05      0.5668275E-04
       34    -1.36840      0.5245830E-05      0.5217540E-04
       34    -1.10530      0.4337143E-05      0.4871359E-04
       34    -0.84210      0.3644785E-05      0.4599906E-04
       34    -0.57890      0.3105304E-05      0.4383274E-04
       34    -0.31580      0.2676963E-05      0.4207905E-04
       34    -0.05260      0.2331174E-05      0.4064332E-04
       34     0.21050      0.2048790E-05      0.3945651E-04
       34     0.47370      0.1813861E-05      0.3846563E-04
       34     0.73680      0.1613561E-05      0.3762849E-04
       34     1.00000      0.1439131E-05      0.3691223E-04
 
       35    -4.00000      0.2769515E-04      0.1189815E-03     1.0438
       35    -3.73680      0.4058177E-04      0.1574301E-03
       35    -3.47370      0.7028915E-04      0.2256194E-03
       35    -3.21050      0.1519448E-03      0.3525106E-03
       35    -2.94740      0.5111042E-03      0.5566385E-03
       35    -2.68420      0.2482192E-02      0.6781480E-03
       35    -2.42110      0.5114334E-03      0.5207247E-03
       35    -2.15790      0.1518873E-03      0.3254178E-03
       35    -1.89470      0.7005397E-04      0.2103301E-03
       35    -1.63160      0.3971793E-04      0.1487889E-03
       35    -1.36840      0.2553080E-04      0.1140987E-03
       35    -1.10530      0.1777852E-04      0.9296268E-04
       35    -0.84210      0.1308057E-04      0.7915009E-04
       35    -0.57890      0.1002156E-04      0.6960573E-04
       35    -0.31580      0.7920108E-05      0.6272436E-04
       35    -0.05260      0.6417932E-05      0.5760172E-04
       35     0.21050      0.5306245E-05      0.5369303E-04
       35     0.47370      0.4459636E-05      0.5064843E-04
       35     0.73680      0.3800250E-05      0.4823037E-04
       35     1.00000      0.3276721E-05      0.4627257E-04
 
       36    -4.00000      0.8232542E-05      0.6277643E-04     1.0074
       36    -3.73680      0.9084004E-05      0.7010698E-04
       36    -3.47370      0.1093896E-04      0.7986359E-04
       36    -3.21050      0.1406527E-04      0.9374522E-04
       36    -2.94740      0.1959064E-04      0.1149266E-03
       36    -2.68420      0.3022315E-04      0.1498268E-03
       36    -2.42110      0.5319605E-04      0.2120243E-03
       36    -2.15790      0.1169831E-03      0.3281712E-03
       36    -1.89470      0.4198302E-03      0.5210224E-03
       36    -1.63160      0.3055906E-02      0.6599780E-03
       36    -1.36840      0.4195870E-03      0.5271149E-03
       36    -1.10530      0.1170084E-03      0.3321599E-03
       36    -0.84210      0.5322701E-04      0.2133897E-03
       36    -0.57890      0.3010524E-04      0.1495400E-03
       36    -0.31580      0.1933021E-04      0.1136305E-03
       36    -0.05260      0.1344748E-04      0.9187231E-04
       36     0.21050      0.9891517E-05      0.7776115E-04
       36     0.47370      0.7578360E-05      0.6809633E-04
       36     0.73680      0.5991145E-05      0.6118348E-04
       36     1.00000      0.4854063E-05      0.5605744E-04
 
       37    -4.00000      0.3767182E-05      0.4864271E-04     1.0040
       37    -3.73680      0.3708480E-05      0.5138148E-04
       37    -3.47370      0.3917658E-05      0.5454158E-04
       37    -3.21050      0.4286229E-05      0.5836796E-04
       37    -2.94740      0.4921546E-05      0.6319075E-04
       37    -2.68420      0.6215468E-05      0.6949733E-04
       37    -2.42110      0.8038309E-05      0.7809661E-04
       37    -2.15790      0.1078846E-04      0.9042570E-04
       37    -1.89470      0.1556916E-04      0.1091802E-03
       37    -1.63160      0.2420147E-04      0.1397230E-03
       37    -1.36840      0.4284741E-04      0.1932503E-03
       37    -1.10530      0.9510230E-04      0.2925587E-03
       37    -0.84210      0.3526855E-03      0.4676488E-03
       37    -0.57890      0.3802327E-02      0.6490507E-03
       37    -0.31580      0.3530357E-03      0.5817857E-03
       37    -0.05260      0.9517779E-04      0.3778860E-03
       37     0.21050      0.4283300E-04      0.2390855E-03
       37     0.47370      0.2413570E-04      0.1636361E-03
       37     0.73680      0.1547544E-04      0.1216893E-03
       37     1.00000      0.1075647E-04      0.9666391E-04
 
       38    -4.00000      0.8194600E-05      0.6277255E-04     1.0074
       38    -3.73680      0.9044354E-05      0.7010162E-04
       38    -3.47370      0.1089478E-04      0.7985753E-04
       38    -3.21050      0.1401289E-04      0.9373967E-04
       38    -2.94740      0.1952276E-04      0.1149232E-03
       38    -2.68420      0.3012420E-04      0.1498274E-03
       38    -2.42110      0.5302535E-04      0.2120291E-03
       38    -2.15790      0.1166237E-03      0.3281761E-03
       38    -1.89470      0.4188148E-03      0.5210229E-03
       38    -1.63160      0.3065761E-02      0.6599963E-03
       38    -1.36840      0.4185720E-03      0.5271568E-03
       38    -1.10530      0.1166480E-03      0.3321960E-03
       38    -0.84210      0.5305533E-04      0.2134133E-03
       38    -0.57890      0.3000710E-04      0.1495537E-03
       38    -0.31580      0.1926686E-04      0.1136377E-03
       38    -0.05260      0.1340327E-04      0.9187585E-04
       38     0.21050      0.9858928E-05      0.7776277E-04
       38     0.47370      0.7553358E-05      0.6809711E-04
       38     0.73680      0.5971362E-05      0.6118407E-04
       38     1.00000      0.4838025E-05      0.5605820E-04
 
       39    -4.00000      0.2724490E-04      0.1188069E-03     1.0426
       39    -3.73680      0.3991189E-04      0.1571724E-03
       39    -3.47370      0.6915681E-04      0.2251937E-03
       39    -3.21050      0.1496543E-03      0.3517480E-03
       39    -2.94740      0.5056742E-03      0.5555380E-03
       39    -2.68420      0.2519006E-02      0.6777415E-03
       39    -2.42110      0.5060014E-03      0.5211321E-03
       39    -2.15790      0.1495842E-03      0.3257827E-03
       39    -1.89470      0.6890886E-04      0.2105265E-03
       39    -1.63160      0.3905593E-04      0.1488751E-03
       39    -1.36840      0.2510221E-04      0.1141255E-03
       39    -1.10530      0.1747871E-04      0.9296033E-04
       39    -0.84210      0.1285936E-04      0.7913423E-04
       39    -0.57890      0.9851783E-05      0.6958375E-04
       39    -0.31580      0.7785794E-05      0.6269959E-04
       39    -0.05260      0.6308991E-05      0.5757573E-04
       39     0.21050      0.5216112E-05      0.5366665E-04
       39     0.47370      0.4383846E-05      0.5062217E-04
       39     0.73680      0.3735645E-05      0.4820459E-04
       39     1.00000      0.3221001E-05      0.4624753E-04
 
       40    -4.00000      0.2778299E-02      0.6059604E-03     1.0000
       40    -3.73680      0.4444322E-03      0.4488664E-03
       40    -3.47370      0.1267260E-03      0.2796153E-03
       40    -3.21050      0.5788396E-04      0.1822954E-03
       40    -2.94740      0.3285326E-04      0.1302933E-03
       40    -2.68420      0.2112715E-04      0.1008708E-03
       40    -2.42110      0.1471660E-04      0.8283815E-04
       40    -2.15790      0.1083293E-04      0.7096082E-04
       40    -1.89470      0.8304913E-05      0.6268580E-04
       40    -1.63160      0.6568466E-05      0.5667528E-04
       40    -1.36840      0.5323662E-05      0.5217082E-04
       40    -1.10530      0.4401550E-05      0.4871042E-04
       40    -0.84210      0.3698940E-05      0.4599632E-04
       40    -0.57890      0.3151454E-05      0.4382979E-04
       40    -0.31580      0.2716747E-05      0.4207545E-04
       40    -0.05260      0.2365816E-05      0.4063885E-04
       40     0.21050      0.2079238E-05      0.3945108E-04
       40     0.47370      0.1840807E-05      0.3845925E-04
       40     0.73680      0.1637468E-05      0.3762114E-04
       40     1.00000      0.1460321E-05      0.3690390E-04
 
       41    -4.00000      0.2609968E-04      0.1254129E-03     1.0414
       41    -3.73680      0.3827218E-04      0.1687011E-03
       41    -3.47370      0.6641030E-04      0.2466350E-03
       41    -3.21050      0.1441093E-03      0.3906927E-03
       41    -2.94740      0.4924850E-03      0.6008370E-03
       41    -2.68420      0.2622381E-02      0.6632784E-03
       41    -2.42110      0.4928156E-03      0.4728033E-03
       41    -2.15790      0.1440605E-03      0.2940951E-03
       41    -1.89470      0.6620048E-04      0.1936340E-03
       41    -1.63160      0.3747361E-04      0.1395795E-03
       41    -1.36840      0.2407484E-04      0.1085969E-03
       41    -1.10530      0.1675952E-04      0.8941691E-04
       41    -0.84210      0.1232864E-04      0.7672298E-04
       41    -0.57890      0.9444507E-05      0.6786711E-04
       41    -0.31580      0.7463664E-05      0.6143527E-04
       41    -0.05260      0.6047719E-05      0.5661970E-04
       41     0.21050      0.4999943E-05      0.5292812E-04
       41     0.47370      0.4202077E-05      0.5004131E-04
       41     0.73680      0.3580715E-05      0.4774091E-04
       41     1.00000      0.3087394E-05      0.4587313E-04
 
       42    -4.00000      0.3768295E-05      0.5312015E-04     1.0046
       42    -3.73680      0.3778622E-05      0.5713876E-04
       42    -3.47370      0.4115865E-05      0.6204431E-04
       42    -3.21050      0.4850637E-05      0.6834730E-04
       42    -2.94740      0.6318476E-05      0.7684155E-04
       42    -2.68420      0.8245668E-05      0.8887863E-04
       42    -2.42110      0.1093673E-04      0.1069830E-03
       42    -2.15790      0.1530190E-04      0.1361887E-03
       42    -1.89470      0.2350460E-04      0.1870059E-03
       42    -1.63160      0.4148898E-04      0.2810272E-03
       42    -1.36840      0.9228361E-04      0.4492360E-03
       42    -1.10530      0.3442175E-03      0.6395885E-03
       42    -0.84210      0.3919129E-02      0.5969666E-03
       42    -0.57890      0.3443250E-03      0.3928558E-03
       42    -0.31580      0.9260572E-04      0.2473367E-03
       42    -0.05260      0.4174303E-04      0.1680366E-03
       42     0.21050      0.2345682E-04      0.1242680E-03
       42     0.47370      0.1503263E-04      0.9837933E-04
       42     0.73680      0.1044974E-04      0.8195492E-04
       42     1.00000      0.7680842E-05      0.7089576E-04
 
       43    -4.00000      0.8267213E-05      0.6277998E-04     1.0074
       43    -3.73680      0.9120245E-05      0.7011189E-04
       43    -3.47370      0.1097936E-04      0.7986913E-04
       43    -3.21050      0.1411319E-04      0.9375031E-04
       43    -2.94740      0.1965274E-04      0.1149297E-03
       43    -2.68420      0.3031371E-04      0.1498263E-03
       43    -2.42110      0.5335223E-04      0.2120200E-03
       43    -2.15790      0.1173118E-03      0.3281668E-03
       43    -1.89470      0.4207569E-03      0.5210221E-03
       43    -1.63160      0.3046945E-02      0.6599613E-03
       43    -1.36840      0.4205132E-03      0.5270765E-03
       43    -1.10530      0.1173378E-03      0.3321269E-03
       43    -0.84210      0.5338405E-04      0.2133681E-03
       43    -0.57890      0.3019503E-04      0.1495275E-03
       43    -0.31580      0.1938818E-04      0.1136238E-03
       43    -0.05260      0.1348794E-04      0.9186908E-04
       43     0.21050      0.9921339E-05      0.7775968E-04
       43     0.47370      0.7601239E-05      0.6809561E-04
       43     0.73680      0.6009249E-05      0.6118295E-04
       43     1.00000      0.4868740E-05      0.5605675E-04
 
       44    -4.00000      0.3854423E-05      0.4867051E-04     1.0046
       44    -3.73680      0.3800180E-05      0.5141346E-04
       44    -3.47370      0.4017494E-05      0.5457765E-04
       44    -3.21050      0.4395582E-05      0.5840821E-04
       44    -2.94740      0.5037138E-05      0.6323533E-04
       44    -2.68420      0.6252924E-05      0.6954637E-04
       44    -2.42110      0.8100795E-05      0.7815027E-04
       44    -2.15790      0.1096271E-04      0.9048427E-04
       44    -1.89470      0.1580391E-04      0.1092447E-03
       44    -1.63160      0.2453397E-04      0.1397975E-03
       44    -1.36840      0.4342201E-04      0.1933491E-03
       44    -1.10530      0.9633060E-04      0.2927207E-03
       44    -0.84210      0.3565802E-03      0.4679301E-03
       44    -0.57890      0.3756182E-02      0.6493384E-03
       44    -0.31580      0.3569327E-03      0.5818524E-03
       44    -0.05260      0.9640069E-04      0.3778701E-03
       44     0.21050      0.4340125E-04      0.2390753E-03
       44     0.47370      0.2445780E-04      0.1636401E-03
       44     0.73680      0.1568260E-04      0.1217023E-03
       44     1.00000      0.1090072E-04      0.9668060E-04
 
       45    -4.00000      0.3768297E-05      0.5312015E-04     1.0046
       45    -3.73680      0.3778622E-05      0.5713876E-04
       45    -3.47370      0.4115865E-05      0.6204431E-04
       45    -3.21050      0.4850637E-05      0.6834729E-04
       45    -2.94740      0.6318472E-05      0.7684155E-04
       45    -2.68420      0.8245664E-05      0.8887863E-04
       45    -2.42110      0.1093673E-04      0.1069830E-03
       45    -2.15790      0.1530190E-04      0.1361887E-03
       45    -1.89470      0.2350460E-04      0.1870059E-03
       45    -1.63160      0.4148898E-04      0.2810272E-03
       45    -1.36840      0.9228361E-04      0.4492360E-03
       45    -1.10530      0.3442175E-03      0.6395885E-03
       45    -0.84210      0.3919129E-02      0.5969666E-03
       45    -0.57890      0.3443250E-03      0.3928558E-03
       45    -0.31580      0.9260572E-04      0.2473367E-03
       45    -0.05260      0.4174303E-04      0.1680366E-03
       45     0.21050      0.2345682E-04      0.1242680E-03
       45     0.47370      0.1503263E-04      0.9837933E-04
       45     0.73680      0.1044974E-04      0.8195491E-04
       45     1.00000      0.7680842E-05      0.7089576E-04
 
       46    -4.00000      0.2609968E-04      0.1254129E-03     1.0414
       46    -3.73680      0.3827218E-04      0.1687011E-03
       46    -3.47370      0.6641029E-04      0.2466350E-03
       46    -3.21050      0.1441093E-03      0.3906927E-03
       46    -2.94740      0.4924849E-03      0.6008370E-03
       46    -2.68420      0.2622381E-02      0.6632782E-03
       46    -2.42110      0.4928155E-03      0.4728032E-03
       46    -2.15790      0.1440605E-03      0.2940950E-03
       46    -1.89470      0.6620047E-04      0.1936340E-03
       46    -1.63160      0.3747360E-04      0.1395795E-03
       46    -1.36840      0.2407484E-04      0.1085969E-03
       46    -1.10530      0.1675951E-04      0.8941689E-04
       46    -0.84210      0.1232864E-04      0.7672296E-04
       46    -0.57890      0.9444505E-05      0.6786710E-04
       46    -0.31580      0.7463662E-05      0.6143526E-04
       46    -0.05260      0.6047717E-05      0.5661969E-04
       46     0.21050      0.4999942E-05      0.5292811E-04
       46     0.47370      0.4202076E-05      0.5004130E-04
       46     0.73680      0.3580715E-05      0.4774090E-04
       46     1.00000      0.3087393E-05      0.4587312E-04
 
       47    -4.00000      0.2778301E-02      0.6059604E-03     1.0000
       47    -3.73680      0.4444320E-03      0.4488664E-03
       47    -3.47370      0.1267259E-03      0.2796153E-03
       47    -3.21050      0.5788392E-04      0.1822954E-03
       47    -2.94740      0.3285323E-04      0.1302933E-03
       47    -2.68420      0.2112713E-04      0.1008708E-03
       47    -2.42110      0.1471659E-04      0.8283815E-04
       47    -2.15790      0.1083292E-04      0.7096082E-04
       47    -1.89470      0.8304906E-05      0.6268580E-04
       47    -1.63160      0.6568460E-05      0.5667528E-04
       47    -1.36840      0.5323658E-05      0.5217083E-04
       47    -1.10530      0.4401546E-05      0.4871042E-04
       47    -0.84210      0.3698936E-05      0.4599633E-04
       47    -0.57890      0.3151451E-05      0.4382979E-04
       47    -0.31580      0.2716745E-05      0.4207545E-04
       47    -0.05260      0.2365813E-05      0.4063885E-04
       47     0.21050      0.2079236E-05      0.3945108E-04
       47     0.47370      0.1840806E-05      0.3845925E-04
       47     0.73680      0.1637467E-05      0.3762114E-04
       47     1.00000      0.1460320E-05      0.3690390E-04
 
       48    -4.00000      0.2724492E-04      0.1188069E-03     1.0426
       48    -3.73680      0.3991192E-04      0.1571723E-03
       48    -3.47370      0.6915686E-04      0.2251937E-03
       48    -3.21050      0.1496544E-03      0.3517479E-03
       48    -2.94740      0.5056744E-03      0.5555379E-03
       48    -2.68420      0.2519004E-02      0.6777415E-03
       48    -2.42110      0.5060017E-03      0.5211322E-03
       48    -2.15790      0.1495843E-03      0.3257827E-03
       48    -1.89470      0.6890892E-04      0.2105265E-03
       48    -1.63160      0.3905596E-04      0.1488751E-03
       48    -1.36840      0.2510223E-04      0.1141255E-03
       48    -1.10530      0.1747872E-04      0.9296034E-04
       48    -0.84210      0.1285937E-04      0.7913424E-04
       48    -0.57890      0.9851791E-05      0.6958375E-04
       48    -0.31580      0.7785800E-05      0.6269959E-04
       48    -0.05260      0.6308996E-05      0.5757573E-04
       48     0.21050      0.5216116E-05      0.5366666E-04
       48     0.47370      0.4383849E-05      0.5062217E-04
       48     0.73680      0.3735648E-05      0.4820459E-04
       48     1.00000      0.3221003E-05      0.4624753E-04
 
       49    -4.00000      0.2712648E-04      0.1187735E-03     1.0424
       49    -3.73680      0.3974689E-04      0.1571238E-03
       49    -3.47370      0.6888221E-04      0.2251129E-03
       49    -3.21050      0.1491022E-03      0.3515985E-03
       49    -2.94740      0.5043778E-03      0.5553250E-03
       49    -2.68420      0.2528463E-02      0.6777094E-03
       49    -2.42110      0.5047049E-03      0.5212801E-03
       49    -2.15790      0.1490332E-03      0.3258962E-03
       49    -1.89470      0.6863810E-04      0.2105865E-03
       49    -1.63160      0.3889837E-04      0.1489027E-03
       49    -1.36840      0.2500000E-04      0.1141345E-03
       49    -1.10530      0.1740718E-04      0.9295855E-04
       49    -0.84210      0.1280659E-04      0.7912653E-04
       49    -0.57890      0.9811289E-05      0.6957356E-04
       49    -0.31580      0.7753771E-05      0.6268909E-04
       49    -0.05260      0.6283021E-05      0.5756604E-04
       49     0.21050      0.5194627E-05      0.5365816E-04
       49     0.47370      0.4365781E-05      0.5061486E-04
       49     0.73680      0.3720251E-05      0.4819837E-04
       49     1.00000      0.3207727E-05      0.4624230E-04
 
       50    -4.00000      0.3642876E-05      0.5312047E-04     1.0052
       50    -3.73680      0.3668049E-05      0.5712708E-04
       50    -3.47370      0.4018080E-05      0.6202501E-04
       50    -3.21050      0.4778043E-05      0.6832727E-04
       50    -2.94740      0.6209254E-05      0.7683225E-04
       50    -2.68420      0.8091696E-05      0.8889884E-04
       50    -2.42110      0.1073530E-04      0.1070620E-03
       50    -2.15790      0.1504218E-04      0.1363707E-03
       50    -1.89470      0.2314027E-04      0.1873594E-03
       50    -1.63160      0.4087762E-04      0.2816603E-03
       50    -1.36840      0.9095804E-04      0.4502360E-03
       50    -1.10530      0.3399095E-03      0.6404849E-03
       50    -0.84210      0.3984458E-02      0.5970493E-03
       50    -0.57890      0.3400176E-03      0.3927535E-03
       50    -0.31580      0.9129474E-04      0.2473118E-03
       50    -0.05260      0.4115136E-04      0.1680547E-03
       50     0.21050      0.2310569E-04      0.1242987E-03
       50     0.47370      0.1480580E-04      0.9841202E-04
       50     0.73680      0.1029153E-04      0.8198735E-04
       50     1.00000      0.7564350E-05      0.7092828E-04
 
       51    -4.00000      0.2724490E-04      0.1188069E-03     1.0426
       51    -3.73680      0.3991189E-04      0.1571723E-03
       51    -3.47370      0.6915681E-04      0.2251937E-03
       51    -3.21050      0.1496543E-03      0.3517479E-03
       51    -2.94740      0.5056742E-03      0.5555379E-03
       51    -2.68420      0.2519006E-02      0.6777415E-03
       51    -2.42110      0.5060014E-03      0.5211322E-03
       51    -2.15790      0.1495842E-03      0.3257827E-03
       51    -1.89470      0.6890886E-04      0.2105265E-03
       51    -1.63160      0.3905593E-04      0.1488751E-03
       51    -1.36840      0.2510221E-04      0.1141255E-03
       51    -1.10530      0.1747871E-04      0.9296034E-04
       51    -0.84210      0.1285936E-04      0.7913424E-04
       51    -0.57890      0.9851783E-05      0.6958375E-04
       51    -0.31580      0.7785794E-05      0.6269959E-04
       51    -0.05260      0.6308991E-05      0.5757573E-04
       51     0.21050      0.5216112E-05      0.5366666E-04
       51     0.47370      0.4383846E-05      0.5062217E-04
       51     0.73680      0.3735645E-05      0.4820459E-04
       51     1.00000      0.3221001E-05      0.4624753E-04
 
       52    -4.00000      0.2737246E-02      0.5881908E-03     1.0000
       52    -3.73680      0.4489135E-03      0.4055220E-03
       52    -3.47370      0.1283836E-03      0.2524821E-03
       52    -3.21050      0.5866822E-04      0.1680988E-03
       52    -2.94740      0.3332899E-04      0.1226595E-03
       52    -2.68420      0.2143916E-04      0.9647719E-04
       52    -2.42110      0.1493582E-04      0.8013673E-04
       52    -2.15790      0.1099511E-04      0.6921185E-04
       52    -1.89470      0.8429640E-05      0.6151286E-04
       52    -1.63160      0.6667328E-05      0.5587243E-04
       52    -1.36840      0.5403909E-05      0.5161742E-04
       52    -1.10530      0.4467965E-05      0.4833164E-04
       52    -0.84210      0.3754788E-05      0.4574367E-04
       52    -0.57890      0.3199051E-05      0.4367060E-04
       52    -0.31580      0.2757781E-05      0.4198695E-04
       52    -0.05260      0.2401547E-05      0.4060463E-04
       52     0.21050      0.2110645E-05      0.3945907E-04
       52     0.47370      0.1868603E-05      0.3850044E-04
       52     0.73680      0.1662128E-05      0.3768882E-04
       52     1.00000      0.1482175E-05      0.3699298E-04
 
       53    -4.00000      0.3178113E-02      0.1022271E-03     1.0000
       53    -3.73680      0.4034200E-03      0.8453962E-04
       53    -3.47370      0.1118273E-03      0.7287611E-04
       53    -3.21050      0.5074248E-04      0.6473965E-04
       53    -2.94740      0.2874912E-04      0.5880306E-04
       53    -2.68420      0.1847026E-04      0.5431586E-04
       53    -2.42110      0.1285831E-04      0.5083155E-04
       53    -2.15790      0.9461423E-05      0.4807203E-04
       53    -1.89470      0.7251583E-05      0.4585431E-04
       53    -1.63160      0.5734340E-05      0.4405082E-04
       53    -1.36840      0.4647038E-05      0.4256866E-04
       53    -1.10530      0.3841819E-05      0.4133814E-04
       53    -0.84210      0.3228421E-05      0.4030618E-04
       53    -0.57890      0.2750550E-05      0.3943258E-04
       53    -0.31580      0.2371180E-05      0.3868745E-04
       53    -0.05260      0.2064941E-05      0.3804841E-04
       53     0.21050      0.1814808E-05      0.3749770E-04
       53     0.47370      0.1606797E-05      0.3702026E-04
       53     0.73680      0.1429795E-05      0.3660272E-04
       53     1.00000      0.1276125E-05      0.3623384E-04
 
       54    -4.00000      0.2759331E-02      0.5892967E-03     1.0000
       54    -3.73680      0.4464731E-03      0.4066277E-03
       54    -3.47370      0.1274491E-03      0.2531719E-03
       54    -3.21050      0.5821272E-04      0.1685103E-03
       54    -2.94740      0.3306543E-04      0.1229176E-03
       54    -2.68420      0.2126809E-04      0.9664957E-04
       54    -2.42110      0.1481600E-04      0.8025999E-04
       54    -2.15790      0.1090660E-04      0.6930658E-04
       54    -1.89470      0.8361626E-05      0.6159074E-04
       54    -1.63160      0.6613447E-05      0.5594005E-04
       54    -1.36840      0.5360191E-05      0.5167851E-04
       54    -1.10530      0.4431792E-05      0.4838836E-04
       54    -0.84210      0.3724377E-05      0.4579737E-04
       54    -0.57890      0.3173137E-05      0.4372213E-04
       54    -0.31580      0.2735444E-05      0.4203687E-04
       54    -0.05260      0.2382098E-05      0.4065330E-04
       54     0.21050      0.2093552E-05      0.3950672E-04
       54     0.47370      0.1853476E-05      0.3854726E-04
       54     0.73680      0.1648709E-05      0.3773497E-04
       54     1.00000      0.1470284E-05      0.3703860E-04
 
       55    -4.00000      0.2836318E-02      0.6071259E-03     1.0000
       55    -3.73680      0.4381481E-03      0.4504457E-03
       55    -3.47370      0.1243714E-03      0.2806776E-03
       55    -3.21050      0.5675248E-04      0.1829303E-03
       55    -2.94740      0.3219176E-04      0.1306813E-03
       55    -2.68420      0.2069707E-04      0.1011201E-03
       55    -2.42110      0.1441528E-04      0.8300865E-04
       55    -2.15790      0.1061034E-04      0.7108622E-04
       55    -1.89470      0.8133864E-05      0.6278499E-04
       55    -1.63160      0.6432960E-05      0.5675889E-04
       55    -1.36840      0.5213713E-05      0.5224480E-04
       55    -1.10530      0.4310578E-05      0.4877819E-04
       55    -0.84210      0.3622457E-05      0.4606002E-04
       55    -0.57890      0.3086282E-05      0.4389076E-04
       55    -0.31580      0.2660568E-05      0.4213459E-04
       55    -0.05260      0.2316901E-05      0.4069671E-04
       55     0.21050      0.2036246E-05      0.3950802E-04
       55     0.47370      0.1802762E-05      0.3851552E-04
       55     0.73680      0.1603714E-05      0.3767698E-04
       55     1.00000      0.1430402E-05      0.3695952E-04
 
       56    -4.00000      0.2564459E-04      0.1254513E-03     1.0410
       56    -3.73680      0.3761849E-04      0.1687806E-03
       56    -3.47370      0.6531206E-04      0.2467816E-03
       56    -3.21050      0.1418735E-03      0.3909084E-03
       56    -2.94740      0.4869913E-03      0.6010303E-03
       56    -2.68420      0.2666620E-02      0.6632833E-03
       56    -2.42110      0.4873233E-03      0.4727756E-03
       56    -2.15790      0.1418324E-03      0.2941168E-03
       56    -1.89470      0.6511767E-04      0.1936636E-03
       56    -1.63160      0.3683870E-04      0.1395965E-03
       56    -1.36840      0.2366241E-04      0.1086009E-03
       56    -1.10530      0.1647083E-04      0.8941311E-04
       56    -0.84210      0.1211563E-04      0.7671592E-04
       56    -0.57890      0.9281073E-05      0.6785978E-04
       56    -0.31580      0.7334420E-05      0.6142922E-04
       56    -0.05260      0.5942888E-05      0.5661553E-04
       56     0.21050      0.4913208E-05      0.5292591E-04
       56     0.47370      0.4129140E-05      0.5004091E-04
       56     0.73680      0.3518538E-05      0.4774216E-04
       56     1.00000      0.3033772E-05      0.4587594E-04
 
       57    -4.00000      0.2759331E-02      0.5892967E-03     1.0000
       57    -3.73680      0.4464731E-03      0.4066277E-03
       57    -3.47370      0.1274491E-03      0.2531719E-03
       57    -3.21050      0.5821272E-04      0.1685103E-03
       57    -2.94740      0.3306543E-04      0.1229176E-03
       57    -2.68420      0.2126809E-04      0.9664957E-04
       57    -2.42110      0.1481600E-04      0.8025999E-04
       57    -2.15790      0.1090660E-04      0.6930658E-04
       57    -1.89470      0.8361626E-05      0.6159074E-04
       57    -1.63160      0.6613447E-05      0.5594005E-04
       57    -1.36840      0.5360191E-05      0.5167851E-04
       57    -1.10530      0.4431792E-05      0.4838836E-04
       57    -0.84210      0.3724377E-05      0.4579737E-04
       57    -0.57890      0.3173137E-05      0.4372213E-04
       57    -0.31580      0.2735444E-05      0.4203687E-04
       57    -0.05260      0.2382098E-05      0.4065330E-04
       57     0.21050      0.2093552E-05      0.3950672E-04
       57     0.47370      0.1853476E-05      0.3854726E-04
       57     0.73680      0.1648709E-05      0.3773497E-04
       57     1.00000      0.1470284E-05      0.3703860E-04
 
       58    -4.00000      0.3608132E-02      0.6793259E-04     1.0000
       58    -3.73680      0.3656160E-03      0.6123888E-04
       58    -3.47370      0.9931788E-04      0.5625474E-04
       58    -3.21050      0.4488077E-04      0.5242762E-04
       58    -2.94740      0.2535396E-04      0.4941861E-04
       58    -2.68420      0.1627324E-04      0.4700514E-04
       58    -2.42110      0.1132297E-04      0.4503849E-04
       58    -2.15790      0.8328993E-05      0.4341752E-04
       58    -1.89470      0.6382265E-05      0.4207016E-04
       58    -1.63160      0.5046155E-05      0.4094212E-04
       58    -1.36840      0.4088922E-05      0.3999104E-04
       58    -1.10530      0.3380189E-05      0.3918317E-04
       58    -0.84210      0.2840397E-05      0.3849149E-04
       58    -0.57890      0.2419941E-05      0.3789482E-04
       58    -0.31580      0.2086198E-05      0.3737709E-04
       58    -0.05260      0.1816802E-05      0.3692610E-04
       58     0.21050      0.1596727E-05      0.3653196E-04
       58     0.47370      0.1413781E-05      0.3618585E-04
       58     0.73680      0.1258396E-05      0.3587956E-04
       58     1.00000      0.1123884E-05      0.3560600E-04
 
       59    -4.00000      0.3987095E-02      0.4803627E-04     1.0000
       59    -3.73680      0.3369247E-03      0.4609028E-04
       59    -3.47370      0.9028773E-04      0.4444923E-04
       59    -3.21050      0.4067869E-04      0.4305858E-04
       59    -2.94740      0.2295390E-04      0.4187498E-04
       59    -2.68420      0.1472569E-04      0.4086100E-04
       59    -2.42110      0.1024320E-04      0.3998732E-04
       59    -2.15790      0.7533320E-05      0.3923196E-04
       59    -1.89470      0.5771823E-05      0.3857760E-04
       59    -1.63160      0.4563101E-05      0.3800955E-04
       59    -1.36840      0.3697277E-05      0.3751498E-04
       59    -1.10530      0.3056312E-05      0.3708262E-04
       59    -0.84210      0.2568194E-05      0.3670269E-04
       59    -0.57890      0.2188030E-05      0.3636708E-04
       59    -0.31580      0.1886295E-05      0.3606949E-04
       59    -0.05260      0.1642744E-05      0.3580510E-04
       59     0.21050      0.1443756E-05      0.3556985E-04
       59     0.47370      0.1278383E-05      0.3535984E-04
       59     0.73680      0.1138107E-05      0.3517111E-04
       59     1.00000      0.1016923E-05      0.3500008E-04
 
       60    -4.00000      0.3219934E-02      0.1022215E-03     1.0000
       60    -3.73680      0.3994753E-03      0.8452330E-04
       60    -3.47370      0.1104979E-03      0.7285563E-04
       60    -3.21050      0.5012479E-04      0.6471910E-04
       60    -2.94740      0.2838260E-04      0.5878439E-04
       60    -2.68420      0.1823190E-04      0.5429968E-04
       60    -2.42110      0.1269145E-04      0.5081776E-04
       60    -2.15790      0.9338238E-05      0.4806025E-04
       60    -1.89470      0.7156967E-05      0.4584412E-04
       60    -1.63160      0.5659411E-05      0.4404185E-04
       60    -1.36840      0.4586256E-05      0.4256062E-04
       60    -1.10530      0.3791535E-05      0.4133082E-04
       60    -0.84210      0.3186150E-05      0.4029942E-04
       60    -0.57890      0.2714531E-05      0.3942625E-04
       60    -0.31580      0.2340131E-05      0.3868145E-04
       60    -0.05260      0.2037905E-05      0.3804264E-04
       60     0.21050      0.1791046E-05      0.3749211E-04
       60     0.47370      0.1585766E-05      0.3701481E-04
       60     0.73680      0.1411123E-05      0.3659737E-04
       60     1.00000      0.1259550E-05      0.3622859E-04
 
       61    -4.00000      0.2564457E-04      0.1254513E-03     1.0410
       61    -3.73680      0.3761846E-04      0.1687806E-03
       61    -3.47370      0.6531201E-04      0.2467816E-03
       61    -3.21050      0.1418734E-03      0.3909083E-03
       61    -2.94740      0.4869911E-03      0.6010302E-03
       61    -2.68420      0.2666622E-02      0.6632834E-03
       61    -2.42110      0.4873230E-03      0.4727757E-03
       61    -2.15790      0.1418323E-03      0.2941169E-03
       61    -1.89470      0.6511761E-04      0.1936637E-03
       61    -1.63160      0.3683867E-04      0.1395965E-03
       61    -1.36840      0.2366239E-04      0.1086009E-03
       61    -1.10530      0.1647081E-04      0.8941312E-04
       61    -0.84210      0.1211562E-04      0.7671592E-04
       61    -0.57890      0.9281065E-05      0.6785978E-04
       61    -0.31580      0.7334414E-05      0.6142922E-04
       61    -0.05260      0.5942883E-05      0.5661553E-04
       61     0.21050      0.4913204E-05      0.5292591E-04
       61     0.47370      0.4129137E-05      0.5004091E-04
       61     0.73680      0.3518535E-05      0.4774216E-04
       61     1.00000      0.3033770E-05      0.4587594E-04
 
       62    -4.00000      0.2836320E-02      0.6071259E-03     1.0000
       62    -3.73680      0.4381478E-03      0.4504457E-03
       62    -3.47370      0.1243713E-03      0.2806776E-03
       62    -3.21050      0.5675244E-04      0.1829303E-03
       62    -2.94740      0.3219173E-04      0.1306813E-03
       62    -2.68420      0.2069705E-04      0.1011201E-03
[...]
      201    -3.73680      0.3369247E-03      0.4609028E-04
      201    -3.47370      0.9028773E-04      0.4444923E-04
      201    -3.21050      0.4067870E-04      0.4305858E-04
      201    -2.94740      0.2295390E-04      0.4187498E-04
      201    -2.68420      0.1472569E-04      0.4086100E-04
      201    -2.42110      0.1024321E-04      0.3998732E-04
      201    -2.15790      0.7533320E-05      0.3923196E-04
      201    -1.89470      0.5771823E-05      0.3857760E-04
      201    -1.63160      0.4563101E-05      0.3800955E-04
      201    -1.36840      0.3697277E-05      0.3751498E-04
      201    -1.10530      0.3056312E-05      0.3708262E-04
      201    -0.84210      0.2568194E-05      0.3670269E-04
      201    -0.57890      0.2188030E-05      0.3636708E-04
      201    -0.31580      0.1886295E-05      0.3606949E-04
      201    -0.05260      0.1642744E-05      0.3580510E-04
      201     0.21050      0.1443756E-05      0.3556985E-04
      201     0.47370      0.1278383E-05      0.3535984E-04
      201     0.73680      0.1138107E-05      0.3517111E-04
      201     1.00000      0.1016923E-05      0.3500008E-04
 
      202    -4.00000      0.3608132E-02      0.6793259E-04     1.0000
      202    -3.73680      0.3656160E-03      0.6123888E-04
      202    -3.47370      0.9931788E-04      0.5625474E-04
      202    -3.21050      0.4488077E-04      0.5242762E-04
      202    -2.94740      0.2535396E-04      0.4941861E-04
      202    -2.68420      0.1627324E-04      0.4700514E-04
      202    -2.42110      0.1132297E-04      0.4503849E-04
      202    -2.15790      0.8328993E-05      0.4341752E-04
      202    -1.89470      0.6382265E-05      0.4207016E-04
      202    -1.63160      0.5046155E-05      0.4094212E-04
      202    -1.36840      0.4088922E-05      0.3999104E-04
      202    -1.10530      0.3380189E-05      0.3918317E-04
      202    -0.84210      0.2840397E-05      0.3849149E-04
      202    -0.57890      0.2419941E-05      0.3789482E-04
      202    -0.31580      0.2086198E-05      0.3737709E-04
      202    -0.05260      0.1816802E-05      0.3692610E-04
      202     0.21050      0.1596727E-05      0.3653196E-04
      202     0.47370      0.1413781E-05      0.3618585E-04
      202     0.73680      0.1258396E-05      0.3587956E-04
      202     1.00000      0.1123884E-05      0.3560600E-04
 
      203    -4.00000      0.2759331E-02      0.5892968E-03     1.0000
      203    -3.73680      0.4464731E-03      0.4066278E-03
      203    -3.47370      0.1274491E-03      0.2531720E-03
      203    -3.21050      0.5821272E-04      0.1685104E-03
      203    -2.94740      0.3306543E-04      0.1229176E-03
      203    -2.68420      0.2126809E-04      0.9664961E-04
      203    -2.42110      0.1481600E-04      0.8026002E-04
      203    -2.15790      0.1090660E-04      0.6930660E-04
      203    -1.89470      0.8361625E-05      0.6159075E-04
      203    -1.63160      0.6613447E-05      0.5594007E-04
      203    -1.36840      0.5360191E-05      0.5167852E-04
      203    -1.10530      0.4431792E-05      0.4838838E-04
      203    -0.84210      0.3724377E-05      0.4579738E-04
      203    -0.57890      0.3173137E-05      0.4372214E-04
      203    -0.31580      0.2735443E-05      0.4203688E-04
      203    -0.05260      0.2382098E-05      0.4065330E-04
      203     0.21050      0.2093552E-05      0.3950673E-04
      203     0.47370      0.1853476E-05      0.3854727E-04
      203     0.73680      0.1648709E-05      0.3773498E-04
      203     1.00000      0.1470284E-05      0.3703861E-04
 
      204    -4.00000      0.2564457E-04      0.1254513E-03     1.0410
      204    -3.73680      0.3761846E-04      0.1687806E-03
      204    -3.47370      0.6531201E-04      0.2467816E-03
      204    -3.21050      0.1418734E-03      0.3909083E-03
      204    -2.94740      0.4869911E-03      0.6010302E-03
      204    -2.68420      0.2666622E-02      0.6632834E-03
      204    -2.42110      0.4873230E-03      0.4727757E-03
      204    -2.15790      0.1418323E-03      0.2941169E-03
      204    -1.89470      0.6511761E-04      0.1936637E-03
      204    -1.63160      0.3683867E-04      0.1395965E-03
      204    -1.36840      0.2366239E-04      0.1086009E-03
      204    -1.10530      0.1647081E-04      0.8941312E-04
      204    -0.84210      0.1211562E-04      0.7671592E-04
      204    -0.57890      0.9281065E-05      0.6785978E-04
      204    -0.31580      0.7334414E-05      0.6142922E-04
      204    -0.05260      0.5942883E-05      0.5661553E-04
      204     0.21050      0.4913204E-05      0.5292591E-04
      204     0.47370      0.4129137E-05      0.5004091E-04
      204     0.73680      0.3518535E-05      0.4774216E-04
      204     1.00000      0.3033770E-05      0.4587594E-04
 
      205    -4.00000      0.2712646E-04      0.1187735E-03     1.0424
      205    -3.73680      0.3974686E-04      0.1571238E-03
      205    -3.47370      0.6888216E-04      0.2251129E-03
      205    -3.21050      0.1491021E-03      0.3515983E-03
      205    -2.94740      0.5043776E-03      0.5553249E-03
      205    -2.68420      0.2528465E-02      0.6777094E-03
      205    -2.42110      0.5047047E-03      0.5212803E-03
      205    -2.15790      0.1490330E-03      0.3258963E-03
      205    -1.89470      0.6863804E-04      0.2105865E-03
      205    -1.63160      0.3889834E-04      0.1489027E-03
      205    -1.36840      0.2499998E-04      0.1141346E-03
      205    -1.10530      0.1740716E-04      0.9295856E-04
      205    -0.84210      0.1280658E-04      0.7912653E-04
      205    -0.57890      0.9811282E-05      0.6957356E-04
      205    -0.31580      0.7753765E-05      0.6268910E-04
      205    -0.05260      0.6283017E-05      0.5756605E-04
      205     0.21050      0.5194622E-05      0.5365816E-04
      205     0.47370      0.4365777E-05      0.5061486E-04
      205     0.73680      0.3720248E-05      0.4819838E-04
      205     1.00000      0.3207725E-05      0.4624230E-04
 
      206    -4.00000      0.2759331E-02      0.5892968E-03     1.0000
      206    -3.73680      0.4464731E-03      0.4066278E-03
      206    -3.47370      0.1274491E-03      0.2531720E-03
      206    -3.21050      0.5821272E-04      0.1685104E-03
      206    -2.94740      0.3306543E-04      0.1229176E-03
      206    -2.68420      0.2126809E-04      0.9664961E-04
      206    -2.42110      0.1481600E-04      0.8026002E-04
      206    -2.15790      0.1090660E-04      0.6930660E-04
      206    -1.89470      0.8361625E-05      0.6159075E-04
      206    -1.63160      0.6613447E-05      0.5594007E-04
      206    -1.36840      0.5360191E-05      0.5167852E-04
      206    -1.10530      0.4431792E-05      0.4838838E-04
      206    -0.84210      0.3724377E-05      0.4579738E-04
      206    -0.57890      0.3173137E-05      0.4372214E-04
      206    -0.31580      0.2735443E-05      0.4203688E-04
      206    -0.05260      0.2382098E-05      0.4065330E-04
      206     0.21050      0.2093552E-05      0.3950673E-04
      206     0.47370      0.1853476E-05      0.3854727E-04
      206     0.73680      0.1648709E-05      0.3773498E-04
      206     1.00000      0.1470284E-05      0.3703861E-04
 
      207    -4.00000      0.3178113E-02      0.1022271E-03     1.0000
      207    -3.73680      0.4034200E-03      0.8453964E-04
      207    -3.47370      0.1118273E-03      0.7287612E-04
      207    -3.21050      0.5074248E-04      0.6473967E-04
      207    -2.94740      0.2874912E-04      0.5880307E-04
      207    -2.68420      0.1847026E-04      0.5431587E-04
      207    -2.42110      0.1285831E-04      0.5083156E-04
      207    -2.15790      0.9461423E-05      0.4807204E-04
      207    -1.89470      0.7251583E-05      0.4585432E-04
      207    -1.63160      0.5734340E-05      0.4405083E-04
      207    -1.36840      0.4647038E-05      0.4256867E-04
      207    -1.10530      0.3841819E-05      0.4133815E-04
      207    -0.84210      0.3228421E-05      0.4030619E-04
      207    -0.57890      0.2750550E-05      0.3943259E-04
      207    -0.31580      0.2371180E-05      0.3868746E-04
      207    -0.05260      0.2064941E-05      0.3804841E-04
      207     0.21050      0.1814808E-05      0.3749770E-04
      207     0.47370      0.1606797E-05      0.3702027E-04
      207     0.73680      0.1429795E-05      0.3660273E-04
      207     1.00000      0.1276125E-05      0.3623385E-04
 
      208    -4.00000      0.2737243E-02      0.5881908E-03     1.0000
      208    -3.73680      0.4489137E-03      0.4055220E-03
      208    -3.47370      0.1283837E-03      0.2524821E-03
      208    -3.21050      0.5866826E-04      0.1680988E-03
      208    -2.94740      0.3332902E-04      0.1226595E-03
      208    -2.68420      0.2143918E-04      0.9647719E-04
      208    -2.42110      0.1493584E-04      0.8013673E-04
      208    -2.15790      0.1099511E-04      0.6921185E-04
      208    -1.89470      0.8429647E-05      0.6151286E-04
      208    -1.63160      0.6667334E-05      0.5587243E-04
      208    -1.36840      0.5403914E-05      0.5161742E-04
      208    -1.10530      0.4467968E-05      0.4833164E-04
      208    -0.84210      0.3754791E-05      0.4574366E-04
      208    -0.57890      0.3199053E-05      0.4367060E-04
      208    -0.31580      0.2757783E-05      0.4198694E-04
      208    -0.05260      0.2401549E-05      0.4060463E-04
      208     0.21050      0.2110647E-05      0.3945907E-04
      208     0.47370      0.1868604E-05      0.3850044E-04
      208     0.73680      0.1662129E-05      0.3768882E-04
      208     1.00000      0.1482176E-05      0.3699298E-04
 
      209    -4.00000      0.2724490E-04      0.1188069E-03     1.0426
      209    -3.73680      0.3991189E-04      0.1571724E-03
      209    -3.47370      0.6915681E-04      0.2251937E-03
      209    -3.21050      0.1496543E-03      0.3517480E-03
      209    -2.94740      0.5056742E-03      0.5555380E-03
      209    -2.68420      0.2519006E-02      0.6777415E-03
      209    -2.42110      0.5060014E-03      0.5211321E-03
      209    -2.15790      0.1495842E-03      0.3257827E-03
      209    -1.89470      0.6890886E-04      0.2105264E-03
      209    -1.63160      0.3905593E-04      0.1488751E-03
      209    -1.36840      0.2510221E-04      0.1141255E-03
      209    -1.10530      0.1747871E-04      0.9296033E-04
      209    -0.84210      0.1285936E-04      0.7913423E-04
      209    -0.57890      0.9851783E-05      0.6958375E-04
      209    -0.31580      0.7785794E-05      0.6269959E-04
      209    -0.05260      0.6308991E-05      0.5757573E-04
      209     0.21050      0.5216112E-05      0.5366665E-04
      209     0.47370      0.4383846E-05      0.5062217E-04
      209     0.73680      0.3735645E-05      0.4820459E-04
      209     1.00000      0.3221000E-05      0.4624753E-04
 
      210    -4.00000      0.3642876E-05      0.5312047E-04     1.0052
      210    -3.73680      0.3668049E-05      0.5712708E-04
      210    -3.47370      0.4018080E-05      0.6202501E-04
      210    -3.21050      0.4778043E-05      0.6832727E-04
      210    -2.94740      0.6209253E-05      0.7683225E-04
      210    -2.68420      0.8091692E-05      0.8889884E-04
      210    -2.42110      0.1073530E-04      0.1070620E-03
      210    -2.15790      0.1504217E-04      0.1363707E-03
      210    -1.89470      0.2314027E-04      0.1873594E-03
      210    -1.63160      0.4087763E-04      0.2816603E-03
      210    -1.36840      0.9095804E-04      0.4502360E-03
      210    -1.10530      0.3399095E-03      0.6404849E-03
      210    -0.84210      0.3984458E-02      0.5970493E-03
      210    -0.57890      0.3400176E-03      0.3927535E-03
      210    -0.31580      0.9129474E-04      0.2473118E-03
      210    -0.05260      0.4115136E-04      0.1680547E-03
      210     0.21050      0.2310569E-04      0.1242987E-03
      210     0.47370      0.1480580E-04      0.9841202E-04
      210     0.73680      0.1029153E-04      0.8198735E-04
      210     1.00000      0.7564350E-05      0.7092828E-04
 
      211    -4.00000      0.8268081E-05      0.6278007E-04     1.0075
      211    -3.73680      0.9121151E-05      0.7011201E-04
      211    -3.47370      0.1098037E-04      0.7986927E-04
      211    -3.21050      0.1411438E-04      0.9375044E-04
      211    -2.94740      0.1965429E-04      0.1149298E-03
      211    -2.68420      0.3031596E-04      0.1498263E-03
      211    -2.42110      0.5335612E-04      0.2120199E-03
      211    -2.15790      0.1173200E-03      0.3281668E-03
      211    -1.89470      0.4207799E-03      0.5210222E-03
      211    -1.63160      0.3046723E-02      0.6599609E-03
      211    -1.36840      0.4205362E-03      0.5270755E-03
      211    -1.10530      0.1173461E-03      0.3321261E-03
      211    -0.84210      0.5338796E-04      0.2133676E-03
      211    -0.57890      0.3019727E-04      0.1495272E-03
      211    -0.31580      0.1938962E-04      0.1136236E-03
      211    -0.05260      0.1348895E-04      0.9186900E-04
      211     0.21050      0.9922082E-05      0.7775964E-04
      211     0.47370      0.7601809E-05      0.6809560E-04
      211     0.73680      0.6009700E-05      0.6118294E-04
      211     1.00000      0.4869106E-05      0.5605673E-04
 
      212    -4.00000      0.2724490E-04      0.1188069E-03     1.0426
      212    -3.73680      0.3991189E-04      0.1571724E-03
      212    -3.47370      0.6915681E-04      0.2251937E-03
      212    -3.21050      0.1496543E-03      0.3517480E-03
      212    -2.94740      0.5056742E-03      0.5555380E-03
      212    -2.68420      0.2519006E-02      0.6777415E-03
      212    -2.42110      0.5060014E-03      0.5211321E-03
      212    -2.15790      0.1495842E-03      0.3257827E-03
      212    -1.89470      0.6890886E-04      0.2105264E-03
      212    -1.63160      0.3905593E-04      0.1488751E-03
      212    -1.36840      0.2510221E-04      0.1141255E-03
      212    -1.10530      0.1747871E-04      0.9296033E-04
      212    -0.84210      0.1285936E-04      0.7913423E-04
      212    -0.57890      0.9851783E-05      0.6958375E-04
      212    -0.31580      0.7785794E-05      0.6269959E-04
      212    -0.05260      0.6308991E-05      0.5757573E-04
      212     0.21050      0.5216112E-05      0.5366665E-04
      212     0.47370      0.4383846E-05      0.5062217E-04
      212     0.73680      0.3735645E-05      0.4820459E-04
      212     1.00000      0.3221000E-05      0.4624753E-04
 
      213    -4.00000      0.2778299E-02      0.6059604E-03     1.0000
      213    -3.73680      0.4444322E-03      0.4488664E-03
      213    -3.47370      0.1267260E-03      0.2796153E-03
      213    -3.21050      0.5788396E-04      0.1822954E-03
      213    -2.94740      0.3285326E-04      0.1302933E-03
      213    -2.68420      0.2112715E-04      0.1008708E-03
      213    -2.42110      0.1471660E-04      0.8283815E-04
      213    -2.15790      0.1083293E-04      0.7096082E-04
      213    -1.89470      0.8304913E-05      0.6268580E-04
      213    -1.63160      0.6568466E-05      0.5667528E-04
      213    -1.36840      0.5323662E-05      0.5217082E-04
      213    -1.10530      0.4401550E-05      0.4871042E-04
      213    -0.84210      0.3698940E-05      0.4599632E-04
      213    -0.57890      0.3151454E-05      0.4382979E-04
      213    -0.31580      0.2716747E-05      0.4207545E-04
      213    -0.05260      0.2365816E-05      0.4063885E-04
      213     0.21050      0.2079238E-05      0.3945108E-04
      213     0.47370      0.1840807E-05      0.3845925E-04
      213     0.73680      0.1637468E-05      0.3762114E-04
      213     1.00000      0.1460321E-05      0.3690390E-04
 
      214    -4.00000      0.2609968E-04      0.1254129E-03     1.0414
      214    -3.73680      0.3827218E-04      0.1687011E-03
      214    -3.47370      0.6641030E-04      0.2466350E-03
      214    -3.21050      0.1441093E-03      0.3906928E-03
      214    -2.94740      0.4924850E-03      0.6008371E-03
      214    -2.68420      0.2622381E-02      0.6632783E-03
      214    -2.42110      0.4928156E-03      0.4728033E-03
      214    -2.15790      0.1440605E-03      0.2940950E-03
      214    -1.89470      0.6620048E-04      0.1936340E-03
      214    -1.63160      0.3747361E-04      0.1395795E-03
      214    -1.36840      0.2407484E-04      0.1085969E-03
      214    -1.10530      0.1675952E-04      0.8941690E-04
      214    -0.84210      0.1232864E-04      0.7672297E-04
      214    -0.57890      0.9444507E-05      0.6786711E-04
      214    -0.31580      0.7463664E-05      0.6143527E-04
      214    -0.05260      0.6047719E-05      0.5661970E-04
      214     0.21050      0.4999943E-05      0.5292812E-04
      214     0.47370      0.4202077E-05      0.5004131E-04
      214     0.73680      0.3580715E-05      0.4774091E-04
      214     1.00000      0.3087394E-05      0.4587313E-04
 
      215    -4.00000      0.3768295E-05      0.5312015E-04     1.0046
      215    -3.73680      0.3778622E-05      0.5713876E-04
      215    -3.47370      0.4115865E-05      0.6204431E-04
      215    -3.21050      0.4850637E-05      0.6834730E-04
      215    -2.94740      0.6318476E-05      0.7684155E-04
      215    -2.68420      0.8245668E-05      0.8887863E-04
      215    -2.42110      0.1093673E-04      0.1069830E-03
      215    -2.15790      0.1530190E-04      0.1361887E-03
      215    -1.89470      0.2350460E-04      0.1870059E-03
      215    -1.63160      0.4148898E-04      0.2810272E-03
      215    -1.36840      0.9228361E-04      0.4492360E-03
      215    -1.10530      0.3442175E-03      0.6395885E-03
      215    -0.84210      0.3919129E-02      0.5969666E-03
      215    -0.57890      0.3443250E-03      0.3928558E-03
      215    -0.31580      0.9260572E-04      0.2473367E-03
      215    -0.05260      0.4174303E-04      0.1680366E-03
      215     0.21050      0.2345682E-04      0.1242680E-03
      215     0.47370      0.1503263E-04      0.9837933E-04
      215     0.73680      0.1044974E-04      0.8195492E-04
      215     1.00000      0.7680842E-05      0.7089576E-04
 
      216    -4.00000      0.3770731E-05      0.4864383E-04     1.0041
      216    -3.73680      0.3712210E-05      0.5138277E-04
      216    -3.47370      0.3921718E-05      0.5454304E-04
      216    -3.21050      0.4290674E-05      0.5836958E-04
      216    -2.94740      0.4926240E-05      0.6319255E-04
      216    -2.68420      0.6216909E-05      0.6949931E-04
      216    -2.42110      0.8040580E-05      0.7809878E-04
      216    -2.15790      0.1079274E-04      0.9042807E-04
      216    -1.89470      0.1557847E-04      0.1091828E-03
      216    -1.63160      0.2421496E-04      0.1397260E-03
      216    -1.36840      0.4287082E-04      0.1932543E-03
      216    -1.10530      0.9515243E-04      0.2925653E-03
      216    -0.84210      0.3528449E-03      0.4676602E-03
      216    -0.57890      0.3800418E-02      0.6490623E-03
      216    -0.31580      0.3531953E-03      0.5817882E-03
      216    -0.05260      0.9522773E-04      0.3778852E-03
      216     0.21050      0.4285620E-04      0.2390850E-03
      216     0.47370      0.2414884E-04      0.1636362E-03
      216     0.73680      0.1548389E-04      0.1216898E-03
      216     1.00000      0.1076235E-04      0.9666456E-04
 
     The file specfun_cum[BND].elself has been correctly written

     Unfolding on the coarse grid

     INITIALIZATION: 




     Electron-Phonon interpolation



     Total program execution
     EPW          :      0.03s CPU      0.10s WALL

                                                                                          
 Please consider citing:                                                                  
 S. Ponce, E. R. Margine, C. Verdi and F. Giustino, Comput. Phys. Commun. 209, 116 (2016) 
                                                                                          
