                                                                                      
                                       ``:oss/                                        
                           `.+s+.     .+ys--yh+     `./ss+.                           
                          -sh//yy+`   +yy   +yy    -+h+-oyy                           
                          -yh- .oyy/.-sh.   .syo-.:sy-  /yh                           
                 `.-.`    `yh+   -oyyyo.     `/syys:    oys      `.`                  
               `/+ssys+-` `sh+      `                   oys`   .:osyo`                
               -yh- ./syyooyo`                          .sys+/oyo--yh/                
               `yy+    .-:-.                             `-/+/:`  -sh-                
                /yh.                                              oys                 
          ``..---hho---------`   .---------..`      `.-----.`    -hd+---.             
       `./osmNMMMMMMMMMMMMMMMs. +NNMMMMMMMMNNmh+.   yNMMMMMNm-  oNMMMMMNmo++:`        
       +sy--/sdMMMhyyyyyyyNMMh- .oyNMMmyyyyyhNMMm+` -yMMMdyyo:` .oyyNMMNhs+syy`       
       -yy/   /MMM+.`-+/``mMMy-   `mMMh:`````.dMMN:` `MMMy-`-dhhy```mMMy:``+hs        
        -yy+` /MMMo:-mMM+`-oo/.    mMMh:     `dMMN/`  dMMm:`dMMMMy..MMMo-.+yo`        
         .sys`/MMMMNNMMMs-         mMMmyooooymMMNo:   oMMM/sMMMMMM++MMN//oh:          
          `sh+/MMMhyyMMMs- `-`     mMMMMMMMMMNmy+-`   -MMMhMMMsmMMmdMMd/yy+           
    `-/+++oyy-/MMM+.`/hh/.`mNm:`   mMMd+/////:-.`      NMMMMMd/:NMMMMMy:/yyo/:.`      
   +os+//:-..-oMMMo:--:::-/MMMo. .-mMMd+---`           hMMMMN+. oMMMMMo. `-+osyso:`   
   syo     `mNMMMMMNNNNNNNNMMMo.oNNMMMMMNNNN:`         +MMMMs:`  dMMMN/`     ``:syo   
   /yh`     :syyyyyyyyyyyyyyyy+.`+syyyyyyyyo:`         .oyys:`   .oyys:`        +yh   
   -yh-        ````````````````    `````````              ``        ``          oys   
   -+h/------------------------::::::::://////++++++++++++++++++++++///////::::/yd:   
   shdddddddddddddddddddddddddddddhhhhhhhhyyyyyssssssssssssssssyyyyyyyhhhhhhhddddh`   
                                                                                      
  S. Ponce, E. R. Margine, C. Verdi, and F. Giustino,                                 
                                                Comput. Phys. Commun. 209, 116 (2016) 
                                                                                      

     Program EPW v.5.0.0 starts on  1Jul2018 at 12:58:43 

     This program is part of the open-source Quantum ESPRESSO suite
     for quantum simulation of materials; please cite
         "P. Giannozzi et al., J. Phys.:Condens. Matter 21 395502 (2009);
         "P. Giannozzi et al., J. Phys.:Condens. Matter 29 465901 (2017);
          URL http://www.quantum-espresso.org", 
     in publications or presentations arising from this work. More details at
     http://www.quantum-espresso.org/quote

     Parallel version (MPI), running on     1 processors

     MPI processes distributed on     1 nodes

     Reading data from directory:
     ./diam.save/

     IMPORTANT: XC functional enforced from input :
     Exchange-correlation      = PZ ( 1  1  0  0 0 0)
     Any further DFT definition will be discarded
     Please, verify this is what you really want

               file C_3.98148.UPF: wavefunction(s)  3d renormalized
 
     G-vector sticks info
     --------------------
     sticks:   dense  smooth     PW     G-vecs:    dense   smooth      PW
     Sum         367     367    121                 4645     4645     893
 

Possibly too few bands at point    1   0.00000   0.00000   0.00000

Possibly too few bands at point    2  -0.33333   0.33333  -0.33333

Possibly too few bands at point    3  -0.66667   0.66667  -0.66667

Possibly too few bands at point    4   0.33333   0.33333   0.33333

Possibly too few bands at point    5   0.00000   0.66667   0.00000

Possibly too few bands at point    6  -0.33333   1.00000  -0.33333

Possibly too few bands at point    7   0.66667   0.66667   0.66667

Possibly too few bands at point    8   0.33333   1.00000   0.33333

Possibly too few bands at point    9   0.00000   1.33333   0.00000

Possibly too few bands at point   10  -0.33333  -0.33333   0.33333

Possibly too few bands at point   11  -0.66667   0.00000   0.00000

Possibly too few bands at point   12  -1.00000   0.33333  -0.33333

Possibly too few bands at point   13   0.00000   0.00000   0.66667

Possibly too few bands at point   14  -0.33333   0.33333   0.33333

Possibly too few bands at point   15  -0.66667   0.66667  -0.00000

Possibly too few bands at point   16   0.33333   0.33333   1.00000

Possibly too few bands at point   17   0.00000   0.66667   0.66667

Possibly too few bands at point   18  -0.33333   1.00000   0.33333

Possibly too few bands at point   19  -0.66667  -0.66667   0.66667

Possibly too few bands at point   20  -1.00000  -0.33333   0.33333

Possibly too few bands at point   21  -1.33333   0.00000   0.00000

Possibly too few bands at point   22  -0.33333  -0.33333   1.00000

Possibly too few bands at point   23  -0.66667  -0.00000   0.66667

Possibly too few bands at point   24  -1.00000   0.33333   0.33333

Possibly too few bands at point   25   0.00000   0.00000   1.33333

Possibly too few bands at point   26  -0.33333   0.33333   1.00000

Possibly too few bands at point   27  -0.66667   0.66667   0.66667
  autoval = -.1282E+01
     Irreps are as follows:

                     mode #   1
                     (  -0.54666   0.00000   ) 
                     (  -0.33450   0.00000   ) 
                     (   0.29878   0.00000   ) 
                     (   0.54666   0.00000   ) 
                     (   0.33450   0.00000   ) 
                     (  -0.29878   0.00000   ) 
  autoval = -.1282E+01
     Irreps are as follows:

                     mode #   2
                     (  -0.43955   0.00000   ) 
                     (   0.30584   0.00000   ) 
                     (  -0.46180   0.00000   ) 
                     (   0.43955   0.00000   ) 
                     (  -0.30584   0.00000   ) 
                     (   0.46180   0.00000   ) 
  autoval = -.1282E+01
     Irreps are as follows:

                     mode #   3
                     (  -0.08923   0.00000   ) 
                     (   0.54274   0.00000   ) 
                     (   0.44438   0.00000   ) 
                     (   0.08923   0.00000   ) 
                     (  -0.54274   0.00000   ) 
                     (  -0.44438   0.00000   ) 
  autoval = 0.4148E+01
     Irreps are as follows:

                     mode #   4
                     (  -0.12036   0.00000   ) 
                     (  -0.49883   0.00000   ) 
                     (  -0.48649   0.00000   ) 
                     (  -0.12036   0.00000   ) 
                     (  -0.49883   0.00000   ) 
                     (  -0.48649   0.00000   ) 
  autoval = 0.4148E+01
     Irreps are as follows:

                     mode #   5
                     (  -0.40327   0.00000   ) 
                     (   0.45248   0.00000   ) 
                     (  -0.36419   0.00000   ) 
                     (  -0.40327   0.00000   ) 
                     (   0.45248   0.00000   ) 
                     (  -0.36419   0.00000   ) 
  autoval = 0.4148E+01
     Irreps are as follows:

                     mode #   6
                     (  -0.56823   0.00000   ) 
                     (  -0.21546   0.00000   ) 
                     (   0.36151   0.00000   ) 
                     (  -0.56823   0.00000   ) 
                     (  -0.21546   0.00000   ) 
                     (   0.36151   0.00000   ) 

     --                                                                         

     bravais-lattice index     =            2
     lattice parameter (a_0)   =       6.6425  a.u.
     unit-cell volume          =      73.2698 (a.u.)^3
     number of atoms/cell      =            2
     number of atomic types    =            1
     kinetic-energy cut-off    =      60.0000  Ry
     charge density cut-off    =     240.0000  Ry
     convergence threshold     =      0.0E+00
     beta                      =       0.0000
     number of iterations used =            0
     Exchange-correlation      = PZ ( 1  1  0  0 0 0)


     celldm(1)=    6.64245  celldm(2)=    0.00000  celldm(3)=    0.00000
     celldm(4)=    0.00000  celldm(5)=    0.00000  celldm(6)=    0.00000

     crystal axes: (cart. coord. in units of a_0)
               a(1) = ( -0.5000  0.0000  0.5000 )  
               a(2) = (  0.0000  0.5000  0.5000 )  
               a(3) = ( -0.5000  0.5000  0.0000 )  

     reciprocal axes: (cart. coord. in units 2 pi/a_0)
               b(1) = ( -1.0000 -1.0000  1.0000 )  
               b(2) = (  1.0000  1.0000  1.0000 )  
               b(3) = ( -1.0000  1.0000 -1.0000 )  


     Atoms inside the unit cell: 

   Cartesian axes

     site n.  atom      mass           positions (a_0 units)
        1        C   12.0118   tau( 1) = (    0.00000    0.00000    0.00000  )
        2        C   12.0118   tau( 2) = (    0.25000    0.25000    0.25000  )
 
     49 Sym.Ops. (with q -> -q+G )

                                    s                        frac. trans.

      isym =  1     identity                                     

 cryst.   s( 1) = (     1     0     0 )
                  (     0          1          0      )
                  (     0          0          1      )

 cart.   s( 1) = (  1.0000000  0.0000000  0.0000000 )
                  (  0.0000000  1.0000000  0.0000000 )
                  (  0.0000000  0.0000000  1.0000000 )


      isym =  2     180 deg rotation - cart. axis [0,0,1]        

 cryst.   s( 2) = (     0     1    -1 )
                  (     1          0         -1      )
                  (     0          0         -1      )

 cart.   s( 2) = ( -1.0000000  0.0000000  0.0000000 )
                  (  0.0000000 -1.0000000  0.0000000 )
                  (  0.0000000  0.0000000  1.0000000 )


      isym =  3     180 deg rotation - cart. axis [0,1,0]        

 cryst.   s( 3) = (    -1     0     0 )
                  (    -1          0          1      )
                  (    -1          1          0      )

 cart.   s( 3) = ( -1.0000000  0.0000000  0.0000000 )
                  (  0.0000000  1.0000000  0.0000000 )
                  (  0.0000000  0.0000000 -1.0000000 )


      isym =  4     180 deg rotation - cart. axis [1,0,0]        

 cryst.   s( 4) = (     0    -1     1 )
                  (     0         -1          0      )
                  (     1         -1          0      )

 cart.   s( 4) = (  1.0000000  0.0000000  0.0000000 )
                  (  0.0000000 -1.0000000  0.0000000 )
                  (  0.0000000  0.0000000 -1.0000000 )


      isym =  5     180 deg rotation - cart. axis [1,1,0]        

 cryst.   s( 5) = (     0    -1     0 )    f =(  0.2500000 )
                  (    -1          0          0      )       (  0.2500000 )
                  (     0          0         -1      )       (  0.2500000 )

 cart.   s( 5) = (  0.0000000  1.0000000  0.0000000 )    f =( -0.2500000 )
                  (  1.0000000  0.0000000  0.0000000 )       (  0.2500000 )
                  (  0.0000000  0.0000000 -1.0000000 )       (  0.2500000 )


      isym =  6     180 deg rotation - cart. axis [1,-1,0]       

 cryst.   s( 6) = (    -1     0     1 )    f =(  0.2500000 )
                  (     0         -1          1      )       (  0.2500000 )
                  (     0          0          1      )       (  0.2500000 )

 cart.   s( 6) = (  0.0000000 -1.0000000  0.0000000 )    f =( -0.2500000 )
                  ( -1.0000000  0.0000000  0.0000000 )       (  0.2500000 )
                  (  0.0000000  0.0000000 -1.0000000 )       (  0.2500000 )


      isym =  7     90 deg rotation - cart. axis [0,0,-1]        

 cryst.   s( 7) = (     0     1     0 )    f =(  0.2500000 )
                  (     0          1         -1      )       (  0.2500000 )
                  (    -1          1          0      )       (  0.2500000 )

 cart.   s( 7) = (  0.0000000  1.0000000  0.0000000 )    f =( -0.2500000 )
                  ( -1.0000000  0.0000000  0.0000000 )       (  0.2500000 )
                  (  0.0000000  0.0000000  1.0000000 )       (  0.2500000 )


      isym =  8     90 deg rotation - cart. axis [0,0,1]         

 cryst.   s( 8) = (     1     0    -1 )    f =(  0.2500000 )
                  (     1          0          0      )       (  0.2500000 )
                  (     1         -1          0      )       (  0.2500000 )

 cart.   s( 8) = (  0.0000000 -1.0000000  0.0000000 )    f =( -0.2500000 )
                  (  1.0000000  0.0000000  0.0000000 )       (  0.2500000 )
                  (  0.0000000  0.0000000  1.0000000 )       (  0.2500000 )


      isym =  9     180 deg rotation - cart. axis [1,0,1]        

 cryst.   s( 9) = (    -1     0     0 )    f =(  0.2500000 )
                  (     0          0         -1      )       (  0.2500000 )
                  (     0         -1          0      )       (  0.2500000 )

 cart.   s( 9) = (  0.0000000  0.0000000  1.0000000 )    f =( -0.2500000 )
                  (  0.0000000 -1.0000000  0.0000000 )       (  0.2500000 )
                  (  1.0000000  0.0000000  0.0000000 )       (  0.2500000 )


      isym = 10     180 deg rotation - cart. axis [-1,0,1]       

 cryst.   s(10) = (     1     0     0 )    f =(  0.2500000 )
                  (     1         -1          0      )       (  0.2500000 )
                  (     1          0         -1      )       (  0.2500000 )

 cart.   s(10) = (  0.0000000  0.0000000 -1.0000000 )    f =( -0.2500000 )
                  (  0.0000000 -1.0000000  0.0000000 )       (  0.2500000 )
                  ( -1.0000000  0.0000000  0.0000000 )       (  0.2500000 )


      isym = 11     90 deg rotation - cart. axis [0,1,0]         

 cryst.   s(11) = (     0     1    -1 )    f =(  0.2500000 )
                  (    -1          1          0      )       (  0.2500000 )
                  (     0          1          0      )       (  0.2500000 )

 cart.   s(11) = (  0.0000000  0.0000000  1.0000000 )    f =( -0.2500000 )
                  (  0.0000000  1.0000000  0.0000000 )       (  0.2500000 )
                  ( -1.0000000  0.0000000  0.0000000 )       (  0.2500000 )


      isym = 12     90 deg rotation - cart. axis [0,-1,0]        

 cryst.   s(12) = (     0    -1     1 )    f =(  0.2500000 )
                  (     0          0          1      )       (  0.2500000 )
                  (    -1          0          1      )       (  0.2500000 )

 cart.   s(12) = (  0.0000000  0.0000000 -1.0000000 )    f =( -0.2500000 )
                  (  0.0000000  1.0000000  0.0000000 )       (  0.2500000 )
                  (  1.0000000  0.0000000  0.0000000 )       (  0.2500000 )


      isym = 13     180 deg rotation - cart. axis [0,1,1]        

 cryst.   s(13) = (    -1     1     0 )    f =(  0.2500000 )
                  (     0          1          0      )       (  0.2500000 )
                  (     0          1         -1      )       (  0.2500000 )

 cart.   s(13) = ( -1.0000000  0.0000000  0.0000000 )    f =( -0.2500000 )
                  (  0.0000000  0.0000000  1.0000000 )       (  0.2500000 )
                  (  0.0000000  1.0000000  0.0000000 )       (  0.2500000 )


      isym = 14     180 deg rotation - cart. axis [0,1,-1]       

 cryst.   s(14) = (     0     0    -1 )    f =(  0.2500000 )
                  (     0         -1          0      )       (  0.2500000 )
                  (    -1          0          0      )       (  0.2500000 )

 cart.   s(14) = ( -1.0000000  0.0000000  0.0000000 )    f =( -0.2500000 )
                  (  0.0000000  0.0000000 -1.0000000 )       (  0.2500000 )
                  (  0.0000000 -1.0000000  0.0000000 )       (  0.2500000 )


      isym = 15     90 deg rotation - cart. axis [-1,0,0]        

 cryst.   s(15) = (     0     0     1 )    f =(  0.2500000 )
                  (    -1          0          1      )       (  0.2500000 )
                  (     0         -1          1      )       (  0.2500000 )

 cart.   s(15) = (  1.0000000  0.0000000  0.0000000 )    f =( -0.2500000 )
                  (  0.0000000  0.0000000  1.0000000 )       (  0.2500000 )
                  (  0.0000000 -1.0000000  0.0000000 )       (  0.2500000 )


      isym = 16     90 deg rotation - cart. axis [1,0,0]         

 cryst.   s(16) = (     1    -1     0 )    f =(  0.2500000 )
                  (     1          0         -1      )       (  0.2500000 )
                  (     1          0          0      )       (  0.2500000 )

 cart.   s(16) = (  1.0000000  0.0000000  0.0000000 )    f =( -0.2500000 )
                  (  0.0000000  0.0000000 -1.0000000 )       (  0.2500000 )
                  (  0.0000000  1.0000000  0.0000000 )       (  0.2500000 )


      isym = 17     120 deg rotation - cart. axis [-1,-1,-1]     

 cryst.   s(17) = (    -1     0     1 )
                  (    -1          1          0      )
                  (    -1          0          0      )

 cart.   s(17) = (  0.0000000  1.0000000  0.0000000 )
                  (  0.0000000  0.0000000  1.0000000 )
                  (  1.0000000  0.0000000  0.0000000 )


      isym = 18     120 deg rotation - cart. axis [-1,1,1]       

 cryst.   s(18) = (     0     1     0 )
                  (     0          0          1      )
                  (     1          0          0      )

 cart.   s(18) = (  0.0000000 -1.0000000  0.0000000 )
                  (  0.0000000  0.0000000  1.0000000 )
                  ( -1.0000000  0.0000000  0.0000000 )


      isym = 19     120 deg rotation - cart. axis [1,1,-1]       

 cryst.   s(19) = (     1     0    -1 )
                  (     0          0         -1      )
                  (     0          1         -1      )

 cart.   s(19) = (  0.0000000  1.0000000  0.0000000 )
                  (  0.0000000  0.0000000 -1.0000000 )
                  ( -1.0000000  0.0000000  0.0000000 )


      isym = 20     120 deg rotation - cart. axis [1,-1,1]       

 cryst.   s(20) = (     0    -1     0 )
                  (     1         -1          0      )
                  (     0         -1          1      )

 cart.   s(20) = (  0.0000000 -1.0000000  0.0000000 )
                  (  0.0000000  0.0000000 -1.0000000 )
                  (  1.0000000  0.0000000  0.0000000 )


      isym = 21     120 deg rotation - cart. axis [1,1,1]        

 cryst.   s(21) = (     0     0    -1 )
                  (     0          1         -1      )
                  (     1          0         -1      )

 cart.   s(21) = (  0.0000000  0.0000000  1.0000000 )
                  (  1.0000000  0.0000000  0.0000000 )
                  (  0.0000000  1.0000000  0.0000000 )


      isym = 22     120 deg rotation - cart. axis [-1,1,-1]      

 cryst.   s(22) = (    -1     1     0 )
                  (    -1          0          0      )
                  (    -1          0          1      )

 cart.   s(22) = (  0.0000000  0.0000000  1.0000000 )
                  ( -1.0000000  0.0000000  0.0000000 )
                  (  0.0000000 -1.0000000  0.0000000 )


      isym = 23     120 deg rotation - cart. axis [1,-1,-1]      

 cryst.   s(23) = (     0     0     1 )
                  (     1          0          0      )
                  (     0          1          0      )

 cart.   s(23) = (  0.0000000  0.0000000 -1.0000000 )
                  ( -1.0000000  0.0000000  0.0000000 )
                  (  0.0000000  1.0000000  0.0000000 )


      isym = 24     120 deg rotation - cart. axis [-1,-1,1]      

 cryst.   s(24) = (     1    -1     0 )
                  (     0         -1          1      )
                  (     0         -1          0      )

 cart.   s(24) = (  0.0000000  0.0000000 -1.0000000 )
                  (  1.0000000  0.0000000  0.0000000 )
                  (  0.0000000 -1.0000000  0.0000000 )


      isym = 25     inversion                                    

 cryst.   s(25) = (    -1     0     0 )    f =(  0.2500000 )
                  (     0         -1          0      )       (  0.2500000 )
                  (     0          0         -1      )       (  0.2500000 )

 cart.   s(25) = ( -1.0000000  0.0000000  0.0000000 )    f =( -0.2500000 )
                  (  0.0000000 -1.0000000  0.0000000 )       (  0.2500000 )
                  (  0.0000000  0.0000000 -1.0000000 )       (  0.2500000 )


      isym = 26     inv. 180 deg rotation - cart. axis [0,0,1]   

 cryst.   s(26) = (     0    -1     1 )    f =(  0.2500000 )
                  (    -1          0          1      )       (  0.2500000 )
                  (     0          0          1      )       (  0.2500000 )

 cart.   s(26) = (  1.0000000  0.0000000  0.0000000 )    f =( -0.2500000 )
                  (  0.0000000  1.0000000  0.0000000 )       (  0.2500000 )
                  (  0.0000000  0.0000000 -1.0000000 )       (  0.2500000 )


      isym = 27     inv. 180 deg rotation - cart. axis [0,1,0]   

 cryst.   s(27) = (     1     0     0 )    f =(  0.2500000 )
                  (     1          0         -1      )       (  0.2500000 )
                  (     1         -1          0      )       (  0.2500000 )

 cart.   s(27) = (  1.0000000  0.0000000  0.0000000 )    f =( -0.2500000 )
                  (  0.0000000 -1.0000000  0.0000000 )       (  0.2500000 )
                  (  0.0000000  0.0000000  1.0000000 )       (  0.2500000 )


      isym = 28     inv. 180 deg rotation - cart. axis [1,0,0]   

 cryst.   s(28) = (     0     1    -1 )    f =(  0.2500000 )
                  (     0          1          0      )       (  0.2500000 )
                  (    -1          1          0      )       (  0.2500000 )

 cart.   s(28) = ( -1.0000000  0.0000000  0.0000000 )    f =( -0.2500000 )
                  (  0.0000000  1.0000000  0.0000000 )       (  0.2500000 )
                  (  0.0000000  0.0000000  1.0000000 )       (  0.2500000 )


      isym = 29     inv. 180 deg rotation - cart. axis [1,1,0]   

 cryst.   s(29) = (     0     1     0 )
                  (     1          0          0      )
                  (     0          0          1      )

 cart.   s(29) = (  0.0000000 -1.0000000  0.0000000 )
                  ( -1.0000000  0.0000000  0.0000000 )
                  (  0.0000000  0.0000000  1.0000000 )


      isym = 30     inv. 180 deg rotation - cart. axis [1,-1,0]  

 cryst.   s(30) = (     1     0    -1 )
                  (     0          1         -1      )
                  (     0          0         -1      )

 cart.   s(30) = (  0.0000000  1.0000000  0.0000000 )
                  (  1.0000000  0.0000000  0.0000000 )
                  (  0.0000000  0.0000000  1.0000000 )


      isym = 31     inv. 90 deg rotation - cart. axis [0,0,-1]   

 cryst.   s(31) = (     0    -1     0 )
                  (     0         -1          1      )
                  (     1         -1          0      )

 cart.   s(31) = (  0.0000000 -1.0000000  0.0000000 )
                  (  1.0000000  0.0000000  0.0000000 )
                  (  0.0000000  0.0000000 -1.0000000 )


      isym = 32     inv. 90 deg rotation - cart. axis [0,0,1]    

 cryst.   s(32) = (    -1     0     1 )
                  (    -1          0          0      )
                  (    -1          1          0      )

 cart.   s(32) = (  0.0000000  1.0000000  0.0000000 )
                  ( -1.0000000  0.0000000  0.0000000 )
                  (  0.0000000  0.0000000 -1.0000000 )


      isym = 33     inv. 180 deg rotation - cart. axis [1,0,1]   

 cryst.   s(33) = (     1     0     0 )
                  (     0          0          1      )
                  (     0          1          0      )

 cart.   s(33) = (  0.0000000  0.0000000 -1.0000000 )
                  (  0.0000000  1.0000000  0.0000000 )
                  ( -1.0000000  0.0000000  0.0000000 )


      isym = 34     inv. 180 deg rotation - cart. axis [-1,0,1]  

 cryst.   s(34) = (    -1     0     0 )
                  (    -1          1          0      )
                  (    -1          0          1      )

 cart.   s(34) = (  0.0000000  0.0000000  1.0000000 )
                  (  0.0000000  1.0000000  0.0000000 )
                  (  1.0000000  0.0000000  0.0000000 )


      isym = 35     inv. 90 deg rotation - cart. axis [0,1,0]    

 cryst.   s(35) = (     0    -1     1 )
                  (     1         -1          0      )
                  (     0         -1          0      )

 cart.   s(35) = (  0.0000000  0.0000000 -1.0000000 )
                  (  0.0000000 -1.0000000  0.0000000 )
                  (  1.0000000  0.0000000  0.0000000 )


      isym = 36     inv. 90 deg rotation - cart. axis [0,-1,0]   

 cryst.   s(36) = (     0     1    -1 )
                  (     0          0         -1      )
                  (     1          0         -1      )

 cart.   s(36) = (  0.0000000  0.0000000  1.0000000 )
                  (  0.0000000 -1.0000000  0.0000000 )
                  ( -1.0000000  0.0000000  0.0000000 )


      isym = 37     inv. 180 deg rotation - cart. axis [0,1,1]   

 cryst.   s(37) = (     1    -1     0 )
                  (     0         -1          0      )
                  (     0         -1          1      )

 cart.   s(37) = (  1.0000000  0.0000000  0.0000000 )
                  (  0.0000000  0.0000000 -1.0000000 )
                  (  0.0000000 -1.0000000  0.0000000 )


      isym = 38     inv. 180 deg rotation - cart. axis [0,1,-1]  

 cryst.   s(38) = (     0     0     1 )
                  (     0          1          0      )
                  (     1          0          0      )

 cart.   s(38) = (  1.0000000  0.0000000  0.0000000 )
                  (  0.0000000  0.0000000  1.0000000 )
                  (  0.0000000  1.0000000  0.0000000 )


      isym = 39     inv. 90 deg rotation - cart. axis [-1,0,0]   

 cryst.   s(39) = (     0     0    -1 )
                  (     1          0         -1      )
                  (     0          1         -1      )

 cart.   s(39) = ( -1.0000000  0.0000000  0.0000000 )
                  (  0.0000000  0.0000000 -1.0000000 )
                  (  0.0000000  1.0000000  0.0000000 )


      isym = 40     inv. 90 deg rotation - cart. axis [1,0,0]    

 cryst.   s(40) = (    -1     1     0 )
                  (    -1          0          1      )
                  (    -1          0          0      )

 cart.   s(40) = ( -1.0000000  0.0000000  0.0000000 )
                  (  0.0000000  0.0000000  1.0000000 )
                  (  0.0000000 -1.0000000  0.0000000 )


      isym = 41     inv. 120 deg rotation - cart. axis [-1,-1,-1]

 cryst.   s(41) = (     1     0    -1 )    f =(  0.2500000 )
                  (     1         -1          0      )       (  0.2500000 )
                  (     1          0          0      )       (  0.2500000 )

 cart.   s(41) = (  0.0000000 -1.0000000  0.0000000 )    f =( -0.2500000 )
                  (  0.0000000  0.0000000 -1.0000000 )       (  0.2500000 )
                  ( -1.0000000  0.0000000  0.0000000 )       (  0.2500000 )


      isym = 42     inv. 120 deg rotation - cart. axis [-1,1,1]  

 cryst.   s(42) = (     0    -1     0 )    f =(  0.2500000 )
                  (     0          0         -1      )       (  0.2500000 )
                  (    -1          0          0      )       (  0.2500000 )

 cart.   s(42) = (  0.0000000  1.0000000  0.0000000 )    f =( -0.2500000 )
                  (  0.0000000  0.0000000 -1.0000000 )       (  0.2500000 )
                  (  1.0000000  0.0000000  0.0000000 )       (  0.2500000 )


      isym = 43     inv. 120 deg rotation - cart. axis [1,1,-1]  

 cryst.   s(43) = (    -1     0     1 )    f =(  0.2500000 )
                  (     0          0          1      )       (  0.2500000 )
                  (     0         -1          1      )       (  0.2500000 )

 cart.   s(43) = (  0.0000000 -1.0000000  0.0000000 )    f =( -0.2500000 )
                  (  0.0000000  0.0000000  1.0000000 )       (  0.2500000 )
                  (  1.0000000  0.0000000  0.0000000 )       (  0.2500000 )


      isym = 44     inv. 120 deg rotation - cart. axis [1,-1,1]  

 cryst.   s(44) = (     0     1     0 )    f =(  0.2500000 )
                  (    -1          1          0      )       (  0.2500000 )
                  (     0          1         -1      )       (  0.2500000 )

 cart.   s(44) = (  0.0000000  1.0000000  0.0000000 )    f =( -0.2500000 )
                  (  0.0000000  0.0000000  1.0000000 )       (  0.2500000 )
                  ( -1.0000000  0.0000000  0.0000000 )       (  0.2500000 )


      isym = 45     inv. 120 deg rotation - cart. axis [1,1,1]   

 cryst.   s(45) = (     0     0     1 )    f =(  0.2500000 )
                  (     0         -1          1      )       (  0.2500000 )
                  (    -1          0          1      )       (  0.2500000 )

 cart.   s(45) = (  0.0000000  0.0000000 -1.0000000 )    f =( -0.2500000 )
                  ( -1.0000000  0.0000000  0.0000000 )       (  0.2500000 )
                  (  0.0000000 -1.0000000  0.0000000 )       (  0.2500000 )


      isym = 46     inv. 120 deg rotation - cart. axis [-1,1,-1] 

 cryst.   s(46) = (     1    -1     0 )    f =(  0.2500000 )
                  (     1          0          0      )       (  0.2500000 )
                  (     1          0         -1      )       (  0.2500000 )

 cart.   s(46) = (  0.0000000  0.0000000 -1.0000000 )    f =( -0.2500000 )
                  (  1.0000000  0.0000000  0.0000000 )       (  0.2500000 )
                  (  0.0000000  1.0000000  0.0000000 )       (  0.2500000 )


      isym = 47     inv. 120 deg rotation - cart. axis [1,-1,-1] 

 cryst.   s(47) = (     0     0    -1 )    f =(  0.2500000 )
                  (    -1          0          0      )       (  0.2500000 )
                  (     0         -1          0      )       (  0.2500000 )

 cart.   s(47) = (  0.0000000  0.0000000  1.0000000 )    f =( -0.2500000 )
                  (  1.0000000  0.0000000  0.0000000 )       (  0.2500000 )
                  (  0.0000000 -1.0000000  0.0000000 )       (  0.2500000 )


      isym = 48     inv. 120 deg rotation - cart. axis [-1,-1,1] 

 cryst.   s(48) = (    -1     1     0 )    f =(  0.2500000 )
                  (     0          1         -1      )       (  0.2500000 )
                  (     0          1          0      )       (  0.2500000 )

 cart.   s(48) = (  0.0000000  0.0000000  1.0000000 )    f =( -0.2500000 )
                  ( -1.0000000  0.0000000  0.0000000 )       (  0.2500000 )
                  (  0.0000000  1.0000000  0.0000000 )       (  0.2500000 )


     This transformation sends q -> -q+G

      isym = 49     identity                                     

 cryst.   s(49) = (     1     0     0 )
                  (     0          1          0      )
                  (     0          0          1      )

 cart.   s(49) = (  1.0000000  0.0000000  0.0000000 )
                  (  0.0000000  1.0000000  0.0000000 )
                  (  0.0000000  0.0000000  1.0000000 )


     G cutoff =  268.2305  (   4645 G-vectors)     FFT grid: ( 24, 24, 24)
     number of k points=   27  gaussian broad. (Ry)=  0.0200     ngauss =   1
                       cart. coord. in units 2pi/a_0
        k(    1) = (   0.0000000   0.0000000   0.0000000), wk =   0.0740741
        k(    2) = (  -0.3333333   0.3333333  -0.3333333), wk =   0.0740741
        k(    3) = (  -0.6666667   0.6666667  -0.6666667), wk =   0.0740741
        k(    4) = (   0.3333333   0.3333333   0.3333333), wk =   0.0740741
        k(    5) = (   0.0000000   0.6666667   0.0000000), wk =   0.0740741
        k(    6) = (  -0.3333333   1.0000000  -0.3333333), wk =   0.0740741
        k(    7) = (   0.6666667   0.6666667   0.6666667), wk =   0.0740741
        k(    8) = (   0.3333333   1.0000000   0.3333333), wk =   0.0740741
        k(    9) = (   0.0000000   1.3333333   0.0000000), wk =   0.0740741
        k(   10) = (  -0.3333333  -0.3333333   0.3333333), wk =   0.0740741
        k(   11) = (  -0.6666667   0.0000000   0.0000000), wk =   0.0740741
        k(   12) = (  -1.0000000   0.3333333  -0.3333333), wk =   0.0740741
        k(   13) = (   0.0000000   0.0000000   0.6666667), wk =   0.0740741
        k(   14) = (  -0.3333333   0.3333333   0.3333333), wk =   0.0740741
        k(   15) = (  -0.6666667   0.6666667  -0.0000000), wk =   0.0740741
        k(   16) = (   0.3333333   0.3333333   1.0000000), wk =   0.0740741
        k(   17) = (   0.0000000   0.6666667   0.6666667), wk =   0.0740741
        k(   18) = (  -0.3333333   1.0000000   0.3333333), wk =   0.0740741
        k(   19) = (  -0.6666667  -0.6666667   0.6666667), wk =   0.0740741
        k(   20) = (  -1.0000000  -0.3333333   0.3333333), wk =   0.0740741
        k(   21) = (  -1.3333333   0.0000000   0.0000000), wk =   0.0740741
        k(   22) = (  -0.3333333  -0.3333333   1.0000000), wk =   0.0740741
        k(   23) = (  -0.6666667  -0.0000000   0.6666667), wk =   0.0740741
        k(   24) = (  -1.0000000   0.3333333   0.3333333), wk =   0.0740741
        k(   25) = (   0.0000000   0.0000000   1.3333333), wk =   0.0740741
        k(   26) = (  -0.3333333   0.3333333   1.0000000), wk =   0.0740741
        k(   27) = (  -0.6666667   0.6666667   0.6666667), wk =   0.0740741

                       cryst. coord.
        k(    1) = (   0.0000000   0.0000000   0.0000000), wk =   0.0740741
        k(    2) = (   0.0000000   0.0000000   0.3333333), wk =   0.0740741
        k(    3) = (   0.0000000   0.0000000   0.6666667), wk =   0.0740741
        k(    4) = (   0.0000000   0.3333333   0.0000000), wk =   0.0740741
        k(    5) = (   0.0000000   0.3333333   0.3333333), wk =   0.0740741
        k(    6) = (   0.0000000   0.3333333   0.6666667), wk =   0.0740741
        k(    7) = (   0.0000000   0.6666667   0.0000000), wk =   0.0740741
        k(    8) = (   0.0000000   0.6666667   0.3333333), wk =   0.0740741
        k(    9) = (   0.0000000   0.6666667   0.6666667), wk =   0.0740741
        k(   10) = (   0.3333333   0.0000000   0.0000000), wk =   0.0740741
        k(   11) = (   0.3333333   0.0000000   0.3333333), wk =   0.0740741
        k(   12) = (   0.3333333   0.0000000   0.6666667), wk =   0.0740741
        k(   13) = (   0.3333333   0.3333333   0.0000000), wk =   0.0740741
        k(   14) = (   0.3333333   0.3333333   0.3333333), wk =   0.0740741
        k(   15) = (   0.3333333   0.3333333   0.6666667), wk =   0.0740741
        k(   16) = (   0.3333333   0.6666667   0.0000000), wk =   0.0740741
        k(   17) = (   0.3333333   0.6666667   0.3333333), wk =   0.0740741
        k(   18) = (   0.3333333   0.6666667   0.6666667), wk =   0.0740741
        k(   19) = (   0.6666667   0.0000000   0.0000000), wk =   0.0740741
        k(   20) = (   0.6666667   0.0000000   0.3333333), wk =   0.0740741
        k(   21) = (   0.6666667   0.0000000   0.6666667), wk =   0.0740741
        k(   22) = (   0.6666667   0.3333333   0.0000000), wk =   0.0740741
        k(   23) = (   0.6666667   0.3333333   0.3333333), wk =   0.0740741
        k(   24) = (   0.6666667   0.3333333   0.6666667), wk =   0.0740741
        k(   25) = (   0.6666667   0.6666667   0.0000000), wk =   0.0740741
        k(   26) = (   0.6666667   0.6666667   0.3333333), wk =   0.0740741
        k(   27) = (   0.6666667   0.6666667   0.6666667), wk =   0.0740741

     PseudoPot. # 1 for C  read from file:
     ./C_3.98148.UPF
     MD5 check sum: 8b65adcd36341f53911399f4b6efa59f
     Pseudo is Norm-conserving, Zval =  4.0
     Generated by new atomic code, or converted to UPF format
     Using radial grid of  461 points,  2 beta functions with: 
                l(1) =   0
                l(2) =   1
     EPW          :     0.15s CPU         0.15s WALL

     EPW          :     0.20s CPU         0.21s WALL

     No wavefunction gauge setting applied
     -------------------------------------------------------------------
     Wannierization on  3 x  3 x  3 electronic grid
     -------------------------------------------------------------------
 
     Spin CASE ( default = unpolarized )
 
     Initializing Wannier90
 
 
     Initial Wannier projections
 
     (   0.00000   0.00000   0.00000) :  l =  -3 mr =   1
     (   0.00000   0.00000   0.00000) :  l =  -3 mr =   2
     (   0.00000   0.00000   0.00000) :  l =  -3 mr =   3
     (   0.00000   0.00000   0.00000) :  l =  -3 mr =   4

      - Number of bands is (  4)
      - Number of total bands is (  4)
      - Number of excluded bands is (  0)
      - Number of wannier functions is (  4)
      - All guiding functions are given 
 
  Reading data about k-point neighbours 
 
      - All neighbours are found 
 
     AMN
      k points =    27 in    1 pools
            1 of   27 on ionode
            2 of   27 on ionode
            3 of   27 on ionode
            4 of   27 on ionode
            5 of   27 on ionode
            6 of   27 on ionode
            7 of   27 on ionode
            8 of   27 on ionode
            9 of   27 on ionode
           10 of   27 on ionode
           11 of   27 on ionode
           12 of   27 on ionode
           13 of   27 on ionode
           14 of   27 on ionode
           15 of   27 on ionode
           16 of   27 on ionode
           17 of   27 on ionode
           18 of   27 on ionode
           19 of   27 on ionode
           20 of   27 on ionode
           21 of   27 on ionode
           22 of   27 on ionode
           23 of   27 on ionode
           24 of   27 on ionode
           25 of   27 on ionode
           26 of   27 on ionode
           27 of   27 on ionode
 
     AMN calculated
 
     MMN
      k points =    27 in    1 pools
            1 of   27 on ionode
            2 of   27 on ionode
            3 of   27 on ionode
            4 of   27 on ionode
            5 of   27 on ionode
            6 of   27 on ionode
            7 of   27 on ionode
            8 of   27 on ionode
            9 of   27 on ionode
           10 of   27 on ionode
           11 of   27 on ionode
           12 of   27 on ionode
           13 of   27 on ionode
           14 of   27 on ionode
           15 of   27 on ionode
           16 of   27 on ionode
           17 of   27 on ionode
           18 of   27 on ionode
           19 of   27 on ionode
           20 of   27 on ionode
           21 of   27 on ionode
           22 of   27 on ionode
           23 of   27 on ionode
           24 of   27 on ionode
           25 of   27 on ionode
           26 of   27 on ionode
           27 of   27 on ionode
     MMN calculated
 
     Running Wannier90
 
     Wannier Function centers (cartesian, alat) and spreads (ang):
 
     (   0.12500   0.12500   0.12500) :   0.57702
     (   0.12500  -0.12500  -0.12500) :   0.57702
     (  -0.12500   0.12500  -0.12500) :   0.57702
     (  -0.12500  -0.12500   0.12500) :   0.57702
 
     -------------------------------------------------------------------
     WANNIER      :      2.82s CPU      2.86s WALL (       1 calls)
     -------------------------------------------------------------------

     Dipole matrix elements calculated
 

     Calculating kmap and kgmap
     Progress  kmap: ###########################
     Progress kgmap: ########################################
     kmaps        :      1.96s CPU      2.10s WALL (       1 calls)
     Symmetries of bravais lattice:  48
     Symmetries of crystal:          48


     ===================================================================
     irreducible q point #    1
     ===================================================================

     Symmetries of small group of q: 48
          in addition sym. q -> -q+G:
 
     Number of q in the star =    1
     List of q in the star:
          1   0.000000000   0.000000000   0.000000000
     Imposing acoustic sum rule on the dynamical matrix
     Frequencies of the matrix for the current q in the star
     0.00000     0.00000     0.00000   931.99318   931.99318   931.99318
 
        q(    1 ) = (   0.0000000   0.0000000   0.0000000 )
                                    s                        frac. trans.

      isym =  1     identity                                     

 cryst.   s( 1) = (     1          0          0      )
                  (     0          1          0      )
                  (     0          0          1      )

 cart.    s( 1) = (  1.0000000  0.0000000  0.0000000 )
                  (  0.0000000  1.0000000  0.0000000 )
                  (  0.0000000  0.0000000  1.0000000 )


      isym =  2     inv. 180 deg rotation - cart. axis [-1,0,1]  

 cryst.   s( 2) = (    -1          0          0      )
                  (    -1          1          0      )
                  (    -1          0          1      )

 cart.    s( 2) = (  0.0000000  0.0000000  1.0000000 )
                  (  0.0000000  1.0000000  0.0000000 )
                  (  1.0000000  0.0000000  0.0000000 )


      isym =  3     180 deg rotation - cart. axis [1,0,1]        

 cryst.   s( 3) = (    -1          0          0      )    f =(  0.2500000 )
                  (     0          0         -1      )       (  0.2500000 )
                  (     0         -1          0      )       (  0.2500000 )

 cart.    s( 3) = (  0.0000000  0.0000000  1.0000000 )    f =( -0.2500000 )
                  (  0.0000000 -1.0000000  0.0000000 )       (  0.2500000 )
                  (  1.0000000  0.0000000  0.0000000 )       (  0.2500000 )


      isym =  4     inv. 180 deg rotation - cart. axis [0,1,0]   

 cryst.   s( 4) = (     1          0          0      )    f =(  0.2500000 )
                  (     1          0         -1      )       (  0.2500000 )
                  (     1         -1          0      )       (  0.2500000 )

 cart.    s( 4) = (  1.0000000  0.0000000  0.0000000 )    f =( -0.2500000 )
                  (  0.0000000 -1.0000000  0.0000000 )       (  0.2500000 )
                  (  0.0000000  0.0000000  1.0000000 )       (  0.2500000 )


      isym =  5     180 deg rotation - cart. axis [0,1,0]        

 cryst.   s( 5) = (    -1          0          0      )
                  (    -1          0          1      )
                  (    -1          1          0      )

 cart.    s( 5) = ( -1.0000000  0.0000000  0.0000000 )
                  (  0.0000000  1.0000000  0.0000000 )
                  (  0.0000000  0.0000000 -1.0000000 )


      isym =  6     inv. 180 deg rotation - cart. axis [0,0,1]   

 cryst.   s( 6) = (     0         -1          1      )    f =(  0.2500000 )
                  (    -1          0          1      )       (  0.2500000 )
                  (     0          0          1      )       (  0.2500000 )

 cart.    s( 6) = (  1.0000000  0.0000000  0.0000000 )    f =( -0.2500000 )
                  (  0.0000000  1.0000000  0.0000000 )       (  0.2500000 )
                  (  0.0000000  0.0000000 -1.0000000 )       (  0.2500000 )


      isym =  7     inv. 180 deg rotation - cart. axis [1,0,0]   

 cryst.   s( 7) = (     0          1         -1      )    f =(  0.2500000 )
                  (     0          1          0      )       (  0.2500000 )
                  (    -1          1          0      )       (  0.2500000 )

 cart.    s( 7) = ( -1.0000000  0.0000000  0.0000000 )    f =( -0.2500000 )
                  (  0.0000000  1.0000000  0.0000000 )       (  0.2500000 )
                  (  0.0000000  0.0000000  1.0000000 )       (  0.2500000 )


      isym =  8     inv. 180 deg rotation - cart. axis [1,0,1]   

 cryst.   s( 8) = (     1          0          0      )
                  (     0          0          1      )
                  (     0          1          0      )

 cart.    s( 8) = (  0.0000000  0.0000000 -1.0000000 )
                  (  0.0000000  1.0000000  0.0000000 )
                  ( -1.0000000  0.0000000  0.0000000 )


      isym =  9      90 deg rotation - cart. axis [0,1,0]        

 cryst.   s( 9) = (     0          1         -1      )    f =(  0.2500000 )
                  (    -1          1          0      )       (  0.2500000 )
                  (     0          1          0      )       (  0.2500000 )

 cart.    s( 9) = (  0.0000000  0.0000000  1.0000000 )    f =( -0.2500000 )
                  (  0.0000000  1.0000000  0.0000000 )       (  0.2500000 )
                  ( -1.0000000  0.0000000  0.0000000 )       (  0.2500000 )


      isym = 10     180 deg rotation - cart. axis [-1,0,1]       

 cryst.   s(10) = (     1          0          0      )    f =(  0.2500000 )
                  (     1         -1          0      )       (  0.2500000 )
                  (     1          0         -1      )       (  0.2500000 )

 cart.    s(10) = (  0.0000000  0.0000000 -1.0000000 )    f =( -0.2500000 )
                  (  0.0000000 -1.0000000  0.0000000 )       (  0.2500000 )
                  ( -1.0000000  0.0000000  0.0000000 )       (  0.2500000 )


      isym = 11     120 deg rotation - cart. axis [-1,1,-1]      

 cryst.   s(11) = (    -1          1          0      )
                  (    -1          0          0      )
                  (    -1          0          1      )

 cart.    s(11) = (  0.0000000  0.0000000  1.0000000 )
                  ( -1.0000000  0.0000000  0.0000000 )
                  (  0.0000000 -1.0000000  0.0000000 )


      isym = 12     inv. 180 deg rotation - cart. axis [1,1,0]   

 cryst.   s(12) = (     0          1          0      )
                  (     1          0          0      )
                  (     0          0          1      )

 cart.    s(12) = (  0.0000000 -1.0000000  0.0000000 )
                  ( -1.0000000  0.0000000  0.0000000 )
                  (  0.0000000  0.0000000  1.0000000 )


      isym = 13     180 deg rotation - cart. axis [0,1,1]        

 cryst.   s(13) = (    -1          1          0      )    f =(  0.2500000 )
                  (     0          1          0      )       (  0.2500000 )
                  (     0          1         -1      )       (  0.2500000 )

 cart.    s(13) = ( -1.0000000  0.0000000  0.0000000 )    f =( -0.2500000 )
                  (  0.0000000  0.0000000  1.0000000 )       (  0.2500000 )
                  (  0.0000000  1.0000000  0.0000000 )       (  0.2500000 )


      isym = 14     180 deg rotation - cart. axis [0,1,-1]       

 cryst.   s(14) = (     0          0         -1      )    f =(  0.2500000 )
                  (     0         -1          0      )       (  0.2500000 )
                  (    -1          0          0      )       (  0.2500000 )

 cart.    s(14) = ( -1.0000000  0.0000000  0.0000000 )    f =( -0.2500000 )
                  (  0.0000000  0.0000000 -1.0000000 )       (  0.2500000 )
                  (  0.0000000 -1.0000000  0.0000000 )       (  0.2500000 )


      isym = 15      90 deg rotation - cart. axis [-1,0,0]       

 cryst.   s(15) = (     0          0          1      )    f =(  0.2500000 )
                  (    -1          0          1      )       (  0.2500000 )
                  (     0         -1          1      )       (  0.2500000 )

 cart.    s(15) = (  1.0000000  0.0000000  0.0000000 )    f =( -0.2500000 )
                  (  0.0000000  0.0000000  1.0000000 )       (  0.2500000 )
                  (  0.0000000 -1.0000000  0.0000000 )       (  0.2500000 )


      isym = 16      90 deg rotation - cart. axis [1,0,0]        

 cryst.   s(16) = (     1         -1          0      )    f =(  0.2500000 )
                  (     1          0         -1      )       (  0.2500000 )
                  (     1          0          0      )       (  0.2500000 )

 cart.    s(16) = (  1.0000000  0.0000000  0.0000000 )    f =( -0.2500000 )
                  (  0.0000000  0.0000000 -1.0000000 )       (  0.2500000 )
                  (  0.0000000  1.0000000  0.0000000 )       (  0.2500000 )


      isym = 17     120 deg rotation - cart. axis [-1,-1,-1]     

 cryst.   s(17) = (    -1          0          1      )
                  (    -1          1          0      )
                  (    -1          0          0      )

 cart.    s(17) = (  0.0000000  1.0000000  0.0000000 )
                  (  0.0000000  0.0000000  1.0000000 )
                  (  1.0000000  0.0000000  0.0000000 )


      isym = 18     120 deg rotation - cart. axis [-1,1,1]       

 cryst.   s(18) = (     0          1          0      )
                  (     0          0          1      )
                  (     1          0          0      )

 cart.    s(18) = (  0.0000000 -1.0000000  0.0000000 )
                  (  0.0000000  0.0000000  1.0000000 )
                  ( -1.0000000  0.0000000  0.0000000 )


      isym = 19     120 deg rotation - cart. axis [1,1,-1]       

 cryst.   s(19) = (     1          0         -1      )
                  (     0          0         -1      )
                  (     0          1         -1      )

 cart.    s(19) = (  0.0000000  1.0000000  0.0000000 )
                  (  0.0000000  0.0000000 -1.0000000 )
                  ( -1.0000000  0.0000000  0.0000000 )


      isym = 20     180 deg rotation - cart. axis [0,0,1]        

 cryst.   s(20) = (     0          1         -1      )
                  (     1          0         -1      )
                  (     0          0         -1      )

 cart.    s(20) = ( -1.0000000  0.0000000  0.0000000 )
                  (  0.0000000 -1.0000000  0.0000000 )
                  (  0.0000000  0.0000000  1.0000000 )


      isym = 21     120 deg rotation - cart. axis [1,1,1]        

 cryst.   s(21) = (     0          0         -1      )
                  (     0          1         -1      )
                  (     1          0         -1      )

 cart.    s(21) = (  0.0000000  0.0000000  1.0000000 )
                  (  1.0000000  0.0000000  0.0000000 )
                  (  0.0000000  1.0000000  0.0000000 )


      isym = 22     120 deg rotation - cart. axis [1,-1,1]       

 cryst.   s(22) = (     0         -1          0      )
                  (     1         -1          0      )
                  (     0         -1          1      )

 cart.    s(22) = (  0.0000000 -1.0000000  0.0000000 )
                  (  0.0000000  0.0000000 -1.0000000 )
                  (  1.0000000  0.0000000  0.0000000 )


      isym = 23     120 deg rotation - cart. axis [1,-1,-1]      

 cryst.   s(23) = (     0          0          1      )
                  (     1          0          0      )
                  (     0          1          0      )

 cart.    s(23) = (  0.0000000  0.0000000 -1.0000000 )
                  ( -1.0000000  0.0000000  0.0000000 )
                  (  0.0000000  1.0000000  0.0000000 )


      isym = 24     120 deg rotation - cart. axis [-1,-1,1]      

 cryst.   s(24) = (     1         -1          0      )
                  (     0         -1          1      )
                  (     0         -1          0      )

 cart.    s(24) = (  0.0000000  0.0000000 -1.0000000 )
                  (  1.0000000  0.0000000  0.0000000 )
                  (  0.0000000 -1.0000000  0.0000000 )


      isym = 25     inversion                                    

 cryst.   s(25) = (    -1          0          0      )    f =(  0.2500000 )
                  (     0         -1          0      )       (  0.2500000 )
                  (     0          0         -1      )       (  0.2500000 )

 cart.    s(25) = ( -1.0000000  0.0000000  0.0000000 )    f =( -0.2500000 )
                  (  0.0000000 -1.0000000  0.0000000 )       (  0.2500000 )
                  (  0.0000000  0.0000000 -1.0000000 )       (  0.2500000 )


      isym = 26     inv. 180 deg rotation - cart. axis [0,1,1]   

 cryst.   s(26) = (     1         -1          0      )
                  (     0         -1          0      )
                  (     0         -1          1      )

 cart.    s(26) = (  1.0000000  0.0000000  0.0000000 )
                  (  0.0000000  0.0000000 -1.0000000 )
                  (  0.0000000 -1.0000000  0.0000000 )


      isym = 27      90 deg rotation - cart. axis [0,-1,0]       

 cryst.   s(27) = (     0         -1          1      )    f =(  0.2500000 )
                  (     0          0          1      )       (  0.2500000 )
                  (    -1          0          1      )       (  0.2500000 )

 cart.    s(27) = (  0.0000000  0.0000000 -1.0000000 )    f =( -0.2500000 )
                  (  0.0000000  1.0000000  0.0000000 )       (  0.2500000 )
                  (  1.0000000  0.0000000  0.0000000 )       (  0.2500000 )


      isym = 28      90 deg rotation - cart. axis [0,0,-1]       

 cryst.   s(28) = (     0          1          0      )    f =(  0.2500000 )
                  (     0          1         -1      )       (  0.2500000 )
                  (    -1          1          0      )       (  0.2500000 )

 cart.    s(28) = (  0.0000000  1.0000000  0.0000000 )    f =( -0.2500000 )
                  ( -1.0000000  0.0000000  0.0000000 )       (  0.2500000 )
                  (  0.0000000  0.0000000  1.0000000 )       (  0.2500000 )


      isym = 29     180 deg rotation - cart. axis [1,0,0]        

 cryst.   s(29) = (     0         -1          1      )
                  (     0         -1          0      )
                  (     1         -1          0      )

 cart.    s(29) = (  1.0000000  0.0000000  0.0000000 )
                  (  0.0000000 -1.0000000  0.0000000 )
                  (  0.0000000  0.0000000 -1.0000000 )


      isym = 30     inv. 180 deg rotation - cart. axis [1,-1,0]  

 cryst.   s(30) = (     1          0         -1      )
                  (     0          1         -1      )
                  (     0          0         -1      )

 cart.    s(30) = (  0.0000000  1.0000000  0.0000000 )
                  (  1.0000000  0.0000000  0.0000000 )
                  (  0.0000000  0.0000000  1.0000000 )


      isym = 31     inv.  90 deg rotation - cart. axis [0,0,-1]  

 cryst.   s(31) = (     0         -1          0      )
                  (     0         -1          1      )
                  (     1         -1          0      )

 cart.    s(31) = (  0.0000000 -1.0000000  0.0000000 )
                  (  1.0000000  0.0000000  0.0000000 )
                  (  0.0000000  0.0000000 -1.0000000 )


      isym = 32     inv.  90 deg rotation - cart. axis [0,0,1]   

 cryst.   s(32) = (    -1          0          1      )
                  (    -1          0          0      )
                  (    -1          1          0      )

 cart.    s(32) = (  0.0000000  1.0000000  0.0000000 )
                  ( -1.0000000  0.0000000  0.0000000 )
                  (  0.0000000  0.0000000 -1.0000000 )


      isym = 33      90 deg rotation - cart. axis [0,0,1]        

 cryst.   s(33) = (     1          0         -1      )    f =(  0.2500000 )
                  (     1          0          0      )       (  0.2500000 )
                  (     1         -1          0      )       (  0.2500000 )

 cart.    s(33) = (  0.0000000 -1.0000000  0.0000000 )    f =( -0.2500000 )
                  (  1.0000000  0.0000000  0.0000000 )       (  0.2500000 )
                  (  0.0000000  0.0000000  1.0000000 )       (  0.2500000 )


      isym = 34     180 deg rotation - cart. axis [1,1,0]        

 cryst.   s(34) = (     0         -1          0      )    f =(  0.2500000 )
                  (    -1          0          0      )       (  0.2500000 )
                  (     0          0         -1      )       (  0.2500000 )

 cart.    s(34) = (  0.0000000  1.0000000  0.0000000 )    f =( -0.2500000 )
                  (  1.0000000  0.0000000  0.0000000 )       (  0.2500000 )
                  (  0.0000000  0.0000000 -1.0000000 )       (  0.2500000 )


      isym = 35     inv.  90 deg rotation - cart. axis [0,1,0]   

 cryst.   s(35) = (     0         -1          1      )
                  (     1         -1          0      )
                  (     0         -1          0      )

 cart.    s(35) = (  0.0000000  0.0000000 -1.0000000 )
                  (  0.0000000 -1.0000000  0.0000000 )
                  (  1.0000000  0.0000000  0.0000000 )


      isym = 36     inv.  90 deg rotation - cart. axis [0,-1,0]  

 cryst.   s(36) = (     0          1         -1      )
                  (     0          0         -1      )
                  (     1          0         -1      )

 cart.    s(36) = (  0.0000000  0.0000000  1.0000000 )
                  (  0.0000000 -1.0000000  0.0000000 )
                  ( -1.0000000  0.0000000  0.0000000 )


      isym = 37     180 deg rotation - cart. axis [1,-1,0]       

 cryst.   s(37) = (    -1          0          1      )    f =(  0.2500000 )
                  (     0         -1          1      )       (  0.2500000 )
                  (     0          0          1      )       (  0.2500000 )

 cart.    s(37) = (  0.0000000 -1.0000000  0.0000000 )    f =( -0.2500000 )
                  ( -1.0000000  0.0000000  0.0000000 )       (  0.2500000 )
                  (  0.0000000  0.0000000 -1.0000000 )       (  0.2500000 )


      isym = 38     inv. 180 deg rotation - cart. axis [0,1,-1]  

 cryst.   s(38) = (     0          0          1      )
                  (     0          1          0      )
                  (     1          0          0      )

 cart.    s(38) = (  1.0000000  0.0000000  0.0000000 )
                  (  0.0000000  0.0000000  1.0000000 )
                  (  0.0000000  1.0000000  0.0000000 )


      isym = 39     inv.  90 deg rotation - cart. axis [-1,0,0]  

 cryst.   s(39) = (     0          0         -1      )
                  (     1          0         -1      )
                  (     0          1         -1      )

 cart.    s(39) = ( -1.0000000  0.0000000  0.0000000 )
                  (  0.0000000  0.0000000 -1.0000000 )
                  (  0.0000000  1.0000000  0.0000000 )


      isym = 40     inv.  90 deg rotation - cart. axis [1,0,0]   

 cryst.   s(40) = (    -1          1          0      )
                  (    -1          0          1      )
                  (    -1          0          0      )

 cart.    s(40) = ( -1.0000000  0.0000000  0.0000000 )
                  (  0.0000000  0.0000000  1.0000000 )
                  (  0.0000000 -1.0000000  0.0000000 )


      isym = 41     inv. 120 deg rotation - cart. axis [-1,-1,-1]

 cryst.   s(41) = (     1          0         -1      )    f =(  0.2500000 )
                  (     1         -1          0      )       (  0.2500000 )
                  (     1          0          0      )       (  0.2500000 )

 cart.    s(41) = (  0.0000000 -1.0000000  0.0000000 )    f =( -0.2500000 )
                  (  0.0000000  0.0000000 -1.0000000 )       (  0.2500000 )
                  ( -1.0000000  0.0000000  0.0000000 )       (  0.2500000 )


      isym = 42     inv. 120 deg rotation - cart. axis [-1,1,1]  

 cryst.   s(42) = (     0         -1          0      )    f =(  0.2500000 )
                  (     0          0         -1      )       (  0.2500000 )
                  (    -1          0          0      )       (  0.2500000 )

 cart.    s(42) = (  0.0000000  1.0000000  0.0000000 )    f =( -0.2500000 )
                  (  0.0000000  0.0000000 -1.0000000 )       (  0.2500000 )
                  (  1.0000000  0.0000000  0.0000000 )       (  0.2500000 )


      isym = 43     inv. 120 deg rotation - cart. axis [1,1,-1]  

 cryst.   s(43) = (    -1          0          1      )    f =(  0.2500000 )
                  (     0          0          1      )       (  0.2500000 )
                  (     0         -1          1      )       (  0.2500000 )

 cart.    s(43) = (  0.0000000 -1.0000000  0.0000000 )    f =( -0.2500000 )
                  (  0.0000000  0.0000000  1.0000000 )       (  0.2500000 )
                  (  1.0000000  0.0000000  0.0000000 )       (  0.2500000 )


      isym = 44     inv. 120 deg rotation - cart. axis [1,-1,1]  

 cryst.   s(44) = (     0          1          0      )    f =(  0.2500000 )
                  (    -1          1          0      )       (  0.2500000 )
                  (     0          1         -1      )       (  0.2500000 )

 cart.    s(44) = (  0.0000000  1.0000000  0.0000000 )    f =( -0.2500000 )
                  (  0.0000000  0.0000000  1.0000000 )       (  0.2500000 )
                  ( -1.0000000  0.0000000  0.0000000 )       (  0.2500000 )


      isym = 45     inv. 120 deg rotation - cart. axis [1,1,1]   

 cryst.   s(45) = (     0          0          1      )    f =(  0.2500000 )
                  (     0         -1          1      )       (  0.2500000 )
                  (    -1          0          1      )       (  0.2500000 )

 cart.    s(45) = (  0.0000000  0.0000000 -1.0000000 )    f =( -0.2500000 )
                  ( -1.0000000  0.0000000  0.0000000 )       (  0.2500000 )
                  (  0.0000000 -1.0000000  0.0000000 )       (  0.2500000 )


      isym = 46     inv. 120 deg rotation - cart. axis [-1,1,-1] 

 cryst.   s(46) = (     1         -1          0      )    f =(  0.2500000 )
                  (     1          0          0      )       (  0.2500000 )
                  (     1          0         -1      )       (  0.2500000 )

 cart.    s(46) = (  0.0000000  0.0000000 -1.0000000 )    f =( -0.2500000 )
                  (  1.0000000  0.0000000  0.0000000 )       (  0.2500000 )
                  (  0.0000000  1.0000000  0.0000000 )       (  0.2500000 )


      isym = 47     inv. 120 deg rotation - cart. axis [1,-1,-1] 

 cryst.   s(47) = (     0          0         -1      )    f =(  0.2500000 )
                  (    -1          0          0      )       (  0.2500000 )
                  (     0         -1          0      )       (  0.2500000 )

 cart.    s(47) = (  0.0000000  0.0000000  1.0000000 )    f =( -0.2500000 )
                  (  1.0000000  0.0000000  0.0000000 )       (  0.2500000 )
                  (  0.0000000 -1.0000000  0.0000000 )       (  0.2500000 )


      isym = 48     inv. 120 deg rotation - cart. axis [-1,-1,1] 

 cryst.   s(48) = (    -1          1          0      )    f =(  0.2500000 )
                  (     0          1         -1      )       (  0.2500000 )
                  (     0          1          0      )       (  0.2500000 )

 cart.    s(48) = (  0.0000000  0.0000000  1.0000000 )    f =( -0.2500000 )
                  ( -1.0000000  0.0000000  0.0000000 )       (  0.2500000 )
                  (  0.0000000  1.0000000  0.0000000 )       (  0.2500000 )

 iq, i, isym, nog, symmo
    1    1    1  T  T
    1    2    2  T  T
    1    3    3  T  F
    1    4    4  T  F
    1    5    5  T  T
    1    6    6  T  F
    1    7    7  T  F
    1    8    8  T  T
    1    9    9  T  F
    1   10   10  T  F
    1   11   11  T  T
    1   12   12  T  T
    1   13   13  T  F
    1   14   14  T  F
    1   15   15  T  F
    1   16   16  T  F
    1   17   17  T  T
    1   18   18  T  T
    1   19   19  T  T
    1   20   20  T  T
    1   21   21  T  T
    1   22   22  T  T
    1   23   23  T  T
    1   24   24  T  T
    1   25   25  T  F
    1   26   26  T  T
    1   27   27  T  F
    1   28   28  T  F
    1   29   29  T  T
    1   30   30  T  T
    1   31   31  T  T
    1   32   32  T  T
    1   33   33  T  F
    1   34   34  T  F
    1   35   35  T  T
    1   36   36  T  T
    1   37   37  T  F
    1   38   38  T  T
    1   39   39  T  T
    1   40   40  T  T
    1   41   41  T  F
    1   42   42  T  F
    1   43   43  T  F
    1   44   44  T  F
    1   45   45  T  F
    1   46   46  T  F
    1   47   47  T  F
    1   48   48  T  F
     Estimated size of gmap: ngxx =  858
     Frequencies of the matrix for the first q in the star
     0.00000     0.00000     0.00000   931.99318   931.99318   931.99318
     0.00000     0.00000     0.00000   115.54851   115.54851   115.54851
   0.0000000000   0.0000000000
   0.0000000000   0.0000000000
   0.0000000000   0.0000000000
   0.0000000000   0.0000000000
   0.0000000000   0.0000000000
   0.0000000000   0.0000000000
   0.0000000000   0.0000000000
   0.0000000000   0.0000000000
   0.0000000000   0.0000000000
   0.0000000000   0.0000000000
   0.0000000000   0.0000000000
   0.0000000000   0.0000000000
   0.0000000000   0.0000000000
   0.0000000000   0.0000000000
   0.0000000000   0.0000000000
   0.0000000000   0.0000000000
   0.0000000000   0.0000000000
   0.0000000000   0.0000000000
   0.0000000000   0.0000000000
   0.0000000000   0.0000000000
   0.0000000000   0.0000000000
   0.0000000000   0.0000000000
   0.0000000000   0.0000000000
   0.0000000000   0.0000000000
   0.0000000000   0.0000000000
   0.0000000000   0.0000000000
   0.0000000000   0.0000000000
   0.0000000000   0.0000000000
   0.0000000000   0.0000000000
   0.0000000000   0.0000000000
   0.0000000000   0.0000000000
   0.0000000000   0.0000000000
   0.0000000000   0.0000000000
   0.0000000000   0.0000000000
   0.0000000000   0.0000000000
   0.0000000000   0.0000000000
     Frequencies of the matrix for the current q in the star
     0.00000     0.00000     0.00000   931.99318   931.99318   931.99318


     ===================================================================
     irreducible q point #    2
     ===================================================================

     Symmetries of small group of q:  6
 
     Number of q in the star =    8
     List of q in the star:
          1  -0.333333333   0.333333333  -0.333333333
          2   0.333333333   0.333333333  -0.333333333
          3   0.333333333   0.333333333   0.333333333
          4  -0.333333333   0.333333333   0.333333333
          5   0.333333333  -0.333333333   0.333333333
          6  -0.333333333  -0.333333333  -0.333333333
          7   0.333333333  -0.333333333  -0.333333333
          8  -0.333333333  -0.333333333   0.333333333
     Frequencies of the matrix for the current q in the star
   496.84443   496.84443   884.46950  1121.50220  1121.50220  1250.74725
     Frequencies of the matrix for the current q in the star
   496.84443   496.84443   884.46950  1121.50220  1121.50220  1250.74725
     Frequencies of the matrix for the current q in the star
   496.84443   496.84443   884.46950  1121.50220  1121.50220  1250.74725
     Frequencies of the matrix for the current q in the star
   496.84443   496.84443   884.46950  1121.50220  1121.50220  1250.74725
     Frequencies of the matrix for the current q in the star
   496.84443   496.84443   884.46950  1121.50220  1121.50220  1250.74725
     Frequencies of the matrix for the current q in the star
   496.84443   496.84443   884.46950  1121.50220  1121.50220  1250.74725
     Frequencies of the matrix for the current q in the star
   496.84443   496.84443   884.46950  1121.50220  1121.50220  1250.74725
     Frequencies of the matrix for the current q in the star
   496.84443   496.84443   884.46950  1121.50220  1121.50220  1250.74725
 
        q(    2 ) = (  -0.3333333   0.3333333  -0.3333333 )
                                    s                        frac. trans.

      isym =  1     identity                                     

 cryst.   s( 1) = (     1          0          0      )
                  (     0          1          0      )
                  (     0          0          1      )

 cart.    s( 1) = (  1.0000000  0.0000000  0.0000000 )
                  (  0.0000000  1.0000000  0.0000000 )
                  (  0.0000000  0.0000000  1.0000000 )


      isym =  2     inv. 180 deg rotation - cart. axis [-1,0,1]  

 cryst.   s( 2) = (    -1          0          0      )
                  (    -1          1          0      )
                  (    -1          0          1      )

 cart.    s( 2) = (  0.0000000  0.0000000  1.0000000 )
                  (  0.0000000  1.0000000  0.0000000 )
                  (  1.0000000  0.0000000  0.0000000 )


      isym =  3     120 deg rotation - cart. axis [-1,1,-1]      

 cryst.   s( 3) = (    -1          1          0      )
                  (    -1          0          0      )
                  (    -1          0          1      )

 cart.    s( 3) = (  0.0000000  0.0000000  1.0000000 )
                  ( -1.0000000  0.0000000  0.0000000 )
                  (  0.0000000 -1.0000000  0.0000000 )


      isym =  4     inv. 180 deg rotation - cart. axis [1,1,0]   

 cryst.   s( 4) = (     0          1          0      )
                  (     1          0          0      )
                  (     0          0          1      )

 cart.    s( 4) = (  0.0000000 -1.0000000  0.0000000 )
                  ( -1.0000000  0.0000000  0.0000000 )
                  (  0.0000000  0.0000000  1.0000000 )


      isym =  5     120 deg rotation - cart. axis [1,-1,1]       

 cryst.   s( 5) = (     0         -1          0      )
                  (     1         -1          0      )
                  (     0         -1          1      )

 cart.    s( 5) = (  0.0000000 -1.0000000  0.0000000 )
                  (  0.0000000  0.0000000 -1.0000000 )
                  (  1.0000000  0.0000000  0.0000000 )


      isym =  6     inv. 180 deg rotation - cart. axis [0,1,1]   

 cryst.   s( 6) = (     1         -1          0      )
                  (     0         -1          0      )
                  (     0         -1          1      )

 cart.    s( 6) = (  1.0000000  0.0000000  0.0000000 )
                  (  0.0000000  0.0000000 -1.0000000 )
                  (  0.0000000 -1.0000000  0.0000000 )


      isym =  7     inv. 180 deg rotation - cart. axis [1,0,0]   

 cryst.   s( 7) = (     0          1         -1      )    f =(  0.2500000 )
                  (     0          1          0      )       (  0.2500000 )
                  (    -1          1          0      )       (  0.2500000 )

 cart.    s( 7) = ( -1.0000000  0.0000000  0.0000000 )    f =( -0.2500000 )
                  (  0.0000000  1.0000000  0.0000000 )       (  0.2500000 )
                  (  0.0000000  0.0000000  1.0000000 )       (  0.2500000 )


      isym =  8     inv. 180 deg rotation - cart. axis [1,0,1]   

 cryst.   s( 8) = (     1          0          0      )
                  (     0          0          1      )
                  (     0          1          0      )

 cart.    s( 8) = (  0.0000000  0.0000000 -1.0000000 )
                  (  0.0000000  1.0000000  0.0000000 )
                  ( -1.0000000  0.0000000  0.0000000 )


      isym =  9      90 deg rotation - cart. axis [0,1,0]        

 cryst.   s( 9) = (     0          1         -1      )    f =(  0.2500000 )
                  (    -1          1          0      )       (  0.2500000 )
                  (     0          1          0      )       (  0.2500000 )

 cart.    s( 9) = (  0.0000000  0.0000000  1.0000000 )    f =( -0.2500000 )
                  (  0.0000000  1.0000000  0.0000000 )       (  0.2500000 )
                  ( -1.0000000  0.0000000  0.0000000 )       (  0.2500000 )


      isym = 10     180 deg rotation - cart. axis [-1,0,1]       

 cryst.   s(10) = (     1          0          0      )    f =(  0.2500000 )
                  (     1         -1          0      )       (  0.2500000 )
                  (     1          0         -1      )       (  0.2500000 )

 cart.    s(10) = (  0.0000000  0.0000000 -1.0000000 )    f =( -0.2500000 )
                  (  0.0000000 -1.0000000  0.0000000 )       (  0.2500000 )
                  ( -1.0000000  0.0000000  0.0000000 )       (  0.2500000 )


      isym = 11     180 deg rotation - cart. axis [1,0,1]        

 cryst.   s(11) = (    -1          0          0      )    f =(  0.2500000 )
                  (     0          0         -1      )       (  0.2500000 )
                  (     0         -1          0      )       (  0.2500000 )

 cart.    s(11) = (  0.0000000  0.0000000  1.0000000 )    f =( -0.2500000 )
                  (  0.0000000 -1.0000000  0.0000000 )       (  0.2500000 )
                  (  1.0000000  0.0000000  0.0000000 )       (  0.2500000 )


      isym = 12     inv. 180 deg rotation - cart. axis [0,1,0]   

 cryst.   s(12) = (     1          0          0      )    f =(  0.2500000 )
                  (     1          0         -1      )       (  0.2500000 )
                  (     1         -1          0      )       (  0.2500000 )

 cart.    s(12) = (  1.0000000  0.0000000  0.0000000 )    f =( -0.2500000 )
                  (  0.0000000 -1.0000000  0.0000000 )       (  0.2500000 )
                  (  0.0000000  0.0000000  1.0000000 )       (  0.2500000 )


      isym = 13     180 deg rotation - cart. axis [0,1,1]        

 cryst.   s(13) = (    -1          1          0      )    f =(  0.2500000 )
                  (     0          1          0      )       (  0.2500000 )
                  (     0          1         -1      )       (  0.2500000 )

 cart.    s(13) = ( -1.0000000  0.0000000  0.0000000 )    f =( -0.2500000 )
                  (  0.0000000  0.0000000  1.0000000 )       (  0.2500000 )
                  (  0.0000000  1.0000000  0.0000000 )       (  0.2500000 )


      isym = 14     180 deg rotation - cart. axis [0,1,-1]       

 cryst.   s(14) = (     0          0         -1      )    f =(  0.2500000 )
                  (     0         -1          0      )       (  0.2500000 )
                  (    -1          0          0      )       (  0.2500000 )

 cart.    s(14) = ( -1.0000000  0.0000000  0.0000000 )    f =( -0.2500000 )
                  (  0.0000000  0.0000000 -1.0000000 )       (  0.2500000 )
                  (  0.0000000 -1.0000000  0.0000000 )       (  0.2500000 )


      isym = 15      90 deg rotation - cart. axis [-1,0,0]       

 cryst.   s(15) = (     0          0          1      )    f =(  0.2500000 )
                  (    -1          0          1      )       (  0.2500000 )
                  (     0         -1          1      )       (  0.2500000 )

 cart.    s(15) = (  1.0000000  0.0000000  0.0000000 )    f =( -0.2500000 )
                  (  0.0000000  0.0000000  1.0000000 )       (  0.2500000 )
                  (  0.0000000 -1.0000000  0.0000000 )       (  0.2500000 )


      isym = 16      90 deg rotation - cart. axis [1,0,0]        

 cryst.   s(16) = (     1         -1          0      )    f =(  0.2500000 )
                  (     1          0         -1      )       (  0.2500000 )
                  (     1          0          0      )       (  0.2500000 )

 cart.    s(16) = (  1.0000000  0.0000000  0.0000000 )    f =( -0.2500000 )
                  (  0.0000000  0.0000000 -1.0000000 )       (  0.2500000 )
                  (  0.0000000  1.0000000  0.0000000 )       (  0.2500000 )


      isym = 17     120 deg rotation - cart. axis [-1,-1,-1]     

 cryst.   s(17) = (    -1          0          1      )
                  (    -1          1          0      )
                  (    -1          0          0      )

 cart.    s(17) = (  0.0000000  1.0000000  0.0000000 )
                  (  0.0000000  0.0000000  1.0000000 )
                  (  1.0000000  0.0000000  0.0000000 )


      isym = 18     120 deg rotation - cart. axis [-1,1,1]       

 cryst.   s(18) = (     0          1          0      )
                  (     0          0          1      )
                  (     1          0          0      )

 cart.    s(18) = (  0.0000000 -1.0000000  0.0000000 )
                  (  0.0000000  0.0000000  1.0000000 )
                  ( -1.0000000  0.0000000  0.0000000 )


      isym = 19     120 deg rotation - cart. axis [1,1,-1]       

 cryst.   s(19) = (     1          0         -1      )
                  (     0          0         -1      )
                  (     0          1         -1      )

 cart.    s(19) = (  0.0000000  1.0000000  0.0000000 )
                  (  0.0000000  0.0000000 -1.0000000 )
                  ( -1.0000000  0.0000000  0.0000000 )


      isym = 20     180 deg rotation - cart. axis [0,0,1]        

 cryst.   s(20) = (     0          1         -1      )
                  (     1          0         -1      )
                  (     0          0         -1      )

 cart.    s(20) = ( -1.0000000  0.0000000  0.0000000 )
                  (  0.0000000 -1.0000000  0.0000000 )
                  (  0.0000000  0.0000000  1.0000000 )


      isym = 21     120 deg rotation - cart. axis [1,1,1]        

 cryst.   s(21) = (     0          0         -1      )
                  (     0          1         -1      )
                  (     1          0         -1      )

 cart.    s(21) = (  0.0000000  0.0000000  1.0000000 )
                  (  1.0000000  0.0000000  0.0000000 )
                  (  0.0000000  1.0000000  0.0000000 )


      isym = 22     180 deg rotation - cart. axis [0,1,0]        

 cryst.   s(22) = (    -1          0          0      )
                  (    -1          0          1      )
                  (    -1          1          0      )

 cart.    s(22) = ( -1.0000000  0.0000000  0.0000000 )
                  (  0.0000000  1.0000000  0.0000000 )
                  (  0.0000000  0.0000000 -1.0000000 )


      isym = 23     120 deg rotation - cart. axis [1,-1,-1]      

 cryst.   s(23) = (     0          0          1      )
                  (     1          0          0      )
                  (     0          1          0      )

 cart.    s(23) = (  0.0000000  0.0000000 -1.0000000 )
                  ( -1.0000000  0.0000000  0.0000000 )
                  (  0.0000000  1.0000000  0.0000000 )


      isym = 24     120 deg rotation - cart. axis [-1,-1,1]      

 cryst.   s(24) = (     1         -1          0      )
                  (     0         -1          1      )
                  (     0         -1          0      )

 cart.    s(24) = (  0.0000000  0.0000000 -1.0000000 )
                  (  1.0000000  0.0000000  0.0000000 )
                  (  0.0000000 -1.0000000  0.0000000 )


      isym = 25     inversion                                    

 cryst.   s(25) = (    -1          0          0      )    f =(  0.2500000 )
                  (     0         -1          0      )       (  0.2500000 )
                  (     0          0         -1      )       (  0.2500000 )

 cart.    s(25) = ( -1.0000000  0.0000000  0.0000000 )    f =( -0.2500000 )
                  (  0.0000000 -1.0000000  0.0000000 )       (  0.2500000 )
                  (  0.0000000  0.0000000 -1.0000000 )       (  0.2500000 )


      isym = 26     inv. 180 deg rotation - cart. axis [0,0,1]   

 cryst.   s(26) = (     0         -1          1      )    f =(  0.2500000 )
                  (    -1          0          1      )       (  0.2500000 )
                  (     0          0          1      )       (  0.2500000 )

 cart.    s(26) = (  1.0000000  0.0000000  0.0000000 )    f =( -0.2500000 )
                  (  0.0000000  1.0000000  0.0000000 )       (  0.2500000 )
                  (  0.0000000  0.0000000 -1.0000000 )       (  0.2500000 )


      isym = 27      90 deg rotation - cart. axis [0,-1,0]       

 cryst.   s(27) = (     0         -1          1      )    f =(  0.2500000 )
                  (     0          0          1      )       (  0.2500000 )
                  (    -1          0          1      )       (  0.2500000 )

 cart.    s(27) = (  0.0000000  0.0000000 -1.0000000 )    f =( -0.2500000 )
                  (  0.0000000  1.0000000  0.0000000 )       (  0.2500000 )
                  (  1.0000000  0.0000000  0.0000000 )       (  0.2500000 )


      isym = 28      90 deg rotation - cart. axis [0,0,-1]       

 cryst.   s(28) = (     0          1          0      )    f =(  0.2500000 )
                  (     0          1         -1      )       (  0.2500000 )
                  (    -1          1          0      )       (  0.2500000 )

 cart.    s(28) = (  0.0000000  1.0000000  0.0000000 )    f =( -0.2500000 )
                  ( -1.0000000  0.0000000  0.0000000 )       (  0.2500000 )
                  (  0.0000000  0.0000000  1.0000000 )       (  0.2500000 )


      isym = 29     180 deg rotation - cart. axis [1,0,0]        

 cryst.   s(29) = (     0         -1          1      )
                  (     0         -1          0      )
                  (     1         -1          0      )

[...]
      205        3     -3.2910     37.3920    139.9849      1.0292     -0.0284
      206        3     -6.9060     -4.8513     75.1754      1.0133     -0.0132
      207        3     -7.7465    -18.0301     68.7287      1.0064     -0.0063
      208        3     -6.9060     -5.2786     78.8832      1.0145     -0.0143
      209        3     -3.2910     43.1415    146.4590      1.0308     -0.0299
      210        3     -3.4193     38.3693    150.8659      1.0298     -0.0289
      211        3     -1.5590     99.5027    100.5297      1.0054     -0.0054
      212        3     -3.2910     43.1415    146.4589      1.0308     -0.0299
      213        3     -4.5379     10.9889    116.5334      1.0166     -0.0164
      214        3     -5.2472      0.3699    104.2787      1.0198     -0.0194
      215        3     -3.4193     40.8638    153.1702      1.0311     -0.0302
      216        3     -0.4527    117.9913     72.5382      1.0041     -0.0040
  
        1        4      0.3145    130.1013     45.7505      0.9864      0.0138
        2        4     -0.4527    117.9913     72.5382      1.0041     -0.0040
        3        4     -2.0907     83.2841    127.0393      1.0197     -0.0193
        4        4     -2.9614     46.6859    149.3821      1.0391     -0.0376
        5        4     -2.0907     83.2840    127.0391      1.0197     -0.0193
        6        4     -0.4527    117.9912     72.5382      1.0041     -0.0040
        7        4     -0.4527    111.1816     75.9073      1.0060     -0.0060
        8        4     -1.5590     99.5027    100.5297      1.0054     -0.0054
        9        4     -2.6027     76.9310    152.4415      1.0382     -0.0368
       10        4     -3.8929     20.7322    119.0796      1.0217     -0.0212
       11        4     -2.6593     60.2020    132.8396      1.0341     -0.0330
       12        4     -0.9512     96.6860     75.4799      1.0048     -0.0048
       13        4     -2.0907     78.3699    127.8170      1.0200     -0.0196
       14        4     -2.6027     66.9214    142.5651      1.0357     -0.0344
       15        4     -5.2110      3.9761     94.1602      1.0178     -0.0175
       16        4     -5.9070     -4.3230     67.8318      1.0031     -0.0031
       17        4     -4.5555     11.7317    101.5471      1.0134     -0.0133
       18        4     -2.6593     59.2211    137.9255      1.0366     -0.0353
       19        4     -2.9614     42.6471    153.0859      1.0405     -0.0389
       20        4     -3.8929     19.8730    124.9173      1.0238     -0.0232
       21        4     -5.9070     -5.3880     68.7751      1.0030     -0.0030
       22        4     -6.9896     -5.3488     58.8184      1.0116     -0.0115
       23        4     -5.9070     -5.3882     68.7752      1.0030     -0.0030
       24        4     -3.8929     19.8730    124.9174      1.0238     -0.0232
       25        4     -2.0907     78.3699    127.8168      1.0200     -0.0196
       26        4     -2.6593     59.2212    137.9254      1.0366     -0.0353
       27        4     -4.5555     11.7318    101.5470      1.0134     -0.0133
       28        4     -5.9070     -4.3230     67.8319      1.0031     -0.0031
       29        4     -5.2110      3.9760     94.1602      1.0178     -0.0175
       30        4     -2.6027     66.9216    142.5650      1.0357     -0.0344
       31        4     -0.4527    111.1815     75.9073      1.0060     -0.0060
       32        4     -0.9512     96.6860     75.4798      1.0048     -0.0048
       33        4     -2.6593     60.2020    132.8397      1.0341     -0.0330
       34        4     -3.8929     20.7322    119.0796      1.0217     -0.0212
       35        4     -2.6027     76.9311    152.4414      1.0382     -0.0368
       36        4     -1.5590     99.5027    100.5297      1.0054     -0.0054
       37        4     -0.4527    117.9913     72.5382      1.0041     -0.0040
       38        4     -1.5590     99.5027    100.5296      1.0054     -0.0054
       39        4     -2.6027     69.0908    143.4038      1.0363     -0.0351
       40        4     -3.8929     22.9153    126.2995      1.0230     -0.0225
       41        4     -2.6593     64.6450    141.8282      1.0372     -0.0358
       42        4     -0.9512    104.3059     75.2720      1.0036     -0.0036
       43        4     -1.5590     99.5027    100.5297      1.0054     -0.0054
       44        4     -0.4527    117.9912     72.5382      1.0041     -0.0040
       45        4     -0.9512    104.3059     75.2720      1.0036     -0.0036
       46        4     -2.6593     64.6450    141.8284      1.0372     -0.0358
       47        4     -3.8929     22.9152    126.2995      1.0230     -0.0225
       48        4     -2.6027     69.0909    143.4037      1.0363     -0.0351
       49        4     -2.6027     66.9214    142.5651      1.0357     -0.0344
       50        4     -0.9512     96.6860     75.4799      1.0048     -0.0048
       51        4     -2.6027     69.0909    143.4037      1.0363     -0.0351
       52        4     -3.9563     26.1989    129.2434      1.0236     -0.0231
       53        4     -5.2565      2.4667     97.0333      1.0186     -0.0183
       54        4     -3.9563     23.3954    121.5817      1.0218     -0.0213
       55        4     -3.8929     19.8730    124.9173      1.0238     -0.0232
       56        4     -2.6593     59.2211    137.9255      1.0366     -0.0353
       57        4     -3.9563     23.3954    121.5817      1.0218     -0.0213
       58        4     -5.9070     -4.5164     72.3804      1.0037     -0.0037
       59        4     -7.0563     -4.3104     75.1795      1.0169     -0.0166
       60        4     -5.2565      2.1980     94.6120      1.0177     -0.0174
       61        4     -2.6593     59.2212    137.9253      1.0366     -0.0353
       62        4     -3.8929     19.8730    124.9174      1.0238     -0.0232
       63        4     -5.2565      2.1980     94.6120      1.0177     -0.0174
       64        4     -7.0563     -4.3104     75.1794      1.0169     -0.0166
       65        4     -5.9070     -4.5164     72.3805      1.0037     -0.0037
       66        4     -3.9563     23.3955    121.5818      1.0218     -0.0213
       67        4     -0.9512     96.6860     75.4798      1.0048     -0.0048
       68        4     -2.6027     66.9216    142.5649      1.0357     -0.0344
       69        4     -3.9563     23.3955    121.5817      1.0218     -0.0213
       70        4     -5.2565      2.4668     97.0334      1.0186     -0.0183
       71        4     -3.9563     26.1989    129.2434      1.0236     -0.0231
       72        4     -2.6027     69.0908    143.4039      1.0363     -0.0351
       73        4     -2.0907     83.2841    127.0392      1.0197     -0.0193
       74        4     -2.6027     69.0908    143.4038      1.0363     -0.0351
       75        4     -5.2110      3.9761     94.1601      1.0178     -0.0175
       76        4     -5.9070     -4.5163     72.3804      1.0037     -0.0037
       77        4     -4.5555     13.0257    108.0532      1.0142     -0.0140
       78        4     -2.6593     64.6450    141.8284      1.0372     -0.0358
       79        4     -2.6027     76.9310    152.4415      1.0382     -0.0368
       80        4     -0.9512    104.3059     75.2720      1.0036     -0.0036
       81        4     -2.6027     76.9311    152.4413      1.0382     -0.0368
       82        4     -3.9563     26.1990    129.2433      1.0236     -0.0231
       83        4     -5.2565      3.1390    101.6238      1.0192     -0.0188
       84        4     -3.9563     26.1989    129.2434      1.0236     -0.0231
       85        4     -5.2110      3.9761     94.1602      1.0178     -0.0175
       86        4     -2.6027     69.0909    143.4037      1.0363     -0.0351
       87        4     -2.0907     83.2840    127.0391      1.0197     -0.0193
       88        4     -2.6593     64.6450    141.8282      1.0372     -0.0358
       89        4     -4.5555     13.0257    108.0532      1.0142     -0.0140
       90        4     -5.9070     -4.5164     72.3804      1.0037     -0.0037
       91        4     -5.9070     -5.3880     68.7752      1.0030     -0.0030
       92        4     -3.9563     23.3955    121.5818      1.0218     -0.0213
       93        4     -2.6593     60.2020    132.8396      1.0341     -0.0330
       94        4     -3.8929     22.9152    126.2995      1.0230     -0.0225
       95        4     -5.2565      3.1390    101.6238      1.0192     -0.0188
       96        4     -7.0563     -4.3104     75.1794      1.0169     -0.0166
       97        4     -4.5555     11.7318    101.5470      1.0134     -0.0133
       98        4     -5.2565      2.1980     94.6120      1.0177     -0.0174
       99        4     -4.5555     11.7317    101.5471      1.0134     -0.0133
      100        4     -5.2565      2.4667     97.0334      1.0186     -0.0183
      101        4     -4.5555     13.0257    108.0532      1.0142     -0.0140
      102        4     -5.2565      2.4668     97.0334      1.0186     -0.0183
      103        4     -2.6593     60.2019    132.8397      1.0341     -0.0330
      104        4     -3.9563     23.3955    121.5817      1.0218     -0.0213
      105        4     -5.9070     -5.3881     68.7751      1.0030     -0.0030
      106        4     -7.0563     -4.3104     75.1795      1.0169     -0.0166
      107        4     -5.2565      3.1390    101.6238      1.0192     -0.0188
      108        4     -3.8929     22.9153    126.2995      1.0230     -0.0225
      109        4     -2.9614     46.6859    149.3821      1.0391     -0.0376
      110        4     -3.8929     22.9153    126.2995      1.0230     -0.0225
      111        4     -5.9070     -4.5163     72.3804      1.0037     -0.0037
      112        4     -6.9896     -5.3488     58.8184      1.0116     -0.0115
      113        4     -5.9070     -4.5164     72.3804      1.0037     -0.0037
      114        4     -3.8929     22.9152    126.2995      1.0230     -0.0225
      115        4     -3.8929     20.7322    119.0796      1.0217     -0.0212
      116        4     -2.6593     64.6450    141.8284      1.0372     -0.0358
      117        4     -3.9563     26.1990    129.2433      1.0236     -0.0231
      118        4     -5.9070     -4.3230     67.8318      1.0031     -0.0031
      119        4     -7.0563     -4.3104     75.1795      1.0169     -0.0166
      120        4     -5.2565      2.4667     97.0333      1.0186     -0.0183
      121        4     -5.9070     -4.3230     67.8318      1.0031     -0.0031
      122        4     -3.9563     26.1989    129.2434      1.0236     -0.0231
      123        4     -2.6593     64.6450    141.8282      1.0372     -0.0358
      124        4     -3.8929     20.7322    119.0795      1.0217     -0.0212
      125        4     -5.2565      2.4668     97.0334      1.0186     -0.0183
      126        4     -7.0563     -4.3104     75.1795      1.0169     -0.0166
      127        4     -6.9896     -5.3488     58.8184      1.0116     -0.0115
      128        4     -5.9070     -4.5164     72.3804      1.0037     -0.0037
      129        4     -3.8929     22.9152    126.2995      1.0230     -0.0225
      130        4     -2.9614     46.6859    149.3821      1.0391     -0.0376
      131        4     -3.8929     22.9153    126.2995      1.0230     -0.0225
      132        4     -5.9070     -4.5163     72.3804      1.0037     -0.0037
      133        4     -5.9070     -4.3231     67.8319      1.0031     -0.0031
      134        4     -7.0563     -4.3104     75.1794      1.0169     -0.0166
      135        4     -5.2565      2.4667     97.0334      1.0186     -0.0183
      136        4     -3.8929     20.7322    119.0796      1.0217     -0.0212
      137        4     -2.6593     64.6450    141.8284      1.0372     -0.0358
      138        4     -3.9563     26.1989    129.2433      1.0236     -0.0231
      139        4     -3.8929     20.7322    119.0796      1.0217     -0.0212
      140        4     -5.2565      2.4668     97.0334      1.0186     -0.0183
      141        4     -7.0563     -4.3104     75.1795      1.0169     -0.0166
      142        4     -5.9070     -4.3230     67.8318      1.0031     -0.0031
      143        4     -3.9563     26.1989    129.2434      1.0236     -0.0231
      144        4     -2.6593     64.6450    141.8282      1.0372     -0.0358
      145        4     -2.0907     83.2840    127.0391      1.0197     -0.0193
      146        4     -2.6593     64.6450    141.8283      1.0372     -0.0358
      147        4     -4.5555     13.0257    108.0532      1.0142     -0.0140
      148        4     -5.9070     -4.5164     72.3804      1.0037     -0.0037
      149        4     -5.2110      3.9760     94.1602      1.0178     -0.0175
      150        4     -2.6027     69.0909    143.4038      1.0363     -0.0351
      151        4     -2.6593     60.2020    132.8395      1.0341     -0.0330
      152        4     -3.8929     22.9152    126.2995      1.0230     -0.0225
      153        4     -5.2565      3.1390    101.6238      1.0192     -0.0188
      154        4     -7.0563     -4.3104     75.1794      1.0169     -0.0166
      155        4     -5.9070     -5.3880     68.7752      1.0030     -0.0030
      156        4     -3.9563     23.3954    121.5817      1.0218     -0.0213
      157        4     -4.5555     11.7317    101.5471      1.0134     -0.0133
      158        4     -5.2565      2.4667     97.0333      1.0186     -0.0183
      159        4     -4.5555     13.0257    108.0532      1.0142     -0.0140
      160        4     -5.2565      2.4668     97.0334      1.0186     -0.0183
      161        4     -4.5555     11.7318    101.5470      1.0134     -0.0133
      162        4     -5.2565      2.1980     94.6120      1.0177     -0.0174
      163        4     -5.9070     -5.3882     68.7752      1.0030     -0.0030
      164        4     -7.0563     -4.3104     75.1795      1.0169     -0.0166
      165        4     -5.2565      3.1390    101.6238      1.0192     -0.0188
      166        4     -3.8929     22.9153    126.2995      1.0230     -0.0225
      167        4     -2.6593     60.2019    132.8397      1.0341     -0.0330
      168        4     -3.9563     23.3955    121.5817      1.0218     -0.0213
      169        4     -5.2110      3.9760     94.1602      1.0178     -0.0175
      170        4     -5.9070     -4.5163     72.3804      1.0037     -0.0037
      171        4     -4.5555     13.0257    108.0532      1.0142     -0.0140
      172        4     -2.6593     64.6450    141.8284      1.0372     -0.0358
      173        4     -2.0907     83.2841    127.0393      1.0197     -0.0193
      174        4     -2.6027     69.0908    143.4038      1.0363     -0.0351
      175        4     -2.6027     76.9311    152.4413      1.0382     -0.0368
      176        4     -3.9563     26.1989    129.2434      1.0236     -0.0231
      177        4     -5.2565      3.1390    101.6238      1.0192     -0.0188
      178        4     -3.9563     26.1989    129.2434      1.0236     -0.0231
      179        4     -2.6027     76.9310    152.4415      1.0382     -0.0368
      180        4     -0.9512    104.3058     75.2720      1.0036     -0.0036
      181        4     -0.4527    117.9912     72.5382      1.0041     -0.0040
      182        4     -0.9512    104.3059     75.2720      1.0036     -0.0036
      183        4     -2.6593     64.6450    141.8284      1.0372     -0.0358
      184        4     -3.8929     22.9152    126.2995      1.0230     -0.0225
      185        4     -2.6027     69.0909    143.4038      1.0363     -0.0351
      186        4     -1.5590     99.5027    100.5297      1.0054     -0.0054
      187        4     -0.9512     96.6860     75.4799      1.0048     -0.0048
      188        4     -2.6027     69.0909    143.4037      1.0363     -0.0351
      189        4     -3.9563     26.1989    129.2434      1.0236     -0.0231
      190        4     -5.2565      2.4667     97.0333      1.0186     -0.0183
      191        4     -3.9563     23.3954    121.5818      1.0218     -0.0213
      192        4     -2.6027     66.9214    142.5651      1.0357     -0.0344
      193        4     -2.6593     59.2211    137.9255      1.0366     -0.0353
      194        4     -3.9563     23.3954    121.5817      1.0218     -0.0213
      195        4     -5.9070     -4.5164     72.3804      1.0037     -0.0037
      196        4     -7.0563     -4.3104     75.1795      1.0169     -0.0166
      197        4     -5.2565      2.1980     94.6120      1.0177     -0.0174
      198        4     -3.8929     19.8730    124.9174      1.0238     -0.0232
      199        4     -3.8929     19.8730    124.9174      1.0238     -0.0232
      200        4     -5.2565      2.1979     94.6120      1.0177     -0.0174
      201        4     -7.0563     -4.3104     75.1794      1.0169     -0.0166
      202        4     -5.9070     -4.5164     72.3805      1.0037     -0.0037
      203        4     -3.9563     23.3955    121.5818      1.0218     -0.0213
      204        4     -2.6593     59.2212    137.9253      1.0366     -0.0353
      205        4     -2.6027     66.9216    142.5649      1.0357     -0.0344
      206        4     -3.9563     23.3955    121.5818      1.0218     -0.0213
      207        4     -5.2565      2.4668     97.0334      1.0186     -0.0183
      208        4     -3.9563     26.1989    129.2434      1.0236     -0.0231
      209        4     -2.6027     69.0908    143.4038      1.0363     -0.0351
      210        4     -0.9512     96.6860     75.4798      1.0048     -0.0048
      211        4     -1.5590     99.5027    100.5297      1.0054     -0.0054
      212        4     -2.6027     69.0908    143.4039      1.0363     -0.0351
      213        4     -3.8929     22.9153    126.2995      1.0230     -0.0225
      214        4     -2.6593     64.6450    141.8282      1.0372     -0.0358
      215        4     -0.9512    104.3059     75.2720      1.0036     -0.0036
      216        4     -0.4527    117.9913     72.5382      1.0041     -0.0040
  
     ===================================================================
     Memory usage:  VmHWM =        50Mb
                   VmPeak =       280Mb
     ===================================================================

 
     Unfolding on the coarse grid
     elphon_wrap  :     34.05s CPU     35.02s WALL (       1 calls)
 
     INITIALIZATION: 
 
     init_vloc    :      0.01s CPU      0.01s WALL (      29 calls)
     init_us_1    :      0.45s CPU      0.45s WALL (      29 calls)
 
 
     Electron-Phonon interpolation
     ephwann      :      3.48s CPU      3.63s WALL (       1 calls)
     ep-interp    :      3.22s CPU      3.31s WALL (     216 calls)
 
     Ham: step 1  :      0.00s CPU      0.00s WALL (       1 calls)
     Ham: step 2  :      0.00s CPU      0.00s WALL (       1 calls)
     ep: step 1   :      0.01s CPU      0.01s WALL (     162 calls)
     ep: step 2   :      0.04s CPU      0.06s WALL (     162 calls)
     DynW2B       :      0.00s CPU      0.01s WALL (     216 calls)
     HamW2B       :      0.96s CPU      1.00s WALL (   93744 calls)
     ephW2Bp      :      0.28s CPU      0.28s WALL (     216 calls)
 
 
     Total program execution
     EPW          :    40.55s CPU        41.72s WALL

                                                                                          
 Please consider citing:                                                                  
 S. Ponce, E. R. Margine, C. Verdi and F. Giustino, Comput. Phys. Commun. 209, 116 (2016) 
                                                                                          
 In addition, if you used anisotropic Eliashberg superconductivity please cite:           
              E. R. Margine and F. Giustino, Phys. Rev. B 87, 024505 (2013)               
              if you used transport properties (scattering rates, mobility) please cite:  
              S. Ponce, E. R. Margine and F. Giustino, Phys. Rev. B 97, 121201 (2018)     
