                                                                                      
                                       ``:oss/                                        
                           `.+s+.     .+ys--yh+     `./ss+.                           
                          -sh//yy+`   +yy   +yy    -+h+-oyy                           
                          -yh- .oyy/.-sh.   .syo-.:sy-  /yh                           
                 `.-.`    `yh+   -oyyyo.     `/syys:    oys      `.`                  
               `/+ssys+-` `sh+      `                   oys`   .:osyo`                
               -yh- ./syyooyo`                          .sys+/oyo--yh/                
               `yy+    .-:-.                             `-/+/:`  -sh-                
                /yh.                                              oys                 
          ``..---hho---------`   .---------..`      `.-----.`    -hd+---.             
       `./osmNMMMMMMMMMMMMMMMs. +NNMMMMMMMMNNmh+.   yNMMMMMNm-  oNMMMMMNmo++:`        
       +sy--/sdMMMhyyyyyyyNMMh- .oyNMMmyyyyyhNMMm+` -yMMMdyyo:` .oyyNMMNhs+syy`       
       -yy/   /MMM+.`-+/``mMMy-   `mMMh:`````.dMMN:` `MMMy-`-dhhy```mMMy:``+hs        
        -yy+` /MMMo:-mMM+`-oo/.    mMMh:     `dMMN/`  dMMm:`dMMMMy..MMMo-.+yo`        
         .sys`/MMMMNNMMMs-         mMMmyooooymMMNo:   oMMM/sMMMMMM++MMN//oh:          
          `sh+/MMMhyyMMMs- `-`     mMMMMMMMMMNmy+-`   -MMMhMMMsmMMmdMMd/yy+           
    `-/+++oyy-/MMM+.`/hh/.`mNm:`   mMMd+/////:-.`      NMMMMMd/:NMMMMMy:/yyo/:.`      
   +os+//:-..-oMMMo:--:::-/MMMo. .-mMMd+---`           hMMMMN+. oMMMMMo. `-+osyso:`   
   syo     `mNMMMMMNNNNNNNNMMMo.oNNMMMMMNNNN:`         +MMMMs:`  dMMMN/`     ``:syo   
   /yh`     :syyyyyyyyyyyyyyyy+.`+syyyyyyyyo:`         .oyys:`   .oyys:`        +yh   
   -yh-        ````````````````    `````````              ``        ``          oys   
   -+h/------------------------::::::::://////++++++++++++++++++++++///////::::/yd:   
   shdddddddddddddddddddddddddddddhhhhhhhhyyyyyssssssssssssssssyyyyyyyhhhhhhhddddh`   
                                                                                      
  S. Ponce, E. R. Margine, C. Verdi, and F. Giustino,                                 
                                                Comput. Phys. Commun. 209, 116 (2016) 
                                                                                      

     Program EPW v.4.2.0 (svn rev. 13680) starts on  3Aug2017 at 15:49:59 

     This program is part of the open-source Quantum ESPRESSO suite
     for quantum simulation of materials; please cite
         "P. Giannozzi et al., J. Phys.:Condens. Matter 21 395502 (2009);
          URL http://www.quantum-espresso.org", 
     in publications or presentations arising from this work. More details at
     http://www.quantum-espresso.org/quote

     Parallel version (MPI), running on     1 processors
                      
     ------------------------------------------------------------------------ 
                   RESTART - RESTART - RESTART - RESTART                         
     Restart is done without reading PWSCF save file.                  
     Be aware that some consistency checks are therefore not done.                  
     ------------------------------------------------------------------------ 
                      

     --                                                                         

     bravais-lattice index     =            0
     lattice parameter (a_0)   =       0.0000  a.u.
     unit-cell volume          =       0.0000 (a.u.)^3
     number of atoms/cell      =            0
     number of atomic types    =            0
     kinetic-energy cut-off    =       0.0000  Ry
     charge density cut-off    =       0.0000  Ry
     convergence threshold     =      0.0E+00
     beta                      =       0.0000
     number of iterations used =            0
     Exchange-correlation      = not set (-1 -1 -1 -1-1-1)


     celldm(1)=    0.00000  celldm(2)=    0.00000  celldm(3)=    0.00000
     celldm(4)=    0.00000  celldm(5)=    0.00000  celldm(6)=    0.00000

     crystal axes: (cart. coord. in units of a_0)
               a(1) = (  0.0000  0.0000  0.0000 )  
               a(2) = (  0.0000  0.0000  0.0000 )  
               a(3) = (  0.0000  0.0000  0.0000 )  

     reciprocal axes: (cart. coord. in units 2 pi/a_0)
               b(1) = (  0.0000  0.0000  0.0000 )  
               b(2) = (  0.0000  0.0000  0.0000 )  
               b(3) = (  0.0000  0.0000  0.0000 )  


     Atoms inside the unit cell: 

   Cartesian axes

     site n.  atom      mass           positions (a_0 units)


     No symmetry!

     G cutoff =    0.0000  (      0 G-vectors)     FFT grid: (  0,  0,  0)
     number of k points=    0
                       cart. coord. in units 2pi/a_0
     EPW          :     0.00s CPU         0.00s WALL

     EPW          :     0.00s CPU         0.00s WALL

     No wavefunction gauge setting applied

     -------------------------------------------------------------------
     Using ./diam.ukk from disk
     -------------------------------------------------------------------


     Using kmap and kgmap from disk

     Do not need to read .epb files; read .fmt files


              band disentanglement is used:  nbndsub =    4

     Reading Hamiltonian, Dynamical matrix and EP vertex in Wann rep from file


     Finished reading Wann rep data from file

     ===================================================================
     Memory usage:  VmHWM =        18Mb
                   VmPeak =       230Mb
     ===================================================================
     
      Using q-mesh file: path.dat
     Size of q point mesh for interpolation:        201
      Using k-mesh file: path.dat
     Size of k point mesh for interpolation:        402
     Max number of k points per pool:              402

     Fermi energy coarse grid =  14.009584 eV

     ===================================================================

     Fermi energy corresponds to the coarse k-mesh

     ===================================================================

              ibndmin =     1  ebndmin =    -0.069
              ibndmax =     4  ebndmax =     1.021


     Number of ep-matrix elements per pool :        19296 ~=  150.75 Kb (@ 8 bytes/ DP)

     ===================================================================
     Electron (Imaginary) Self-Energy in the Migdal Approximation
     ===================================================================


     Fermi Surface thickness =  15.000000 eV

     Golden Rule strictly enforced with T =   0.025852 eV
     Gaussian Broadening:   1.000000 eV, ngauss=   1
 
     Progression iq (fine) =         50/       201
     Progression iq (fine) =        100/       201
     Progression iq (fine) =        150/       201
     Progression iq (fine) =        200/       201
     Average over degenerate eigenstates is performed
     WARNING: only the eigenstates within the Fermi window are meaningful

     ik =       1 coord.:    0.5000000   0.0000000   0.0000000
     -------------------------------------------------------------------
     E(   1 )=  -2.0314 eV   Re[Sigma]=     -93.005579 meV Im[Sigma]=     488.155855 meV     Z=       1.264601 lam=      -0.209237
     E(   2 )=  -0.4915 eV   Re[Sigma]=      -6.745606 meV Im[Sigma]=     441.662928 meV     Z=       1.213183 lam=      -0.175722
     E(   3 )=  10.6149 eV   Re[Sigma]=     -63.556046 meV Im[Sigma]=     440.807824 meV     Z=       1.183992 lam=      -0.155399
     E(   4 )=  10.6149 eV   Re[Sigma]=     -63.556046 meV Im[Sigma]=     440.807824 meV     Z=       1.183992 lam=      -0.155399
     -------------------------------------------------------------------


     ik =       2 coord.:    0.4950000   0.0000000   0.0000000
     -------------------------------------------------------------------
     E(   1 )=  -2.0404 eV   Re[Sigma]=    -104.307510 meV Im[Sigma]=     502.515307 meV     Z=       1.276216 lam=      -0.216433
     E(   2 )=  -0.4805 eV   Re[Sigma]=      -2.775743 meV Im[Sigma]=     446.162746 meV     Z=       1.220996 lam=      -0.180997
     E(   3 )=  10.6158 eV   Re[Sigma]=     -59.634028 meV Im[Sigma]=     450.588145 meV     Z=       1.196723 lam=      -0.164385
     E(   4 )=  10.6158 eV   Re[Sigma]=     -59.634028 meV Im[Sigma]=     450.588145 meV     Z=       1.196723 lam=      -0.164385
     -------------------------------------------------------------------


     ik =       3 coord.:    0.4900000   0.0000000   0.0000000
     -------------------------------------------------------------------
     E(   1 )=  -2.0668 eV   Re[Sigma]=    -121.832698 meV Im[Sigma]=     494.078275 meV     Z=       1.265722 lam=      -0.209937
     E(   2 )=  -0.4481 eV   Re[Sigma]=       6.488647 meV Im[Sigma]=     427.751845 meV     Z=       1.207977 lam=      -0.172170
     E(   3 )=  10.6184 eV   Re[Sigma]=     -55.199237 meV Im[Sigma]=     460.464203 meV     Z=       1.210185 lam=      -0.173680
     E(   4 )=  10.6184 eV   Re[Sigma]=     -55.199237 meV Im[Sigma]=     460.464203 meV     Z=       1.210185 lam=      -0.173680
     -------------------------------------------------------------------


     ik =       4 coord.:    0.4850000   0.0000000   0.0000000
     -------------------------------------------------------------------
     E(   1 )=  -2.1086 eV   Re[Sigma]=    -142.730770 meV Im[Sigma]=     466.241583 meV     Z=       1.238563 lam=      -0.192613
     E(   2 )=  -0.3962 eV   Re[Sigma]=      18.471561 meV Im[Sigma]=     391.136765 meV     Z=       1.179381 lam=      -0.152098
     E(   3 )=  10.6228 eV   Re[Sigma]=     -50.217844 meV Im[Sigma]=     470.304668 meV     Z=       1.224095 lam=      -0.183070
     E(   4 )=  10.6228 eV   Re[Sigma]=     -50.217844 meV Im[Sigma]=     470.304668 meV     Z=       1.224095 lam=      -0.183070
     -------------------------------------------------------------------


     ik =       5 coord.:    0.4800000   0.0000000   0.0000000
     -------------------------------------------------------------------
     E(   1 )=  -2.1632 eV   Re[Sigma]=    -163.870900 meV Im[Sigma]=     425.891304 meV     Z=       1.203940 lam=      -0.169393
     E(   2 )=  -0.3275 eV   Re[Sigma]=      30.264656 meV Im[Sigma]=     344.108801 meV     Z=       1.143917 lam=      -0.125811
     E(   3 )=  10.6289 eV   Re[Sigma]=     -44.668580 meV Im[Sigma]=     479.965797 meV     Z=       1.238041 lam=      -0.192272
     E(   4 )=  10.6289 eV   Re[Sigma]=     -44.668580 meV Im[Sigma]=     479.965797 meV     Z=       1.238041 lam=      -0.192272
     -------------------------------------------------------------------


     ik =       6 coord.:    0.4750000   0.0000000   0.0000000
     -------------------------------------------------------------------
     E(   1 )=  -2.2281 eV   Re[Sigma]=    -183.048086 meV Im[Sigma]=     380.409427 meV     Z=       1.169326 lam=      -0.144806
     E(   2 )=  -0.2445 eV   Re[Sigma]=      39.813355 meV Im[Sigma]=     294.559606 meV     Z=       1.108901 lam=      -0.098207
     E(   3 )=  10.6367 eV   Re[Sigma]=     -38.548414 meV Im[Sigma]=     489.295126 meV     Z=       1.251480 lam=      -0.200946
     E(   4 )=  10.6367 eV   Re[Sigma]=     -38.548414 meV Im[Sigma]=     489.295126 meV     Z=       1.251480 lam=      -0.200946
     -------------------------------------------------------------------


     ik =       7 coord.:    0.4700000   0.0000000   0.0000000
     -------------------------------------------------------------------
     E(   1 )=  -2.3010 eV   Re[Sigma]=    -199.253988 meV Im[Sigma]=     335.248590 meV     Z=       1.138175 lam=      -0.121401
     E(   2 )=  -0.1496 eV   Re[Sigma]=      46.246327 meV Im[Sigma]=     248.258558 meV     Z=       1.078381 lam=      -0.072684
     E(   3 )=  10.6463 eV   Re[Sigma]=     -31.878065 meV Im[Sigma]=     498.136495 meV     Z=       1.263760 lam=      -0.208710
     E(   4 )=  10.6463 eV   Re[Sigma]=     -31.878065 meV Im[Sigma]=     498.136495 meV     Z=       1.263760 lam=      -0.208710
     -------------------------------------------------------------------


     ik =       8 coord.:    0.4650000   0.0000000   0.0000000
     -------------------------------------------------------------------
     E(   1 )=  -2.3799 eV   Re[Sigma]=    -212.275657 meV Im[Sigma]=     293.112993 meV     Z=       1.110509 lam=      -0.099512
     E(   2 )=  -0.0448 eV   Re[Sigma]=      49.595009 meV Im[Sigma]=     208.160092 meV     Z=       1.053688 lam=      -0.050953
     E(   3 )=  10.6576 eV   Re[Sigma]=     -24.706088 meV Im[Sigma]=     506.336360 meV     Z=       1.274178 lam=      -0.215180
     E(   4 )=  10.6576 eV   Re[Sigma]=     -24.706088 meV Im[Sigma]=     506.336360 meV     Z=       1.274178 lam=      -0.215180
     -------------------------------------------------------------------


     ik =       9 coord.:    0.4600000   0.0000000   0.0000000
     -------------------------------------------------------------------
     E(   1 )=  -2.4632 eV   Re[Sigma]=    -222.150108 meV Im[Sigma]=     254.565987 meV     Z=       1.084789 lam=      -0.078162
     E(   2 )=   0.0686 eV   Re[Sigma]=      50.351880 meV Im[Sigma]=     174.953216 meV     Z=       1.034630 lam=      -0.033471
     E(   3 )=  10.6706 eV   Re[Sigma]=     -17.109841 meV Im[Sigma]=     513.751202 meV     Z=       1.282084 lam=      -0.220020
     E(   4 )=  10.6706 eV   Re[Sigma]=     -17.109841 meV Im[Sigma]=     513.751202 meV     Z=       1.282084 lam=      -0.220020
     -------------------------------------------------------------------


     ik =      10 coord.:    0.4550000   0.0000000   0.0000000
     -------------------------------------------------------------------
     E(   1 )=  -2.5499 eV   Re[Sigma]=    -228.867870 meV Im[Sigma]=     219.202657 meV     Z=       1.060074 lam=      -0.056670
     E(   2 )=   0.1891 eV   Re[Sigma]=      49.173453 meV Im[Sigma]=     148.063484 meV     Z=       1.020388 lam=      -0.019981
     E(   3 )=  10.6853 eV   Re[Sigma]=      -9.193621 meV Im[Sigma]=     520.255631 meV     Z=       1.287004 lam=      -0.223002
     E(   4 )=  10.6853 eV   Re[Sigma]=      -9.193621 meV Im[Sigma]=     520.255631 meV     Z=       1.287004 lam=      -0.223002
     -------------------------------------------------------------------


     ik =      11 coord.:    0.4500000   0.0000000   0.0000000
     -------------------------------------------------------------------
     E(   1 )=  -2.6391 eV   Re[Sigma]=    -232.437693 meV Im[Sigma]=     186.605368 meV     Z=       1.037201 lam=      -0.035867
     E(   2 )=   0.3160 eV   Re[Sigma]=      46.690187 meV Im[Sigma]=     126.458966 meV     Z=       1.009970 lam=      -0.009872
     E(   3 )=  10.7016 eV   Re[Sigma]=      -1.081339 meV Im[Sigma]=     525.750669 meV     Z=       1.288746 lam=      -0.224052
     E(   4 )=  10.7016 eV   Re[Sigma]=      -1.081339 meV Im[Sigma]=     525.750669 meV     Z=       1.288746 lam=      -0.224052
     -------------------------------------------------------------------


     ik =      12 coord.:    0.4450000   0.0000000   0.0000000
     -------------------------------------------------------------------
     E(   1 )=  -2.7300 eV   Re[Sigma]=    -233.102714 meV Im[Sigma]=     156.766615 meV     Z=       1.017955 lam=      -0.017638
     E(   2 )=   0.4486 eV   Re[Sigma]=      43.398618 meV Im[Sigma]=     109.109775 meV     Z=       1.002442 lam=      -0.002436
     E(   3 )=  10.7196 eV   Re[Sigma]=       7.095945 meV Im[Sigma]=     530.171471 meV     Z=       1.287463 lam=      -0.223278
     E(   4 )=  10.7196 eV   Re[Sigma]=       7.095945 meV Im[Sigma]=     530.171471 meV     Z=       1.287463 lam=      -0.223278
     -------------------------------------------------------------------


     ik =      13 coord.:    0.4400000   0.0000000   0.0000000
     -------------------------------------------------------------------
     E(   1 )=  -2.8223 eV   Re[Sigma]=    -231.407856 meV Im[Sigma]=     130.053282 meV     Z=       1.003417 lam=      -0.003405
     E(   2 )=   0.5863 eV   Re[Sigma]=      39.664350 meV Im[Sigma]=      95.148740 meV     Z=       0.997027 lam=       0.002982
     E(   3 )=  10.7392 eV   Re[Sigma]=      15.213202 meV Im[Sigma]=     533.493710 meV     Z=       1.283630 lam=      -0.220959
     E(   4 )=  10.7392 eV   Re[Sigma]=      15.213202 meV Im[Sigma]=     533.493710 meV     Z=       1.283630 lam=      -0.220959
     -------------------------------------------------------------------


     ik =      14 coord.:    0.4350000   0.0000000   0.0000000
     -------------------------------------------------------------------
     E(   1 )=  -2.9156 eV   Re[Sigma]=    -228.042786 meV Im[Sigma]=     106.943938 meV     Z=       0.993409 lam=       0.006635
     E(   2 )=   0.7288 eV   Re[Sigma]=      35.739233 meV Im[Sigma]=      83.885967 meV     Z=       0.993129 lam=       0.006918
     E(   3 )=  10.7605 eV   Re[Sigma]=      23.164338 meV Im[Sigma]=     535.737786 meV     Z=       1.277947 lam=      -0.217495
     E(   4 )=  10.7605 eV   Re[Sigma]=      23.164338 meV Im[Sigma]=     535.737786 meV     Z=       1.277947 lam=      -0.217495
     -------------------------------------------------------------------


     ik =      15 coord.:    0.4300000   0.0000000   0.0000000
     -------------------------------------------------------------------
     E(   1 )=  -3.0096 eV   Re[Sigma]=    -223.647189 meV Im[Sigma]=      87.757970 meV     Z=       0.987014 lam=       0.013156
     E(   2 )=   0.8756 eV   Re[Sigma]=      31.787371 meV Im[Sigma]=      74.783064 meV     Z=       0.990323 lam=       0.009772
     E(   3 )=  10.7833 eV   Re[Sigma]=      30.871849 meV Im[Sigma]=     536.970142 meV     Z=       1.271199 lam=      -0.213341
     E(   4 )=  10.7833 eV   Re[Sigma]=      30.871849 meV Im[Sigma]=     536.970142 meV     Z=       1.271199 lam=      -0.213341
     -------------------------------------------------------------------


     ik =      16 coord.:    0.4250000   0.0000000   0.0000000
     -------------------------------------------------------------------
     E(   1 )=  -3.1040 eV   Re[Sigma]=    -218.711666 meV Im[Sigma]=      72.502177 meV     Z=       0.983208 lam=       0.017079
     E(   2 )=   1.0267 eV   Re[Sigma]=      27.911979 meV Im[Sigma]=      67.429047 meV     Z=       0.988316 lam=       0.011822
     E(   3 )=  10.8076 eV   Re[Sigma]=      38.291505 meV Im[Sigma]=     537.301167 meV     Z=       1.264123 lam=      -0.208938
     E(   4 )=  10.8076 eV   Re[Sigma]=      38.291505 meV Im[Sigma]=     537.301167 meV     Z=       1.264123 lam=      -0.208938
     -------------------------------------------------------------------


     ik =      17 coord.:    0.4200000   0.0000000   0.0000000
     -------------------------------------------------------------------
     E(   1 )=  -3.1987 eV   Re[Sigma]=    -213.568318 meV Im[Sigma]=      60.862619 meV     Z=       0.981150 lam=       0.019212
     E(   2 )=   1.1816 eV   Re[Sigma]=      24.179970 meV Im[Sigma]=      61.533306 meV     Z=       0.986916 lam=       0.013258
     E(   3 )=  10.8335 eV   Re[Sigma]=      45.411970 meV Im[Sigma]=     536.879507 meV     Z=       1.257310 lam=      -0.204651
     E(   4 )=  10.8335 eV   Re[Sigma]=      45.411970 meV Im[Sigma]=     536.879507 meV     Z=       1.257310 lam=      -0.204651
     -------------------------------------------------------------------


     ik =      18 coord.:    0.4150000   0.0000000   0.0000000
     -------------------------------------------------------------------
     E(   1 )=  -3.2937 eV   Re[Sigma]=    -208.420956 meV Im[Sigma]=      52.301241 meV     Z=       0.980245 lam=       0.020153
     E(   2 )=   1.3404 eV   Re[Sigma]=      20.643924 meV Im[Sigma]=      56.905611 meV     Z=       0.985987 lam=       0.014212
     E(   3 )=  10.8608 eV   Re[Sigma]=      52.250360 meV Im[Sigma]=     535.882971 meV     Z=       1.251163 lam=      -0.200744
     E(   4 )=  10.8608 eV   Re[Sigma]=      52.250360 meV Im[Sigma]=     535.882971 meV     Z=       1.251163 lam=      -0.200744
     -------------------------------------------------------------------


     ik =      19 coord.:    0.4100000   0.0000000   0.0000000
     -------------------------------------------------------------------
     E(   1 )=  -3.3887 eV   Re[Sigma]=    -203.391893 meV Im[Sigma]=      46.190466 meV     Z=       0.980088 lam=       0.020316
     E(   2 )=   1.5028 eV   Re[Sigma]=      17.338846 meV Im[Sigma]=      53.297096 meV     Z=       0.985406 lam=       0.014810
     E(   3 )=  10.8897 eV   Re[Sigma]=      58.844637 meV Im[Sigma]=     534.506666 meV     Z=       1.245897 lam=      -0.197366
     E(   4 )=  10.8897 eV   Re[Sigma]=      58.844637 meV Im[Sigma]=     534.506666 meV     Z=       1.245897 lam=      -0.197366
     -------------------------------------------------------------------


     ik =      20 coord.:    0.4050000   0.0000000   0.0000000
     -------------------------------------------------------------------
     E(   1 )=  -3.4838 eV   Re[Sigma]=    -198.562448 meV Im[Sigma]=      41.929171 meV     Z=       0.980409 lam=       0.019982
     E(   2 )=   1.6686 eV   Re[Sigma]=      14.259936 meV Im[Sigma]=      50.415005 meV     Z=       0.985084 lam=       0.015142
     E(   3 )=  10.9199 eV   Re[Sigma]=      65.244985 meV Im[Sigma]=     532.949360 meV     Z=       1.241566 lam=      -0.194566
     E(   4 )=  10.9199 eV   Re[Sigma]=      65.244985 meV Im[Sigma]=     532.949360 meV     Z=       1.241566 lam=      -0.194566
     -------------------------------------------------------------------


     ik =      21 coord.:    0.4000000   0.0000000   0.0000000
     -------------------------------------------------------------------
     E(   1 )=  -3.5788 eV   Re[Sigma]=    -194.001307 meV Im[Sigma]=      39.012121 meV     Z=       0.981019 lam=       0.019348
     E(   2 )=   1.8378 eV   Re[Sigma]=      11.346469 meV Im[Sigma]=      48.021861 meV     Z=       0.984986 lam=       0.015243
     E(   3 )=  10.9515 eV   Re[Sigma]=      71.505684 meV Im[Sigma]=     531.399337 meV     Z=       1.238106 lam=      -0.192314
     E(   4 )=  10.9515 eV   Re[Sigma]=      71.505684 meV Im[Sigma]=     531.399337 meV     Z=       1.238106 lam=      -0.192314
     -------------------------------------------------------------------


     ik =      22 coord.:    0.3950000   0.0000000   0.0000000
     -------------------------------------------------------------------
     E(   1 )=  -3.6737 eV   Re[Sigma]=    -189.711523 meV Im[Sigma]=      37.052455 meV     Z=       0.981807 lam=       0.018531
     E(   2 )=   2.0103 eV   Re[Sigma]=       8.609097 meV Im[Sigma]=      46.183951 meV     Z=       0.985113 lam=       0.015112
     E(   3 )=  10.9845 eV   Re[Sigma]=      77.684098 meV Im[Sigma]=     530.021104 meV     Z=       1.235371 lam=      -0.190526
     E(   4 )=  10.9845 eV   Re[Sigma]=      77.684098 meV Im[Sigma]=     530.021104 meV     Z=       1.235371 lam=      -0.190526
     -------------------------------------------------------------------


     ik =      23 coord.:    0.3900000   0.0000000   0.0000000
     -------------------------------------------------------------------
     E(   1 )=  -3.7685 eV   Re[Sigma]=    -185.672369 meV Im[Sigma]=      35.772275 meV     Z=       0.982704 lam=       0.017600
     E(   2 )=   2.1858 eV   Re[Sigma]=       6.091560 meV Im[Sigma]=      44.895649 meV     Z=       0.985448 lam=       0.014767
     E(   3 )=  11.0188 eV   Re[Sigma]=      83.834412 meV Im[Sigma]=     528.944231 meV     Z=       1.233176 lam=      -0.189085
     E(   4 )=  11.0188 eV   Re[Sigma]=      83.834412 meV Im[Sigma]=     528.944231 meV     Z=       1.233176 lam=      -0.189085
     -------------------------------------------------------------------


     ik =      24 coord.:    0.3850000   0.0000000   0.0000000
     -------------------------------------------------------------------
     E(   1 )=  -3.8631 eV   Re[Sigma]=    -181.870346 meV Im[Sigma]=      34.978926 meV     Z=       0.983662 lam=       0.016609
     E(   2 )=   2.3644 eV   Re[Sigma]=       3.817527 meV Im[Sigma]=      43.991222 meV     Z=       0.985964 lam=       0.014236
     E(   3 )=  11.0543 eV   Re[Sigma]=      90.002666 meV Im[Sigma]=     528.255347 meV     Z=       1.231323 lam=      -0.187865
     E(   4 )=  11.0543 eV   Re[Sigma]=      90.002666 meV Im[Sigma]=     528.255347 meV     Z=       1.231323 lam=      -0.187865
     -------------------------------------------------------------------


     ik =      25 coord.:    0.3800000   0.0000000   0.0000000
     -------------------------------------------------------------------
     E(   1 )=  -3.9575 eV   Re[Sigma]=    -178.291866 meV Im[Sigma]=      34.539947 meV     Z=       0.984647 lam=       0.015593
     E(   2 )=   2.5459 eV   Re[Sigma]=       1.802939 meV Im[Sigma]=      43.217435 meV     Z=       0.986609 lam=       0.013573
     E(   3 )=  11.0911 eV   Re[Sigma]=      96.225871 meV Im[Sigma]=     527.993950 meV     Z=       1.229623 lam=      -0.186743
     E(   4 )=  11.0911 eV   Re[Sigma]=      96.225871 meV Im[Sigma]=     527.993950 meV     Z=       1.229623 lam=      -0.186743
     -------------------------------------------------------------------


     ik =      26 coord.:    0.3750000   0.0000000   0.0000000
     -------------------------------------------------------------------
     E(   1 )=  -4.0516 eV   Re[Sigma]=    -174.922049 meV Im[Sigma]=      34.362921 meV     Z=       0.985635 lam=       0.014575
     E(   2 )=   2.7301 eV   Re[Sigma]=       0.048684 meV Im[Sigma]=      42.278360 meV     Z=       0.987244 lam=       0.012921
     E(   3 )=  11.1291 eV   Re[Sigma]=     102.531650 meV Im[Sigma]=     528.152310 meV     Z=       1.227913 lam=      -0.185610
     E(   4 )=  11.1291 eV   Re[Sigma]=     102.531650 meV Im[Sigma]=     528.152310 meV     Z=       1.227913 lam=      -0.185610
     -------------------------------------------------------------------


     ik =      27 coord.:    0.3700000   0.0000000   0.0000000
     -------------------------------------------------------------------
     E(   1 )=  -4.1455 eV   Re[Sigma]=    -171.745571 meV Im[Sigma]=      34.381555 meV     Z=       0.986610 lam=       0.013571
     E(   2 )=   2.9170 eV   Re[Sigma]=      -1.491088 meV Im[Sigma]=      40.919831 meV     Z=       0.987550 lam=       0.012607
     E(   3 )=  11.1682 eV   Re[Sigma]=     108.938329 meV Im[Sigma]=     528.679415 meV     Z=       1.226059 lam=      -0.184379
     E(   4 )=  11.1682 eV   Re[Sigma]=     108.938329 meV Im[Sigma]=     528.679415 meV     Z=       1.226059 lam=      -0.184379
     -------------------------------------------------------------------


     ik =      28 coord.:    0.3650000   0.0000000   0.0000000
     -------------------------------------------------------------------
     E(   1 )=  -4.2390 eV   Re[Sigma]=    -168.747412 meV Im[Sigma]=      34.546909 meV     Z=       0.987564 lam=       0.012593
     E(   2 )=   3.1065 eV   Re[Sigma]=      -2.956119 meV Im[Sigma]=      39.050783 meV     Z=       0.987054 lam=       0.013116
     E(   3 )=  11.2084 eV   Re[Sigma]=     115.455315 meV Im[Sigma]=     529.488634 meV     Z=       1.223962 lam=      -0.182981
     E(   4 )=  11.2084 eV   Re[Sigma]=     115.455315 meV Im[Sigma]=     529.488634 meV     Z=       1.223962 lam=      -0.182981
     -------------------------------------------------------------------


     ik =      29 coord.:    0.3600000   0.0000000   0.0000000
     -------------------------------------------------------------------
     E(   1 )=  -4.3322 eV   Re[Sigma]=    -165.913322 meV Im[Sigma]=      34.822109 meV     Z=       0.988489 lam=       0.011645
     E(   2 )=   3.2984 eV   Re[Sigma]=      -4.582719 meV Im[Sigma]=      36.842761 meV     Z=       0.985541 lam=       0.014671
     E(   3 )=  11.2497 eV   Re[Sigma]=     122.083475 meV Im[Sigma]=     530.468522 meV     Z=       1.221554 lam=      -0.181370
     E(   4 )=  11.2497 eV   Re[Sigma]=     122.083475 meV Im[Sigma]=     530.468522 meV     Z=       1.221554 lam=      -0.181370
     -------------------------------------------------------------------


     ik =      30 coord.:    0.3550000   0.0000000   0.0000000
     -------------------------------------------------------------------
     E(   1 )=  -4.4250 eV   Re[Sigma]=    -163.230091 meV Im[Sigma]=      35.179125 meV     Z=       0.989384 lam=       0.010730
     E(   2 )=   3.4925 eV   Re[Sigma]=      -6.576870 meV Im[Sigma]=      34.727994 meV     Z=       0.983589 lam=       0.016685
     E(   3 )=  11.2920 eV   Re[Sigma]=     128.815327 meV Im[Sigma]=     531.495757 meV     Z=       1.218793 lam=      -0.179516
     E(   4 )=  11.2920 eV   Re[Sigma]=     128.815327 meV Im[Sigma]=     531.495757 meV     Z=       1.218793 lam=      -0.179516
     -------------------------------------------------------------------


     ik =      31 coord.:    0.3500000   0.0000000   0.0000000
     -------------------------------------------------------------------
     E(   1 )=  -4.5173 eV   Re[Sigma]=    -160.685677 meV Im[Sigma]=      35.596687 meV     Z=       0.990247 lam=       0.009849
     E(   2 )=   3.6889 eV   Re[Sigma]=      -8.936701 meV Im[Sigma]=      33.256344 meV     Z=       0.982249 lam=       0.018072
     E(   3 )=  11.3352 eV   Re[Sigma]=     135.635300 meV Im[Sigma]=     532.448580 meV     Z=       1.215666 lam=      -0.177406
     E(   4 )=  11.3352 eV   Re[Sigma]=     135.635300 meV Im[Sigma]=     532.448580 meV     Z=       1.215666 lam=      -0.177406
     -------------------------------------------------------------------


     ik =      32 coord.:    0.3450000   0.0000000   0.0000000
     -------------------------------------------------------------------
     E(   1 )=  -4.6092 eV   Re[Sigma]=    -158.269256 meV Im[Sigma]=      36.058804 meV     Z=       0.991078 lam=       0.009002
     E(   2 )=   3.8873 eV   Re[Sigma]=     -11.432674 meV Im[Sigma]=      32.862404 meV     Z=       0.982188 lam=       0.018135
     E(   3 )=  11.3793 eV   Re[Sigma]=     142.521292 meV Im[Sigma]=     533.218304 meV     Z=       1.212196 lam=      -0.175051
     E(   4 )=  11.3793 eV   Re[Sigma]=     142.521292 meV Im[Sigma]=     533.218304 meV     Z=       1.212196 lam=      -0.175051
     -------------------------------------------------------------------


     ik =      33 coord.:    0.3400000   0.0000000   0.0000000
     -------------------------------------------------------------------
     E(   1 )=  -4.7005 eV   Re[Sigma]=    -155.971208 meV Im[Sigma]=      36.553596 meV     Z=       0.991880 lam=       0.008187
     E(   2 )=   4.0875 eV   Re[Sigma]=     -13.746057 meV Im[Sigma]=      33.670387 meV     Z=       0.983381 lam=       0.016900
     E(   3 )=  11.4243 eV   Re[Sigma]=     149.449524 meV Im[Sigma]=     533.716182 meV     Z=       1.208467 lam=      -0.172505
     E(   4 )=  11.4243 eV   Re[Sigma]=     149.449524 meV Im[Sigma]=     533.716182 meV     Z=       1.208467 lam=      -0.172505
     -------------------------------------------------------------------


     ik =      34 coord.:    0.3350000   0.0000000   0.0000000
     -------------------------------------------------------------------
     E(   1 )=  -4.7914 eV   Re[Sigma]=    -153.783043 meV Im[Sigma]=      37.072276 meV     Z=       0.992655 lam=       0.007399
     E(   2 )=   4.2895 eV   Re[Sigma]=     -15.635367 meV Im[Sigma]=      35.454110 meV     Z=       0.985196 lam=       0.015027
     E(   3 )=  11.4701 eV   Re[Sigma]=     156.402587 meV Im[Sigma]=     533.873589 meV     Z=       1.204619 lam=      -0.169862
     E(   4 )=  11.4701 eV   Re[Sigma]=     156.402587 meV Im[Sigma]=     533.873589 meV     Z=       1.204619 lam=      -0.169862
     -------------------------------------------------------------------


     ik =      35 coord.:    0.3300000   0.0000000   0.0000000
     -------------------------------------------------------------------
     E(   1 )=  -4.8816 eV   Re[Sigma]=    -151.696764 meV Im[Sigma]=      37.608171 meV     Z=       0.993407 lam=       0.006637
     E(   2 )=   4.4931 eV   Re[Sigma]=     -17.046236 meV Im[Sigma]=      37.769047 meV     Z=       0.986800 lam=       0.013377
     E(   3 )=  11.5167 eV   Re[Sigma]=     163.375206 meV Im[Sigma]=     533.635550 meV     Z=       1.200798 lam=      -0.167221
     E(   4 )=  11.5167 eV   Re[Sigma]=     163.375206 meV Im[Sigma]=     533.635550 meV     Z=       1.200798 lam=      -0.167221
     -------------------------------------------------------------------


     ik =      36 coord.:    0.3250000   0.0000000   0.0000000
     -------------------------------------------------------------------
     E(   1 )=  -4.9711 eV   Re[Sigma]=    -149.695546 meV Im[Sigma]=      38.155686 meV     Z=       0.994142 lam=       0.005893
     E(   2 )=   4.6981 eV   Re[Sigma]=     -18.067634 meV Im[Sigma]=      40.163069 meV     Z=       0.987796 lam=       0.012355
     E(   3 )=  11.5640 eV   Re[Sigma]=     170.374353 meV Im[Sigma]=     532.950270 meV     Z=       1.197095 lam=      -0.164644
     E(   4 )=  11.5640 eV   Re[Sigma]=     170.374353 meV Im[Sigma]=     532.950270 meV     Z=       1.197095 lam=      -0.164644
     -------------------------------------------------------------------


     ik =      37 coord.:    0.3200000   0.0000000   0.0000000
     -------------------------------------------------------------------
     E(   1 )=  -5.0600 eV   Re[Sigma]=    -147.743267 meV Im[Sigma]=      38.709146 meV     Z=       0.994874 lam=       0.005152
     E(   2 )=   4.9045 eV   Re[Sigma]=     -18.790936 meV Im[Sigma]=      42.339942 meV     Z=       0.988289 lam=       0.011849
     E(   3 )=  11.6119 eV   Re[Sigma]=     177.415796 meV Im[Sigma]=     531.759084 meV     Z=       1.193541 lam=      -0.162157
     E(   4 )=  11.6119 eV   Re[Sigma]=     177.415796 meV Im[Sigma]=     531.759084 meV     Z=       1.193541 lam=      -0.162157
     -------------------------------------------------------------------


     ik =      38 coord.:    0.3150000   0.0000000   0.0000000
     -------------------------------------------------------------------
     E(   1 )=  -5.1482 eV   Re[Sigma]=    -145.897884 meV Im[Sigma]=      39.261426 meV     Z=       0.995585 lam=       0.004435
     E(   2 )=   5.1119 eV   Re[Sigma]=     -19.370275 meV Im[Sigma]=      44.207250 meV     Z=       0.988549 lam=       0.011583
     E(   3 )=  11.6604 eV   Re[Sigma]=     184.486256 meV Im[Sigma]=     529.990773 meV     Z=       1.190142 lam=      -0.159764
     E(   4 )=  11.6604 eV   Re[Sigma]=     184.486256 meV Im[Sigma]=     529.990773 meV     Z=       1.190142 lam=      -0.159764
     -------------------------------------------------------------------


     ik =      39 coord.:    0.3100000   0.0000000   0.0000000
     -------------------------------------------------------------------
     E(   1 )=  -5.2355 eV   Re[Sigma]=    -144.156264 meV Im[Sigma]=      39.802398 meV     Z=       0.996275 lam=       0.003739
     E(   2 )=   5.3204 eV   Re[Sigma]=     -19.833820 meV Im[Sigma]=      45.825546 meV     Z=       0.988733 lam=       0.011395
     E(   3 )=  11.7095 eV   Re[Sigma]=     191.583113 meV Im[Sigma]=     527.561676 meV     Z=       1.186887 lam=      -0.157460
     E(   4 )=  11.7095 eV   Re[Sigma]=     191.583113 meV Im[Sigma]=     527.561676 meV     Z=       1.186887 lam=      -0.157460
     -------------------------------------------------------------------


     ik =      40 coord.:    0.3050000   0.0000000   0.0000000
     -------------------------------------------------------------------
     E(   1 )=  -5.3221 eV   Re[Sigma]=    -142.499733 meV Im[Sigma]=      40.317240 meV     Z=       0.996953 lam=       0.003057
     E(   2 )=   5.5296 eV   Re[Sigma]=     -20.166461 meV Im[Sigma]=      47.321257 meV     Z=       0.988906 lam=       0.011218
     E(   3 )=  11.7590 eV   Re[Sigma]=     198.704294 meV Im[Sigma]=     524.380164 meV     Z=       1.183750 lam=      -0.155227
     E(   4 )=  11.7590 eV   Re[Sigma]=     198.704294 meV Im[Sigma]=     524.380164 meV     Z=       1.183750 lam=      -0.155227
     -------------------------------------------------------------------


     ik =      41 coord.:    0.3000000   0.0000000   0.0000000
     -------------------------------------------------------------------
     E(   1 )=  -5.4077 eV   Re[Sigma]=    -140.920434 meV Im[Sigma]=      40.784859 meV     Z=       0.997617 lam=       0.002389
     E(   2 )=   5.7395 eV   Re[Sigma]=     -20.355872 meV Im[Sigma]=      48.817366 meV     Z=       0.989094 lam=       0.011026
     E(   3 )=  11.8091 eV   Re[Sigma]=     205.839967 meV Im[Sigma]=     520.352797 meV     Z=       1.180685 lam=      -0.153034
     E(   4 )=  11.8091 eV   Re[Sigma]=     205.839967 meV Im[Sigma]=     520.352797 meV     Z=       1.180685 lam=      -0.153034
     -------------------------------------------------------------------


     ik =      42 coord.:    0.2950000   0.0000000   0.0000000
     -------------------------------------------------------------------
     E(   1 )=  -5.4925 eV   Re[Sigma]=    -139.412802 meV Im[Sigma]=      41.176795 meV     Z=       0.998265 lam=       0.001738
     E(   2 )=   5.9499 eV   Re[Sigma]=     -20.388285 meV Im[Sigma]=      50.401848 meV     Z=       0.989310 lam=       0.010806
     E(   3 )=  11.8595 eV   Re[Sigma]=     212.973702 meV Im[Sigma]=     515.390275 meV     Z=       1.177620 lam=      -0.150830
     E(   4 )=  11.8595 eV   Re[Sigma]=     212.973702 meV Im[Sigma]=     515.390275 meV     Z=       1.177620 lam=      -0.150830
     -------------------------------------------------------------------


     ik =      43 coord.:    0.2900000   0.0000000   0.0000000
     -------------------------------------------------------------------
     E(   1 )=  -5.5762 eV   Re[Sigma]=    -137.971563 meV Im[Sigma]=      41.457134 meV     Z=       0.998889 lam=       0.001113
     E(   2 )=   6.1606 eV   Re[Sigma]=     -20.248126 meV Im[Sigma]=      52.126772 meV     Z=       0.989560 lam=       0.010550
     E(   3 )=  11.9102 eV   Re[Sigma]=     220.081160 meV Im[Sigma]=     509.413023 meV     Z=       1.174451 lam=      -0.148538
     E(   4 )=  11.9102 eV   Re[Sigma]=     220.081160 meV Im[Sigma]=     509.413023 meV     Z=       1.174451 lam=      -0.148538
     -------------------------------------------------------------------


     ik =      44 coord.:    0.2850000   0.0000000   0.0000000
     -------------------------------------------------------------------
     E(   1 )=  -5.6589 eV   Re[Sigma]=    -136.589951 meV Im[Sigma]=      41.584003 meV     Z=       0.999474 lam=       0.000526
     E(   2 )=   6.3714 eV   Re[Sigma]=     -19.916846 meV Im[Sigma]=      54.021998 meV     Z=       0.989856 lam=       0.010248
     E(   3 )=  11.9612 eV   Re[Sigma]=     227.128047 meV Im[Sigma]=     502.357421 meV     Z=       1.171035 lam=      -0.146055
     E(   4 )=  11.9612 eV   Re[Sigma]=     227.128047 meV Im[Sigma]=     502.357421 meV     Z=       1.171035 lam=      -0.146055
     -------------------------------------------------------------------


     ik =      45 coord.:    0.2800000   0.0000000   0.0000000
     -------------------------------------------------------------------
     E(   1 )=  -5.7406 eV   Re[Sigma]=    -135.258876 meV Im[Sigma]=      41.513055 meV     Z=       0.999999 lam=       0.000001
     E(   2 )=   6.5822 eV   Re[Sigma]=     -19.372357 meV Im[Sigma]=      56.109898 meV     Z=       0.990210 lam=       0.009887
     E(   3 )=  12.0125 eV   Re[Sigma]=     234.067314 meV Im[Sigma]=     494.183514 meV     Z=       1.167194 lam=      -0.143244
     E(   4 )=  12.0125 eV   Re[Sigma]=     234.067314 meV Im[Sigma]=     494.183514 meV     Z=       1.167194 lam=      -0.143244
     -------------------------------------------------------------------


     ik =      46 coord.:    0.2750000   0.0000000   0.0000000
     -------------------------------------------------------------------
     E(   1 )=  -5.8211 eV   Re[Sigma]=    -133.965918 meV Im[Sigma]=      41.203023 meV     Z=       1.000431 lam=      -0.000431
     E(   2 )=   6.7928 eV   Re[Sigma]=     -18.588659 meV Im[Sigma]=      58.410092 meV     Z=       0.990634 lam=       0.009454
     E(   3 )=  12.0639 eV   Re[Sigma]=     240.836464 meV Im[Sigma]=     484.884121 meV     Z=       1.162718 lam=      -0.139946
     E(   4 )=  12.0639 eV   Re[Sigma]=     240.836464 meV Im[Sigma]=     484.884121 meV     Z=       1.162718 lam=      -0.139946
     -------------------------------------------------------------------


     ik =      47 coord.:    0.2700000   0.0000000   0.0000000
     -------------------------------------------------------------------
     E(   1 )=  -5.9005 eV   Re[Sigma]=    -132.693203 meV Im[Sigma]=      40.622801 meV     Z=       1.000727 lam=      -0.000726
     E(   2 )=   7.0031 eV   Re[Sigma]=     -17.537652 meV Im[Sigma]=      60.916306 meV     Z=       0.991137 lam=       0.008942
     E(   3 )=  12.1154 eV   Re[Sigma]=     247.355766 meV Im[Sigma]=     474.494215 meV     Z=       1.157390 lam=      -0.135987
     E(   4 )=  12.1154 eV   Re[Sigma]=     247.355766 meV Im[Sigma]=     474.494215 meV     Z=       1.157390 lam=      -0.135987
     -------------------------------------------------------------------


     ik =      48 coord.:    0.2650000   0.0000000   0.0000000
     -------------------------------------------------------------------
     E(   1 )=  -5.9786 eV   Re[Sigma]=    -131.415623 meV Im[Sigma]=      39.758900 meV     Z=       1.000833 lam=      -0.000832
     E(   2 )=   7.2127 eV   Re[Sigma]=     -16.198342 meV Im[Sigma]=      63.513514 meV     Z=       0.991689 lam=       0.008381
     E(   3 )=  12.1670 eV   Re[Sigma]=     253.528461 meV Im[Sigma]=     463.098876 meV     Z=       1.151017 lam=      -0.131203
     E(   4 )=  12.1670 eV   Re[Sigma]=     253.528461 meV Im[Sigma]=     463.098876 meV     Z=       1.151017 lam=      -0.131203
     -------------------------------------------------------------------


     ik =      49 coord.:    0.2600000   0.0000000   0.0000000
     -------------------------------------------------------------------
     E(   1 )=  -6.0555 eV   Re[Sigma]=    -130.102866 meV Im[Sigma]=      38.621609 meV     Z=       1.000696 lam=      -0.000696
     E(   2 )=   7.4217 eV   Re[Sigma]=     -14.586042 meV Im[Sigma]=      65.844927 meV     Z=       0.992177 lam=       0.007885
     E(   3 )=  12.2187 eV   Re[Sigma]=     259.243286 meV Im[Sigma]=     450.838018 meV     Z=       1.143489 lam=      -0.125484
     E(   4 )=  12.2187 eV   Re[Sigma]=     259.243286 meV Im[Sigma]=     450.838018 meV     Z=       1.143489 lam=      -0.125484
     -------------------------------------------------------------------


     ik =      50 coord.:    0.2550000   0.0000000   0.0000000
     -------------------------------------------------------------------
     E(   1 )=  -6.1311 eV   Re[Sigma]=    -128.715777 meV Im[Sigma]=      37.248114 meV     Z=       1.000287 lam=      -0.000287
     E(   2 )=   7.6298 eV   Re[Sigma]=     -12.805766 meV Im[Sigma]=      67.322628 meV     Z=       0.992368 lam=       0.007690
     E(   3 )=  12.2703 eV   Re[Sigma]=     264.383970 meV Im[Sigma]=     437.906445 meV     Z=       1.134833 lam=      -0.118813
     E(   4 )=  12.2703 eV   Re[Sigma]=     264.383970 meV Im[Sigma]=     437.906445 meV     Z=       1.134833 lam=      -0.118813
     -------------------------------------------------------------------


     ik =      51 coord.:    0.2500000   0.0000000   0.0000000
     -------------------------------------------------------------------
     E(   1 )=  -6.2054 eV   Re[Sigma]=    -127.218094 meV Im[Sigma]=      35.701248 meV     Z=       0.999624 lam=       0.000376
     E(   2 )=   7.8368 eV   Re[Sigma]=     -11.116104 meV Im[Sigma]=      67.544239 meV     Z=       0.992039 lam=       0.008025
     E(   3 )=  12.3218 eV   Re[Sigma]=     268.840407 meV Im[Sigma]=     424.548410 meV     Z=       1.125266 lam=      -0.111321
     E(   4 )=  12.3218 eV   Re[Sigma]=     268.840407 meV Im[Sigma]=     424.548410 meV     Z=       1.125266 lam=      -0.111321
     -------------------------------------------------------------------


     ik =      52 coord.:    0.2450000   0.0000000   0.0000000
     -------------------------------------------------------------------
     E(   1 )=  -6.2783 eV   Re[Sigma]=    -125.580808 meV Im[Sigma]=      34.063529 meV     Z=       0.998795 lam=       0.001207
     E(   2 )=   8.0426 eV   Re[Sigma]=      -9.837893 meV Im[Sigma]=      66.811864 meV     Z=       0.991445 lam=       0.008629
     E(   3 )=  12.3732 eV   Re[Sigma]=     272.526215 meV Im[Sigma]=     411.046676 meV     Z=       1.115196 lam=      -0.103297
     E(   4 )=  12.3732 eV   Re[Sigma]=     272.526215 meV Im[Sigma]=     411.046676 meV     Z=       1.115196 lam=      -0.103297
     -------------------------------------------------------------------


     ik =      53 coord.:    0.2400000   0.0000000   0.0000000
     -------------------------------------------------------------------
     E(   1 )=  -6.3498 eV   Re[Sigma]=    -123.791003 meV Im[Sigma]=      32.427339 meV     Z=       0.997941 lam=       0.002063
     E(   2 )=   8.2470 eV   Re[Sigma]=      -8.986028 meV Im[Sigma]=      65.942248 meV     Z=       0.991072 lam=       0.009008
     E(   3 )=  12.4244 eV   Re[Sigma]=     275.394792 meV Im[Sigma]=     397.706954 meV     Z=       1.105171 lam=      -0.095163
     E(   4 )=  12.4244 eV   Re[Sigma]=     275.394792 meV Im[Sigma]=     397.706954 meV     Z=       1.105171 lam=      -0.095163
     -------------------------------------------------------------------


     ik =      54 coord.:    0.2350000   0.0000000   0.0000000
     -------------------------------------------------------------------
     E(   1 )=  -6.4198 eV   Re[Sigma]=    -121.861337 meV Im[Sigma]=      30.883168 meV     Z=       0.997208 lam=       0.002800
     E(   2 )=   8.4498 eV   Re[Sigma]=      -8.408766 meV Im[Sigma]=      65.482833 meV     Z=       0.990178 lam=       0.009919
     E(   3 )=  12.4753 eV   Re[Sigma]=     277.447905 meV Im[Sigma]=     384.839334 meV     Z=       1.095768 lam=      -0.087398
     E(   4 )=  12.4753 eV   Re[Sigma]=     277.447905 meV Im[Sigma]=     384.839334 meV     Z=       1.095768 lam=      -0.087398
     -------------------------------------------------------------------


     ik =      55 coord.:    0.2300000   0.0000000   0.0000000
     -------------------------------------------------------------------
     E(   1 )=  -6.4884 eV   Re[Sigma]=    -119.820361 meV Im[Sigma]=      29.508399 meV     Z=       0.996691 lam=       0.003320
     E(   2 )=   8.6509 eV   Re[Sigma]=      -8.173452 meV Im[Sigma]=      65.456082 meV     Z=       0.988500 lam=       0.011634
     E(   3 )=  12.5260 eV   Re[Sigma]=     278.737709 meV Im[Sigma]=     372.738855 meV     Z=       1.087479 lam=      -0.080442
     E(   4 )=  12.5260 eV   Re[Sigma]=     278.737709 meV Im[Sigma]=     372.738855 meV     Z=       1.087479 lam=      -0.080442
     -------------------------------------------------------------------


     ik =      56 coord.:    0.2250000   0.0000000   0.0000000
     -------------------------------------------------------------------
     E(   1 )=  -6.5554 eV   Re[Sigma]=    -117.704186 meV Im[Sigma]=      28.358915 meV     Z=       0.996419 lam=       0.003594
     E(   2 )=   8.8501 eV   Re[Sigma]=      -8.343970 meV Im[Sigma]=      65.843143 meV     Z=       0.986819 lam=       0.013358
     E(   3 )=  12.5763 eV   Re[Sigma]=     279.357128 meV Im[Sigma]=     361.667489 meV     Z=       1.080627 lam=      -0.074611
     E(   4 )=  12.5763 eV   Re[Sigma]=     279.357128 meV Im[Sigma]=     361.667489 meV     Z=       1.080627 lam=      -0.074611
     -------------------------------------------------------------------


     ik =      57 coord.:    0.2200000   0.0000000   0.0000000
     -------------------------------------------------------------------
     E(   1 )=  -6.6209 eV   Re[Sigma]=    -115.551653 meV Im[Sigma]=      27.465005 meV     Z=       0.996366 lam=       0.003648
     E(   2 )=   9.0473 eV   Re[Sigma]=      -8.821106 meV Im[Sigma]=      66.944113 meV     Z=       0.985760 lam=       0.014446
     E(   3 )=  12.6263 eV   Re[Sigma]=     279.422919 meV Im[Sigma]=     351.839583 meV     Z=       1.075341 lam=      -0.070062
     E(   4 )=  12.6263 eV   Re[Sigma]=     279.422919 meV Im[Sigma]=     351.839583 meV     Z=       1.075341 lam=      -0.070062
     -------------------------------------------------------------------


     ik =      58 coord.:    0.2150000   0.0000000   0.0000000
     -------------------------------------------------------------------
     E(   1 )=  -6.6849 eV   Re[Sigma]=    -113.392980 meV Im[Sigma]=      26.831838 meV     Z=       0.996483 lam=       0.003530
     E(   2 )=   9.2422 eV   Re[Sigma]=      -9.431569 meV Im[Sigma]=      69.256416 meV     Z=       0.985420 lam=       0.014796
     E(   3 )=  12.6758 eV   Re[Sigma]=     279.060596 meV Im[Sigma]=     343.412227 meV     Z=       1.071590 lam=      -0.066808
     E(   4 )=  12.6758 eV   Re[Sigma]=     279.060596 meV Im[Sigma]=     343.412227 meV     Z=       1.071590 lam=      -0.066808
     -------------------------------------------------------------------


     ik =      59 coord.:    0.2100000   0.0000000   0.0000000
     -------------------------------------------------------------------
     E(   1 )=  -6.7473 eV   Re[Sigma]=    -111.249076 meV Im[Sigma]=      26.443701 meV     Z=       0.996720 lam=       0.003291
     E(   2 )=   9.4348 eV   Re[Sigma]=     -10.022119 meV Im[Sigma]=      73.229001 meV     Z=       0.985703 lam=       0.014504
     E(   3 )=  12.7249 eV   Re[Sigma]=     278.390758 meV Im[Sigma]=     336.481253 meV     Z=       1.069237 lam=      -0.064754
     E(   4 )=  12.7249 eV   Re[Sigma]=     278.390758 meV Im[Sigma]=     336.481253 meV     Z=       1.069237 lam=      -0.064754
     -------------------------------------------------------------------


     ik =      60 coord.:    0.2050000   0.0000000   0.0000000
     -------------------------------------------------------------------
     E(   1 )=  -6.8081 eV   Re[Sigma]=    -109.137171 meV Im[Sigma]=      26.270472 meV     Z=       0.997034 lam=       0.002974
     E(   2 )=   9.6249 eV   Re[Sigma]=     -10.470558 meV Im[Sigma]=      79.160332 meV     Z=       0.986605 lam=       0.013577
     E(   3 )=  12.7734 eV   Re[Sigma]=     277.519152 meV Im[Sigma]=     331.082756 meV     Z=       1.068089 lam=      -0.063749
     E(   4 )=  12.7734 eV   Re[Sigma]=     277.519152 meV Im[Sigma]=     331.082756 meV     Z=       1.068089 lam=      -0.063749
     -------------------------------------------------------------------


     ik =      61 coord.:    0.2000000   0.0000000   0.0000000
     -------------------------------------------------------------------
     E(   1 )=  -6.8672 eV   Re[Sigma]=    -107.066983 meV Im[Sigma]=      26.274625 meV     Z=       0.997396 lam=       0.002611
     E(   2 )=   9.8124 eV   Re[Sigma]=     -10.653281 meV Im[Sigma]=      87.199915 meV     Z=       0.988284 lam=       0.011855
     E(   3 )=  12.8214 eV   Re[Sigma]=     276.534341 meV Im[Sigma]=     327.199346 meV     Z=       1.067946 lam=      -0.063623
     E(   4 )=  12.8214 eV   Re[Sigma]=     276.534341 meV Im[Sigma]=     327.199346 meV     Z=       1.067946 lam=      -0.063623
     -------------------------------------------------------------------


     ik =      62 coord.:    0.1950000   0.0000000   0.0000000
     -------------------------------------------------------------------
     E(   1 )=  -6.9248 eV   Re[Sigma]=    -105.042430 meV Im[Sigma]=      26.417376 meV     Z=       0.997782 lam=       0.002223
     E(   2 )=   9.9970 eV   Re[Sigma]=     -10.412607 meV Im[Sigma]=      97.346560 meV     Z=       0.991049 lam=       0.009032
     E(   3 )=  12.8687 eV   Re[Sigma]=     275.507373 meV Im[Sigma]=     324.769862 meV     Z=       1.068620 lam=      -0.064214
     E(   4 )=  12.8687 eV   Re[Sigma]=     275.507373 meV Im[Sigma]=     324.769862 meV     Z=       1.068620 lam=      -0.064214
     -------------------------------------------------------------------


     ik =      63 coord.:    0.1900000   0.0000000   0.0000000
     -------------------------------------------------------------------
     E(   1 )=  -6.9806 eV   Re[Sigma]=    -103.068402 meV Im[Sigma]=      26.663159 meV     Z=       0.998180 lam=       0.001824
     E(   2 )=  10.1787 eV   Re[Sigma]=      -9.539299 meV Im[Sigma]=     109.415728 meV     Z=       0.995281 lam=       0.004742
     E(   3 )=  12.9154 eV   Re[Sigma]=     274.491811 meV Im[Sigma]=     323.701079 meV     Z=       1.069951 lam=      -0.065378
     E(   4 )=  12.9154 eV   Re[Sigma]=     274.491811 meV Im[Sigma]=     323.701079 meV     Z=       1.069951 lam=      -0.065378
     -------------------------------------------------------------------


     ik =      64 coord.:    0.1850000   0.0000000   0.0000000
     -------------------------------------------------------------------
     E(   1 )=  -7.0349 eV   Re[Sigma]=    -101.146644 meV Im[Sigma]=      26.982197 meV     Z=       0.998579 lam=       0.001423
     E(   2 )=  10.3573 eV   Re[Sigma]=      -7.781000 meV Im[Sigma]=     123.013706 meV     Z=       1.001230 lam=      -0.001228
     E(   3 )=  12.9614 eV   Re[Sigma]=     273.527584 meV Im[Sigma]=     323.879969 meV     Z=       1.071810 lam=      -0.066999
     E(   4 )=  12.9614 eV   Re[Sigma]=     273.527584 meV Im[Sigma]=     323.879969 meV     Z=       1.071810 lam=      -0.066999
     -------------------------------------------------------------------


     ik =      65 coord.:    0.1800000   0.0000000   0.0000000
     -------------------------------------------------------------------
     E(   1 )=  -7.0875 eV   Re[Sigma]=     -99.275487 meV Im[Sigma]=      27.351409 meV     Z=       0.998976 lam=       0.001025
     E(   2 )=  10.5327 eV   Re[Sigma]=      -4.901277 meV Im[Sigma]=     137.564146 meV     Z=       1.008690 lam=      -0.008616
     E(   3 )=  13.0067 eV   Re[Sigma]=     272.643940 meV Im[Sigma]=     325.185293 meV     Z=       1.074094 lam=      -0.068983
     E(   4 )=  13.0067 eV   Re[Sigma]=     272.643940 meV Im[Sigma]=     325.185293 meV     Z=       1.074094 lam=      -0.068983
     -------------------------------------------------------------------


     ik =      66 coord.:    0.1750000   0.0000000   0.0000000
     -------------------------------------------------------------------
     E(   1 )=  -7.1384 eV   Re[Sigma]=     -97.456332 meV Im[Sigma]=      27.754132 meV     Z=       0.999367 lam=       0.000634
     E(   2 )=  10.7047 eV   Re[Sigma]=      -0.784876 meV Im[Sigma]=     152.402418 meV     Z=       1.016793 lam=      -0.016516
     E(   3 )=  13.0512 eV   Re[Sigma]=     271.860118 meV Im[Sigma]=     327.497590 meV     Z=       1.076727 lam=      -0.071259
     E(   4 )=  13.0512 eV   Re[Sigma]=     271.860118 meV Im[Sigma]=     327.497590 meV     Z=       1.076727 lam=      -0.071259
     -------------------------------------------------------------------


     ik =      67 coord.:    0.1700000   0.0000000   0.0000000
     -------------------------------------------------------------------
     E(   1 )=  -7.1876 eV   Re[Sigma]=     -95.689057 meV Im[Sigma]=      28.179171 meV     Z=       0.999750 lam=       0.000250
     E(   2 )=  10.8733 eV   Re[Sigma]=       4.479688 meV Im[Sigma]=     166.915343 meV     Z=       1.024290 lam=      -0.023714
     E(   3 )=  13.0949 eV   Re[Sigma]=     271.188672 meV Im[Sigma]=     330.706936 meV     Z=       1.079651 lam=      -0.073775
     E(   4 )=  13.0949 eV   Re[Sigma]=     271.188672 meV Im[Sigma]=     330.706936 meV     Z=       1.079651 lam=      -0.073775
     -------------------------------------------------------------------


     ik =      68 coord.:    0.1650000   0.0000000   0.0000000
     -------------------------------------------------------------------
     E(   1 )=  -7.2352 eV   Re[Sigma]=     -93.970681 meV Im[Sigma]=      28.619606 meV     Z=       1.000126 lam=      -0.000126
     E(   2 )=  11.0383 eV   Re[Sigma]=      10.615145 meV Im[Sigma]=     180.679052 meV     Z=       1.030238 lam=      -0.029351
     E(   3 )=  13.1377 eV   Re[Sigma]=     270.637609 meV Im[Sigma]=     334.718123 meV     Z=       1.082828 lam=      -0.076492
     E(   4 )=  13.1377 eV   Re[Sigma]=     270.637609 meV Im[Sigma]=     334.718123 meV     Z=       1.082828 lam=      -0.076492
     -------------------------------------------------------------------


     ik =      69 coord.:    0.1600000   0.0000000   0.0000000
     -------------------------------------------------------------------
     E(   1 )=  -7.2811 eV   Re[Sigma]=     -92.302033 meV Im[Sigma]=      29.071645 meV     Z=       1.000495 lam=      -0.000495
     E(   2 )=  11.1995 eV   Re[Sigma]=      17.261210 meV Im[Sigma]=     193.545115 meV     Z=       1.034437 lam=      -0.033291
     E(   3 )=  13.1797 eV   Re[Sigma]=     270.209737 meV Im[Sigma]=     339.453175 meV     Z=       1.086229 lam=      -0.079384
     E(   4 )=  13.1797 eV   Re[Sigma]=     270.209737 meV Im[Sigma]=     339.453175 meV     Z=       1.086229 lam=      -0.079384
     -------------------------------------------------------------------


     ik =      70 coord.:    0.1550000   0.0000000   0.0000000
     -------------------------------------------------------------------
     E(   1 )=  -7.3253 eV   Re[Sigma]=     -90.682584 meV Im[Sigma]=      29.533661 meV     Z=       1.000858 lam=      -0.000857
     E(   2 )=  11.3569 eV   Re[Sigma]=      24.093172 meV Im[Sigma]=     205.644585 meV     Z=       1.037312 lam=      -0.035970
     E(   3 )=  13.2207 eV   Re[Sigma]=     269.905027 meV Im[Sigma]=     344.851350 meV     Z=       1.089840 lam=      -0.082434
     E(   4 )=  13.2207 eV   Re[Sigma]=     269.905027 meV Im[Sigma]=     344.851350 meV     Z=       1.089840 lam=      -0.082434
     -------------------------------------------------------------------


     ik =      71 coord.:    0.1500000   0.0000000   0.0000000
     -------------------------------------------------------------------
     E(   1 )=  -7.3679 eV   Re[Sigma]=     -89.109206 meV Im[Sigma]=      30.005459 meV     Z=       1.001215 lam=      -0.001214
     E(   2 )=  11.5104 eV   Re[Sigma]=      30.895717 meV Im[Sigma]=     217.311878 meV     Z=       1.039628 lam=      -0.038117
     E(   3 )=  13.2607 eV   Re[Sigma]=     269.721743 meV Im[Sigma]=     350.867042 meV     Z=       1.093651 lam=      -0.085632
     E(   4 )=  13.2607 eV   Re[Sigma]=     269.721743 meV Im[Sigma]=     350.867042 meV     Z=       1.093651 lam=      -0.085632
     -------------------------------------------------------------------


     ik =      72 coord.:    0.1450000   0.0000000   0.0000000
     -------------------------------------------------------------------
     E(   1 )=  -7.4089 eV   Re[Sigma]=     -87.583077 meV Im[Sigma]=      30.487762 meV     Z=       1.001569 lam=      -0.001567
     E(   2 )=  11.6598 eV   Re[Sigma]=      37.588513 meV Im[Sigma]=     228.960314 meV     Z=       1.042208 lam=      -0.040498
     E(   3 )=  13.2998 eV   Re[Sigma]=     269.654915 meV Im[Sigma]=     357.466206 meV     Z=       1.097664 lam=      -0.088974
     E(   4 )=  13.2998 eV   Re[Sigma]=     269.654915 meV Im[Sigma]=     357.466206 meV     Z=       1.097664 lam=      -0.088974
     -------------------------------------------------------------------


     ik =      73 coord.:    0.1400000   0.0000000   0.0000000
     -------------------------------------------------------------------
     E(   1 )=  -7.4482 eV   Re[Sigma]=     -86.103214 meV Im[Sigma]=      30.981864 meV     Z=       1.001920 lam=      -0.001917
     E(   2 )=  11.8051 eV   Re[Sigma]=      44.208408 meV Im[Sigma]=     240.954956 meV     Z=       1.045666 lam=      -0.043672
     E(   3 )=  13.3378 eV   Re[Sigma]=     269.698465 meV Im[Sigma]=     364.622140 meV     Z=       1.101884 lam=      -0.092463
     E(   4 )=  13.3378 eV   Re[Sigma]=     269.698465 meV Im[Sigma]=     364.622140 meV     Z=       1.101884 lam=      -0.092463
     -------------------------------------------------------------------


     ik =      74 coord.:    0.1350000   0.0000000   0.0000000
     -------------------------------------------------------------------
     E(   1 )=  -7.4859 eV   Re[Sigma]=     -84.666815 meV Im[Sigma]=      31.489401 meV     Z=       1.002272 lam=      -0.002267
     E(   2 )=  11.9461 eV   Re[Sigma]=      50.852768 meV Im[Sigma]=     253.521577 meV     Z=       1.050275 lam=      -0.047869
     E(   3 )=  13.3748 eV   Re[Sigma]=     269.845398 meV Im[Sigma]=     372.311454 meV     Z=       1.106322 lam=      -0.096104
     E(   4 )=  13.3748 eV   Re[Sigma]=     269.845398 meV Im[Sigma]=     372.311454 meV     Z=       1.106322 lam=      -0.096104
     -------------------------------------------------------------------


     ik =      75 coord.:    0.1300000   0.0000000   0.0000000
     -------------------------------------------------------------------
     E(   1 )=  -7.5220 eV   Re[Sigma]=     -83.275663 meV Im[Sigma]=      32.012200 meV     Z=       1.002624 lam=      -0.002617
     E(   2 )=  12.0828 eV   Re[Sigma]=      57.621710 meV Im[Sigma]=     266.710119 meV     Z=       1.056048 lam=      -0.053074
     E(   3 )=  13.4107 eV   Re[Sigma]=     270.086028 meV Im[Sigma]=     380.511014 meV     Z=       1.110994 lam=      -0.099905
     E(   4 )=  13.4107 eV   Re[Sigma]=     270.086028 meV Im[Sigma]=     380.511014 meV     Z=       1.110994 lam=      -0.099905
     -------------------------------------------------------------------


     ik =      76 coord.:    0.1250000   0.0000000   0.0000000
     -------------------------------------------------------------------
     E(   1 )=  -7.5565 eV   Re[Sigma]=     -81.927836 meV Im[Sigma]=      32.552188 meV     Z=       1.002979 lam=      -0.002970
     E(   2 )=  12.2150 eV   Re[Sigma]=      64.590954 meV Im[Sigma]=     280.408878 meV     Z=       1.062883 lam=      -0.059163
     E(   3 )=  13.4455 eV   Re[Sigma]=     270.410381 meV Im[Sigma]=     389.196311 meV     Z=       1.115922 lam=      -0.103880
     E(   4 )=  13.4455 eV   Re[Sigma]=     270.410381 meV Im[Sigma]=     389.196311 meV     Z=       1.115922 lam=      -0.103880
     -------------------------------------------------------------------


     ik =      77 coord.:    0.1200000   0.0000000   0.0000000
     -------------------------------------------------------------------
     E(   1 )=  -7.5895 eV   Re[Sigma]=     -80.621550 meV Im[Sigma]=      33.111316 meV     Z=       1.003339 lam=      -0.003328
     E(   2 )=  12.3427 eV   Re[Sigma]=      71.803711 meV Im[Sigma]=     294.391693 meV     Z=       1.070648 lam=      -0.065987
     E(   3 )=  13.4792 eV   Re[Sigma]=     270.807194 meV Im[Sigma]=     398.341394 meV     Z=       1.121130 lam=      -0.108043
     E(   4 )=  13.4792 eV   Re[Sigma]=     270.807194 meV Im[Sigma]=     398.341394 meV     Z=       1.121130 lam=      -0.108043
     -------------------------------------------------------------------


     ik =      78 coord.:    0.1150000   0.0000000   0.0000000
     -------------------------------------------------------------------
     E(   1 )=  -7.6208 eV   Re[Sigma]=     -79.358724 meV Im[Sigma]=      33.691510 meV     Z=       1.003704 lam=      -0.003691
     E(   2 )=  12.4658 eV   Re[Sigma]=      79.272364 meV Im[Sigma]=     308.377158 meV     Z=       1.079210 lam=      -0.073396
     E(   3 )=  13.5116 eV   Re[Sigma]=     271.262800 meV Im[Sigma]=     407.920100 meV     Z=       1.126647 lam=      -0.112410
     E(   4 )=  13.5116 eV   Re[Sigma]=     271.262800 meV Im[Sigma]=     407.920100 meV     Z=       1.126647 lam=      -0.112410
     -------------------------------------------------------------------


     ik =      79 coord.:    0.1100000   0.0000000   0.0000000
     -------------------------------------------------------------------
     E(   1 )=  -7.6507 eV   Re[Sigma]=     -78.136266 meV Im[Sigma]=      34.294635 meV     Z=       1.004078 lam=      -0.004062
     E(   2 )=  12.5842 eV   Re[Sigma]=      86.985740 meV Im[Sigma]=     322.083416 meV     Z=       1.088425 lam=      -0.081241
     E(   3 )=  13.5429 eV   Re[Sigma]=     271.763665 meV Im[Sigma]=     417.908049 meV     Z=       1.132502 lam=      -0.116999
     E(   4 )=  13.5429 eV   Re[Sigma]=     271.763665 meV Im[Sigma]=     417.908049 meV     Z=       1.132502 lam=      -0.116999
     -------------------------------------------------------------------


     ik =      80 coord.:    0.1050000   0.0000000   0.0000000
     -------------------------------------------------------------------
     E(   1 )=  -7.6790 eV   Re[Sigma]=     -76.954430 meV Im[Sigma]=      34.922455 meV     Z=       1.004461 lam=      -0.004441
     E(   2 )=  12.6978 eV   Re[Sigma]=      94.910674 meV Im[Sigma]=     335.269464 meV     Z=       1.098134 lam=      -0.089365
     E(   3 )=  13.5730 eV   Re[Sigma]=     272.294055 meV Im[Sigma]=     428.284756 meV     Z=       1.138728 lam=      -0.121827
     E(   4 )=  13.5730 eV   Re[Sigma]=     272.294055 meV Im[Sigma]=     428.284756 meV     Z=       1.138728 lam=      -0.121827
     -------------------------------------------------------------------


     ik =      81 coord.:    0.1000000   0.0000000   0.0000000
     -------------------------------------------------------------------
     E(   1 )=  -7.7058 eV   Re[Sigma]=     -75.813739 meV Im[Sigma]=      35.576611 meV     Z=       1.004854 lam=      -0.004831
     E(   2 )=  12.8066 eV   Re[Sigma]=     102.996046 meV Im[Sigma]=     347.760382 meV     Z=       1.108160 lam=      -0.097604
     E(   3 )=  13.6018 eV   Re[Sigma]=     272.836876 meV Im[Sigma]=     439.035255 meV     Z=       1.145358 lam=      -0.126911
     E(   4 )=  13.6018 eV   Re[Sigma]=     272.836876 meV Im[Sigma]=     439.035255 meV     Z=       1.145358 lam=      -0.126911
     -------------------------------------------------------------------


     ik =      82 coord.:    0.0950000   0.0000000   0.0000000
     -------------------------------------------------------------------
     E(   1 )=  -7.7311 eV   Re[Sigma]=     -74.711017 meV Im[Sigma]=      36.258598 meV     Z=       1.005260 lam=      -0.005233
     E(   2 )=  12.9105 eV   Re[Sigma]=     111.177006 meV Im[Sigma]=     359.457981 meV     Z=       1.118305 lam=      -0.105789
     E(   3 )=  13.6293 eV   Re[Sigma]=     273.374996 meV Im[Sigma]=     450.150844 meV     Z=       1.152424 lam=      -0.132264
     E(   4 )=  13.6293 eV   Re[Sigma]=     273.374996 meV Im[Sigma]=     450.150844 meV     Z=       1.152424 lam=      -0.132264
     -------------------------------------------------------------------


     ik =      83 coord.:    0.0900000   0.0000000   0.0000000
     -------------------------------------------------------------------
     E(   1 )=  -7.7550 eV   Re[Sigma]=     -73.648531 meV Im[Sigma]=      36.969750 meV     Z=       1.005679 lam=      -0.005647
     E(   2 )=  13.0095 eV   Re[Sigma]=     119.375591 meV Im[Sigma]=     370.340214 meV     Z=       1.128364 lam=      -0.113761
     E(   3 )=  13.6556 eV   Re[Sigma]=     273.888691 meV Im[Sigma]=     461.628787 meV     Z=       1.159955 lam=      -0.137897
     E(   4 )=  13.6556 eV   Re[Sigma]=     273.888691 meV Im[Sigma]=     461.628787 meV     Z=       1.159955 lam=      -0.137897
     -------------------------------------------------------------------


     ik =      84 coord.:    0.0850000   0.0000000   0.0000000
     -------------------------------------------------------------------
     E(   1 )=  -7.7774 eV   Re[Sigma]=     -72.623890 meV Im[Sigma]=      37.711229 meV     Z=       1.006113 lam=      -0.006076
     E(   2 )=  13.1034 eV   Re[Sigma]=     127.507420 meV Im[Sigma]=     380.453015 meV     Z=       1.138145 lam=      -0.121377
     E(   3 )=  13.6806 eV   Re[Sigma]=     274.358643 meV Im[Sigma]=     473.471095 meV     Z=       1.167978 lam=      -0.143819
     E(   4 )=  13.6806 eV   Re[Sigma]=     274.358643 meV Im[Sigma]=     473.471095 meV     Z=       1.167978 lam=      -0.143819
     -------------------------------------------------------------------


     ik =      85 coord.:    0.0800000   0.0000000   0.0000000
     -------------------------------------------------------------------
     E(   1 )=  -7.7985 eV   Re[Sigma]=     -71.636625 meV Im[Sigma]=      38.484020 meV     Z=       1.006562 lam=      -0.006519
     E(   2 )=  13.1922 eV   Re[Sigma]=     135.484075 meV Im[Sigma]=     389.897819 meV     Z=       1.147485 lam=      -0.128529
     E(   3 )=  13.7042 eV   Re[Sigma]=     274.764276 meV Im[Sigma]=     485.682656 meV     Z=       1.176518 lam=      -0.150034
     E(   4 )=  13.7042 eV   Re[Sigma]=     274.764276 meV Im[Sigma]=     485.682656 meV     Z=       1.176518 lam=      -0.150034
     -------------------------------------------------------------------


     ik =      86 coord.:    0.0750000   0.0000000   0.0000000
     -------------------------------------------------------------------
     E(   1 )=  -7.8181 eV   Re[Sigma]=     -70.687773 meV Im[Sigma]=      39.288931 meV     Z=       1.007028 lam=      -0.006979
     E(   2 )=  13.2760 eV   Re[Sigma]=     143.217400 meV Im[Sigma]=     398.817341 meV     Z=       1.156276 lam=      -0.135155
     E(   3 )=  13.7265 eV   Re[Sigma]=     275.083897 meV Im[Sigma]=     498.269080 meV     Z=       1.185597 lam=      -0.156543
     E(   4 )=  13.7265 eV   Re[Sigma]=     275.083897 meV Im[Sigma]=     498.269080 meV     Z=       1.185597 lam=      -0.156543
     -------------------------------------------------------------------


     ik =      87 coord.:    0.0700000   0.0000000   0.0000000
     -------------------------------------------------------------------
     E(   1 )=  -7.8363 eV   Re[Sigma]=     -69.774062 meV Im[Sigma]=      40.126600 meV     Z=       1.007511 lam=      -0.007455
     E(   2 )=  13.3545 eV   Re[Sigma]=     150.625098 meV Im[Sigma]=     407.381497 meV     Z=       1.164476 lam=      -0.141244
     E(   3 )=  13.7474 eV   Re[Sigma]=     275.296597 meV Im[Sigma]=     511.234629 meV     Z=       1.195237 lam=      -0.163346
     E(   4 )=  13.7474 eV   Re[Sigma]=     275.296597 meV Im[Sigma]=     511.234629 meV     Z=       1.195237 lam=      -0.163346
     -------------------------------------------------------------------


     ik =      88 coord.:    0.0650000   0.0000000   0.0000000
     -------------------------------------------------------------------
     E(   1 )=  -7.8532 eV   Re[Sigma]=     -68.898261 meV Im[Sigma]=      40.997504 meV     Z=       1.008012 lam=      -0.007949
     E(   2 )=  13.4278 eV   Re[Sigma]=     157.630683 meV Im[Sigma]=     415.774661 meV     Z=       1.172115 lam=      -0.146841
     E(   3 )=  13.7669 eV   Re[Sigma]=     275.379410 meV Im[Sigma]=     524.580499 meV     Z=       1.205458 lam=      -0.170440
     E(   4 )=  13.7669 eV   Re[Sigma]=     275.379410 meV Im[Sigma]=     524.580499 meV     Z=       1.205458 lam=      -0.170440
     -------------------------------------------------------------------


     ik =      89 coord.:    0.0600000   0.0000000   0.0000000
     -------------------------------------------------------------------
     E(   1 )=  -7.8688 eV   Re[Sigma]=     -68.058096 meV Im[Sigma]=      41.901975 meV     Z=       1.008533 lam=      -0.008460
     E(   2 )=  13.4958 eV   Re[Sigma]=     164.168322 meV Im[Sigma]=     424.184958 meV     Z=       1.179297 lam=      -0.152037
     E(   3 )=  13.7851 eV   Re[Sigma]=     275.310673 meV Im[Sigma]=     538.303629 meV     Z=       1.216282 lam=      -0.177822
     E(   4 )=  13.7851 eV   Re[Sigma]=     275.310673 meV Im[Sigma]=     538.303629 meV     Z=       1.216282 lam=      -0.177822
     -------------------------------------------------------------------


     ik =      90 coord.:    0.0550000   0.0000000   0.0000000
     -------------------------------------------------------------------
     E(   1 )=  -7.8830 eV   Re[Sigma]=     -67.253188 meV Im[Sigma]=      42.840221 meV     Z=       1.009072 lam=      -0.008991
     E(   2 )=  13.5586 eV   Re[Sigma]=     170.181435 meV Im[Sigma]=     432.795817 meV     Z=       1.186184 lam=      -0.156960
     E(   3 )=  13.8019 eV   Re[Sigma]=     275.068404 meV Im[Sigma]=     552.396084 meV     Z=       1.227730 lam=      -0.185488
     E(   4 )=  13.8019 eV   Re[Sigma]=     275.068404 meV Im[Sigma]=     552.396084 meV     Z=       1.227730 lam=      -0.185488
     -------------------------------------------------------------------


     ik =      91 coord.:    0.0500000   0.0000000   0.0000000
     -------------------------------------------------------------------
     E(   1 )=  -7.8960 eV   Re[Sigma]=     -66.482687 meV Im[Sigma]=      43.812342 meV     Z=       1.009632 lam=      -0.009540
     E(   2 )=  13.6160 eV   Re[Sigma]=     175.622190 meV Im[Sigma]=     441.779702 meV     Z=       1.192983 lam=      -0.161765
     E(   3 )=  13.8172 eV   Re[Sigma]=     274.631196 meV Im[Sigma]=     566.844976 meV     Z=       1.239823 lam=      -0.193433
     E(   4 )=  13.8172 eV   Re[Sigma]=     274.631196 meV Im[Sigma]=     566.844976 meV     Z=       1.239823 lam=      -0.193433
     -------------------------------------------------------------------


     ik =      92 coord.:    0.0450000   0.0000000   0.0000000
     -------------------------------------------------------------------
     E(   1 )=  -7.9076 eV   Re[Sigma]=     -65.745495 meV Im[Sigma]=      44.818360 meV     Z=       1.010212 lam=      -0.010109
     E(   2 )=  13.6680 eV   Re[Sigma]=     180.449630 meV Im[Sigma]=     451.293718 meV     Z=       1.199930 lam=      -0.166618
     E(   3 )=  13.8311 eV   Re[Sigma]=     273.978550 meV Im[Sigma]=     581.632794 meV     Z=       1.252583 lam=      -0.201650
     E(   4 )=  13.8311 eV   Re[Sigma]=     273.978550 meV Im[Sigma]=     581.632794 meV     Z=       1.252583 lam=      -0.201650
     -------------------------------------------------------------------


     ik =      93 coord.:    0.0400000   0.0000000   0.0000000
     -------------------------------------------------------------------
     E(   1 )=  -7.9180 eV   Re[Sigma]=     -65.041886 meV Im[Sigma]=      45.858241 meV     Z=       1.010813 lam=      -0.010698
     E(   2 )=  13.7146 eV   Re[Sigma]=     184.626643 meV Im[Sigma]=     461.476684 meV     Z=       1.207272 lam=      -0.171686
     E(   3 )=  13.8436 eV   Re[Sigma]=     273.090688 meV Im[Sigma]=     596.738031 meV     Z=       1.266029 lam=      -0.210128
     E(   4 )=  13.8436 eV   Re[Sigma]=     273.090688 meV Im[Sigma]=     596.738031 meV     Z=       1.266029 lam=      -0.210128
     -------------------------------------------------------------------


     ik =      94 coord.:    0.0350000   0.0000000   0.0000000
     -------------------------------------------------------------------
     E(   1 )=  -7.9272 eV   Re[Sigma]=     -64.369550 meV Im[Sigma]=      46.931923 meV     Z=       1.011437 lam=      -0.011307
     E(   2 )=  13.7558 eV   Re[Sigma]=     188.118066 meV Im[Sigma]=     472.447188 meV     Z=       1.215255 lam=      -0.177127
     E(   3 )=  13.8546 eV   Re[Sigma]=     271.949900 meV Im[Sigma]=     612.135940 meV     Z=       1.280178 lam=      -0.218859
     E(   4 )=  13.8546 eV   Re[Sigma]=     271.949900 meV Im[Sigma]=     612.135940 meV     Z=       1.280178 lam=      -0.218859
     -------------------------------------------------------------------


     ik =      95 coord.:    0.0300000   0.0000000   0.0000000
     -------------------------------------------------------------------
     E(   1 )=  -7.9350 eV   Re[Sigma]=     -63.726011 meV Im[Sigma]=      48.039340 meV     Z=       1.012083 lam=      -0.011938
     E(   2 )=  13.7916 eV   Re[Sigma]=     190.887270 meV Im[Sigma]=     484.302171 meV     Z=       1.224114 lam=      -0.183083
     E(   3 )=  13.8642 eV   Re[Sigma]=     270.539502 meV Im[Sigma]=     627.799314 meV     Z=       1.295046 lam=      -0.227826
     E(   4 )=  13.8642 eV   Re[Sigma]=     270.539502 meV Im[Sigma]=     627.799314 meV     Z=       1.295046 lam=      -0.227826
     -------------------------------------------------------------------


     ik =      96 coord.:    0.0250000   0.0000000   0.0000000
     -------------------------------------------------------------------
     E(   1 )=  -7.9417 eV   Re[Sigma]=     -63.111522 meV Im[Sigma]=      49.180443 meV     Z=       1.012752 lam=      -0.012591
     E(   2 )=  13.8218 eV   Re[Sigma]=     192.892239 meV Im[Sigma]=     497.115610 meV     Z=       1.234069 lam=      -0.189672
     E(   3 )=  13.8723 eV   Re[Sigma]=     268.844788 meV Im[Sigma]=     643.699183 meV     Z=       1.310645 lam=      -0.237017
     E(   4 )=  13.8723 eV   Re[Sigma]=     268.844788 meV Im[Sigma]=     643.699183 meV     Z=       1.310645 lam=      -0.237017
     -------------------------------------------------------------------


     ik =      97 coord.:    0.0200000   0.0000000   0.0000000
     -------------------------------------------------------------------
     E(   1 )=  -7.9471 eV   Re[Sigma]=     -62.527417 meV Im[Sigma]=      50.355226 meV     Z=       1.013444 lam=      -0.013265
     E(   2 )=  13.8466 eV   Re[Sigma]=     194.084132 meV Im[Sigma]=     510.936918 meV     Z=       1.245317 lam=      -0.196991
     E(   3 )=  13.8789 eV   Re[Sigma]=     266.852020 meV Im[Sigma]=     659.805362 meV     Z=       1.326986 lam=      -0.246413
     E(   4 )=  13.8789 eV   Re[Sigma]=     266.852020 meV Im[Sigma]=     659.805362 meV     Z=       1.326986 lam=      -0.246413
     -------------------------------------------------------------------


     ik =      98 coord.:    0.0150000   0.0000000   0.0000000
     -------------------------------------------------------------------
     E(   1 )=  -7.9513 eV   Re[Sigma]=     -61.971190 meV Im[Sigma]=      51.563735 meV     Z=       1.014159 lam=      -0.013961
     E(   2 )=  13.8659 eV   Re[Sigma]=     194.406586 meV Im[Sigma]=     525.788771 meV     Z=       1.258026 lam=      -0.205104
     E(   3 )=  13.8841 eV   Re[Sigma]=     264.550005 meV Im[Sigma]=     676.086825 meV     Z=       1.344076 lam=      -0.255994
     E(   4 )=  13.8841 eV   Re[Sigma]=     264.550005 meV Im[Sigma]=     676.086825 meV     Z=       1.344076 lam=      -0.255994
     -------------------------------------------------------------------


     ik =      99 coord.:    0.0100000   0.0000000   0.0000000
     -------------------------------------------------------------------
     E(   1 )=  -7.9544 eV   Re[Sigma]=     -61.443211 meV Im[Sigma]=      52.806087 meV     Z=       1.014899 lam=      -0.014680
     E(   2 )=  13.8797 eV   Re[Sigma]=     193.792713 meV Im[Sigma]=     541.664117 meV     Z=       1.272330 lam=      -0.214040
     E(   3 )=  13.8878 eV   Re[Sigma]=     261.928278 meV Im[Sigma]=     692.511875 meV     Z=       1.361919 lam=      -0.265742
     E(   4 )=  13.8878 eV   Re[Sigma]=     261.928278 meV Im[Sigma]=     692.511875 meV     Z=       1.361919 lam=      -0.265742
     -------------------------------------------------------------------


     ik =     100 coord.:    0.0050000   0.0000000   0.0000000
     -------------------------------------------------------------------
[...]
      165        3      8.6319    155.6400    167.6055      1.0140     -0.0138
      166        3      8.5305    153.5090    164.9402      1.0138     -0.0136
      167        3      8.4307    151.3742    162.7221      1.0140     -0.0138
      168        3      8.3328    149.2135    160.8209      1.0143     -0.0141
      169        3      8.2367    147.0473    159.1094      1.0145     -0.0143
      170        3      8.1427    144.9162    157.4902      1.0146     -0.0144
      171        3      8.0507    142.8551    155.9048      1.0147     -0.0145
      172        3      7.9608    140.8834    154.3254      1.0147     -0.0145
      173        3      7.8732    139.0073    152.7382      1.0148     -0.0146
      174        3      7.7880    137.2252    151.1291      1.0150     -0.0148
      175        3      7.7051    135.5318    149.4764      1.0152     -0.0150
      176        3      7.6247    133.9207    147.7497      1.0155     -0.0152
      177        3      7.5468    132.3863    145.9150      1.0158     -0.0155
      178        3      7.4716    130.9244    143.9403      1.0160     -0.0158
      179        3      7.3990    129.5326    141.8008      1.0162     -0.0160
      180        3      7.3292    128.2102    139.4825      1.0164     -0.0161
      181        3      7.2623    126.9583    136.9838      1.0164     -0.0161
      182        3      7.1982    125.7786    134.3154      1.0162     -0.0160
      183        3      7.1370    124.6733    131.4990      1.0159     -0.0157
      184        3      7.0788    123.6441    128.5653      1.0154     -0.0151
      185        3      7.0237    122.6912    125.5518      1.0147     -0.0144
      186        3      6.9717    121.8130    122.4996      1.0137     -0.0135
      187        3      6.9228    121.0056    119.4508      1.0126     -0.0125
      188        3      6.8770    120.2617    116.4455      1.0114     -0.0113
      189        3      6.8345    119.5707    113.5184      1.0101     -0.0100
      190        3      6.7953    118.9114    110.6965      1.0087     -0.0086
      191        3      6.7594    118.2741    107.9968      1.0073     -0.0072
      192        3      6.7267    117.6552    105.4244      1.0059     -0.0058
      193        3      6.6975    117.0291    102.9729      1.0045     -0.0045
      194        3      6.6716    116.3749    100.6257      1.0033     -0.0033
      195        3      6.6491    115.6718     98.3584      1.0021     -0.0021
      196        3      6.6301    114.9053     96.1427      1.0010     -0.0010
      197        3      6.6145    114.0662     93.9504      1.0000      0.0000
      198        3      6.6023    113.1473     91.7572      0.9990      0.0010
      199        3      6.5936    112.1461     89.5454      0.9981      0.0019
      200        3      6.5884    111.0647     87.3060      0.9971      0.0029
      201        3      6.5867    109.9090     85.0387      0.9961      0.0039
  
        1        4     10.6149    -63.5560    440.8078      1.1840     -0.1554
        2        4     10.6158    -59.6340    450.5881      1.1967     -0.1644
        3        4     10.6184    -55.1992    460.4642      1.2102     -0.1737
        4        4     10.6228    -50.2178    470.3047      1.2241     -0.1831
        5        4     10.6289    -44.6686    479.9658      1.2380     -0.1923
        6        4     10.6367    -38.5484    489.2951      1.2515     -0.2009
        7        4     10.6463    -31.8781    498.1365      1.2638     -0.2087
        8        4     10.6576    -24.7061    506.3364      1.2742     -0.2152
        9        4     10.6706    -17.1098    513.7512      1.2821     -0.2200
       10        4     10.6853     -9.1936    520.2556      1.2870     -0.2230
       11        4     10.7016     -1.0813    525.7507      1.2887     -0.2241
       12        4     10.7196      7.0959    530.1715      1.2875     -0.2233
       13        4     10.7392     15.2132    533.4937      1.2836     -0.2210
       14        4     10.7605     23.1643    535.7378      1.2779     -0.2175
       15        4     10.7833     30.8718    536.9701      1.2712     -0.2133
       16        4     10.8076     38.2915    537.3012      1.2641     -0.2089
       17        4     10.8335     45.4120    536.8795      1.2573     -0.2047
       18        4     10.8608     52.2504    535.8830      1.2512     -0.2007
       19        4     10.8897     58.8446    534.5067      1.2459     -0.1974
       20        4     10.9199     65.2450    532.9494      1.2416     -0.1946
       21        4     10.9515     71.5057    531.3993      1.2381     -0.1923
       22        4     10.9845     77.6841    530.0211      1.2354     -0.1905
       23        4     11.0188     83.8344    528.9442      1.2332     -0.1891
       24        4     11.0543     90.0027    528.2553      1.2313     -0.1879
       25        4     11.0911     96.2259    527.9939      1.2296     -0.1867
       26        4     11.1291    102.5317    528.1523      1.2279     -0.1856
       27        4     11.1682    108.9383    528.6794      1.2261     -0.1844
       28        4     11.2084    115.4553    529.4886      1.2240     -0.1830
       29        4     11.2497    122.0835    530.4685      1.2216     -0.1814
       30        4     11.2920    128.8153    531.4958      1.2188     -0.1795
       31        4     11.3352    135.6353    532.4486      1.2157     -0.1774
       32        4     11.3793    142.5213    533.2183      1.2122     -0.1751
       33        4     11.4243    149.4495    533.7162      1.2085     -0.1725
       34        4     11.4701    156.4026    533.8736      1.2046     -0.1699
       35        4     11.5167    163.3752    533.6355      1.2008     -0.1672
       36        4     11.5640    170.3744    532.9503      1.1971     -0.1646
       37        4     11.6119    177.4158    531.7591      1.1935     -0.1622
       38        4     11.6604    184.4863    529.9908      1.1901     -0.1598
       39        4     11.7095    191.5831    527.5617      1.1869     -0.1575
       40        4     11.7590    198.7043    524.3802      1.1837     -0.1552
       41        4     11.8091    205.8400    520.3528      1.1807     -0.1530
       42        4     11.8595    212.9737    515.3903      1.1776     -0.1508
       43        4     11.9102    220.0812    509.4130      1.1745     -0.1485
       44        4     11.9612    227.1280    502.3574      1.1710     -0.1461
       45        4     12.0125    234.0673    494.1835      1.1672     -0.1432
       46        4     12.0639    240.8365    484.8841      1.1627     -0.1399
       47        4     12.1154    247.3558    474.4942      1.1574     -0.1360
       48        4     12.1670    253.5285    463.0989      1.1510     -0.1312
       49        4     12.2187    259.2433    450.8380      1.1435     -0.1255
       50        4     12.2703    264.3840    437.9064      1.1348     -0.1188
       51        4     12.3218    268.8404    424.5484      1.1253     -0.1113
       52        4     12.3732    272.5262    411.0467      1.1152     -0.1033
       53        4     12.4244    275.3948    397.7070      1.1052     -0.0952
       54        4     12.4753    277.4479    384.8393      1.0958     -0.0874
       55        4     12.5260    278.7377    372.7389      1.0875     -0.0804
       56        4     12.5763    279.3571    361.6675      1.0806     -0.0746
       57        4     12.6263    279.4229    351.8396      1.0753     -0.0701
       58        4     12.6758    279.0606    343.4122      1.0716     -0.0668
       59        4     12.7249    278.3908    336.4813      1.0692     -0.0648
       60        4     12.7734    277.5192    331.0828      1.0681     -0.0637
       61        4     12.8214    276.5343    327.1993      1.0679     -0.0636
       62        4     12.8687    275.5074    324.7699      1.0686     -0.0642
       63        4     12.9154    274.4918    323.7011      1.0700     -0.0654
       64        4     12.9614    273.5276    323.8800      1.0718     -0.0670
       65        4     13.0067    272.6439    325.1853      1.0741     -0.0690
       66        4     13.0512    271.8601    327.4976      1.0767     -0.0713
       67        4     13.0949    271.1887    330.7069      1.0797     -0.0738
       68        4     13.1377    270.6376    334.7181      1.0828     -0.0765
       69        4     13.1797    270.2097    339.4532      1.0862     -0.0794
       70        4     13.2207    269.9050    344.8514      1.0898     -0.0824
       71        4     13.2607    269.7217    350.8670      1.0937     -0.0856
       72        4     13.2998    269.6549    357.4662      1.0977     -0.0890
       73        4     13.3378    269.6985    364.6221      1.1019     -0.0925
       74        4     13.3748    269.8454    372.3115      1.1063     -0.0961
       75        4     13.4107    270.0860    380.5110      1.1110     -0.0999
       76        4     13.4455    270.4104    389.1963      1.1159     -0.1039
       77        4     13.4792    270.8072    398.3414      1.1211     -0.1080
       78        4     13.5116    271.2628    407.9201      1.1266     -0.1124
       79        4     13.5429    271.7637    417.9080      1.1325     -0.1170
       80        4     13.5730    272.2941    428.2848      1.1387     -0.1218
       81        4     13.6018    272.8369    439.0353      1.1454     -0.1269
       82        4     13.6293    273.3750    450.1508      1.1524     -0.1323
       83        4     13.6556    273.8887    461.6288      1.1600     -0.1379
       84        4     13.6806    274.3586    473.4711      1.1680     -0.1438
       85        4     13.7042    274.7643    485.6827      1.1765     -0.1500
       86        4     13.7265    275.0839    498.2691      1.1856     -0.1565
       87        4     13.7474    275.2966    511.2346      1.1952     -0.1633
       88        4     13.7669    275.3794    524.5805      1.2055     -0.1704
       89        4     13.7851    275.3107    538.3036      1.2163     -0.1778
       90        4     13.8019    275.0684    552.3961      1.2277     -0.1855
       91        4     13.8172    274.6312    566.8450      1.2398     -0.1934
       92        4     13.8311    273.9786    581.6328      1.2526     -0.2016
       93        4     13.8436    273.0907    596.7380      1.2660     -0.2101
       94        4     13.8546    271.9499    612.1359      1.2802     -0.2189
       95        4     13.8642    270.5395    627.7993      1.2950     -0.2278
       96        4     13.8723    268.8448    643.6992      1.3106     -0.2370
       97        4     13.8789    266.8520    659.8054      1.3270     -0.2464
       98        4     13.8841    264.5500    676.0868      1.3441     -0.2560
       99        4     13.8878    261.9283    692.5119      1.3619     -0.2657
      100        4     13.8900    258.9786    709.0481      1.3805     -0.2756
      101        4     13.8908    233.6090    675.8694      1.3671     -0.2685
      102        4     13.8889    241.2304    654.2593      1.3422     -0.2549
      103        4     13.8833    243.7670    634.9427      1.3221     -0.2436
      104        4     13.8740    245.6764    615.9339      1.3033     -0.2327
      105        4     13.8610    247.0162    597.2936      1.2858     -0.2223
      106        4     13.8443    247.8421    579.0678      1.2694     -0.2122
      107        4     13.8239    248.2071    561.2901      1.2542     -0.2027
      108        4     13.7998    248.1604    543.9835      1.2400     -0.1936
      109        4     13.7721    247.7503    527.1622      1.2269     -0.1849
      110        4     13.7408    247.0215    510.8329      1.2147     -0.1767
      111        4     13.7060    246.0155    494.9966      1.2033     -0.1689
      112        4     13.6676    244.7711    479.6494      1.1927     -0.1616
      113        4     13.6257    243.3239    464.7841      1.1829     -0.1546
      114        4     13.5804    241.7072    450.3902      1.1737     -0.1480
      115        4     13.5317    239.9520    436.4556      1.1650     -0.1417
      116        4     13.4797    238.0872    422.9666      1.1570     -0.1357
      117        4     13.4244    236.1394    409.9089      1.1494     -0.1300
      118        4     13.3658    234.1337    397.2676      1.1423     -0.1246
      119        4     13.3041    232.0930    385.0280      1.1356     -0.1194
      120        4     13.2393    230.0388    373.1759      1.1292     -0.1144
      121        4     13.1714    227.9909    361.6979      1.1231     -0.1096
      122        4     13.1006    225.9680    350.5818      1.1174     -0.1051
      123        4     13.0270    223.9872    339.8172      1.1119     -0.1007
      124        4     12.9505    222.0644    329.3957      1.1067     -0.0964
      125        4     12.8713    220.2142    319.3116      1.1016     -0.0923
      126        4     12.7895    218.4503    309.5625      1.0968     -0.0882
      127        4     12.7051    216.7848    300.1500      1.0921     -0.0843
      128        4     12.6183    215.2283    291.0800      1.0876     -0.0805
      129        4     12.5291    213.7902    282.3632      1.0832     -0.0768
      130        4     12.4376    212.4793    274.0156      1.0790     -0.0732
      131        4     12.3439    211.3024    266.0573      1.0748     -0.0696
      132        4     12.2482    210.2643    258.5123      1.0708     -0.0662
      133        4     12.1505    209.3674    251.4056      1.0670     -0.0628
      134        4     12.0509    208.6113    244.7611      1.0633     -0.0595
      135        4     11.9495    207.9918    238.5973      1.0597     -0.0563
      136        4     11.8465    207.5005    232.9233      1.0564     -0.0534
      137        4     11.7419    207.1242    227.7347      1.0533     -0.0506
      138        4     11.6358    206.8446    223.0105      1.0504     -0.0480
      139        4     11.5284    206.6395    218.7123      1.0479     -0.0457
      140        4     11.4198    206.4852    214.7882      1.0456     -0.0436
      141        4     11.3100    206.3609    211.1828      1.0436     -0.0417
      142        4     11.1993    206.2541    207.8559      1.0416     -0.0400
      143        4     11.0876    206.1644    204.8094      1.0397     -0.0382
      144        4     10.9751    206.1027    202.1176      1.0377     -0.0363
      145        4     10.8620    206.0821    199.9460      1.0356     -0.0343
      146        4     10.7483    206.0993    198.5417      1.0334     -0.0323
      147        4     10.6342    206.1055    198.1777      1.0315     -0.0305
      148        4     10.5197    205.9709    199.0539      1.0304     -0.0295
      149        4     10.4050    205.4662    201.1796      1.0304     -0.0295
      150        4     10.2902    204.3084    204.2833      1.0316     -0.0306
      151        4     10.1754    202.2869    207.8004      1.0334     -0.0323
      152        4     10.0608    199.3643    210.9705      1.0349     -0.0337
      153        4      9.9464    195.6741    213.0342      1.0355     -0.0343
      154        4      9.8323    191.4827    213.4526      1.0349     -0.0337
      155        4      9.7187    187.1080    212.0494      1.0331     -0.0320
      156        4      9.6057    182.8054    209.0068      1.0306     -0.0297
      157        4      9.4933    178.7225    204.7371      1.0279     -0.0272
      158        4      9.3818    174.9241    199.7155      1.0253     -0.0246
      159        4      9.2711    171.4277    194.3580      1.0228     -0.0223
      160        4      9.1615    168.2225    188.9766      1.0206     -0.0201
      161        4      9.0529    165.2884    183.7913      1.0186     -0.0183
      162        4      8.9456    162.6002    178.9623      1.0169     -0.0167
      163        4      8.8396    160.1259    174.6102      1.0156     -0.0153
      164        4      8.7350    157.8240    170.8158      1.0146     -0.0144
      165        4      8.6319    155.6400    167.6055      1.0140     -0.0138
      166        4      8.5305    153.5090    164.9402      1.0138     -0.0136
      167        4      8.4307    151.3742    162.7221      1.0140     -0.0138
      168        4      8.3328    149.2135    160.8209      1.0143     -0.0141
      169        4      8.2367    147.0473    159.1094      1.0145     -0.0143
      170        4      8.1427    144.9162    157.4902      1.0146     -0.0144
      171        4      8.0507    142.8551    155.9048      1.0147     -0.0145
      172        4      7.9608    140.8834    154.3254      1.0147     -0.0145
      173        4      7.8732    139.0073    152.7382      1.0148     -0.0146
      174        4      7.7880    137.2252    151.1291      1.0150     -0.0148
      175        4      7.7051    135.5318    149.4764      1.0152     -0.0150
      176        4      7.6247    133.9207    147.7497      1.0155     -0.0152
      177        4      7.5468    132.3863    145.9150      1.0158     -0.0155
      178        4      7.4716    130.9244    143.9403      1.0160     -0.0158
      179        4      7.3990    129.5326    141.8008      1.0162     -0.0160
      180        4      7.3292    128.2102    139.4825      1.0164     -0.0161
      181        4      7.2623    126.9583    136.9838      1.0164     -0.0161
      182        4      7.1982    125.7786    134.3154      1.0162     -0.0160
      183        4      7.1370    124.6733    131.4990      1.0159     -0.0157
      184        4      7.0788    123.6441    128.5653      1.0154     -0.0151
      185        4      7.0237    122.6912    125.5518      1.0147     -0.0144
      186        4      6.9717    121.8130    122.4996      1.0137     -0.0135
      187        4      6.9228    121.0056    119.4508      1.0126     -0.0125
      188        4      6.8770    120.2617    116.4455      1.0114     -0.0113
      189        4      6.8345    119.5707    113.5184      1.0101     -0.0100
      190        4      6.7953    118.9114    110.6965      1.0087     -0.0086
      191        4      6.7594    118.2741    107.9968      1.0073     -0.0072
      192        4      6.7267    117.6552    105.4244      1.0059     -0.0058
      193        4      6.6975    117.0291    102.9729      1.0045     -0.0045
      194        4      6.6716    116.3749    100.6257      1.0033     -0.0033
      195        4      6.6491    115.6718     98.3584      1.0021     -0.0021
      196        4      6.6301    114.9053     96.1427      1.0010     -0.0010
      197        4      6.6145    114.0662     93.9504      1.0000      0.0000
      198        4      6.6023    113.1473     91.7572      0.9990      0.0010
      199        4      6.5936    112.1461     89.5454      0.9981      0.0019
      200        4      6.5884    111.0647     87.3060      0.9971      0.0029
      201        4      6.5867    109.9090     85.0387      0.9961      0.0039
  
     ===================================================================
     Memory usage:  VmHWM =        20Mb
                   VmPeak =       230Mb
     ===================================================================


     Unfolding on the coarse grid
     elphon_wrap  :      0.00s CPU      0.00s WALL (       1 calls)

     INITIALIZATION: 



     Electron-Phonon interpolation
     ephwann      :      2.18s CPU      2.21s WALL (       1 calls)
     ep-interp    :      2.14s CPU      2.16s WALL (     201 calls)

     DynW2B       :      0.02s CPU      0.00s WALL (     201 calls)
     HamW2B       :      0.68s CPU      0.67s WALL (   81204 calls)
     ephW2Bp      :      0.07s CPU      0.05s WALL (     201 calls)


     Total program execution
     EPW          :     2.18s CPU         2.21s WALL

                                                                                          
 Please consider citing:                                                                  
 S. Ponce, E. R. Margine, C. Verdi and F. Giustino, Comput. Phys. Commun. 209, 116 (2016) 
                                                                                          
