                                                                                      
                                       ``:oss/                                        
                           `.+s+.     .+ys--yh+     `./ss+.                           
                          -sh//yy+`   +yy   +yy    -+h+-oyy                           
                          -yh- .oyy/.-sh.   .syo-.:sy-  /yh                           
                 `.-.`    `yh+   -oyyyo.     `/syys:    oys      `.`                  
               `/+ssys+-` `sh+      `                   oys`   .:osyo`                
               -yh- ./syyooyo`                          .sys+/oyo--yh/                
               `yy+    .-:-.                             `-/+/:`  -sh-                
                /yh.                                              oys                 
          ``..---hho---------`   .---------..`      `.-----.`    -hd+---.             
       `./osmNMMMMMMMMMMMMMMMs. +NNMMMMMMMMNNmh+.   yNMMMMMNm-  oNMMMMMNmo++:`        
       +sy--/sdMMMhyyyyyyyNMMh- .oyNMMmyyyyyhNMMm+` -yMMMdyyo:` .oyyNMMNhs+syy`       
       -yy/   /MMM+.`-+/``mMMy-   `mMMh:`````.dMMN:` `MMMy-`-dhhy```mMMy:``+hs        
        -yy+` /MMMo:-mMM+`-oo/.    mMMh:     `dMMN/`  dMMm:`dMMMMy..MMMo-.+yo`        
         .sys`/MMMMNNMMMs-         mMMmyooooymMMNo:   oMMM/sMMMMMM++MMN//oh:          
          `sh+/MMMhyyMMMs- `-`     mMMMMMMMMMNmy+-`   -MMMhMMMsmMMmdMMd/yy+           
    `-/+++oyy-/MMM+.`/hh/.`mNm:`   mMMd+/////:-.`      NMMMMMd/:NMMMMMy:/yyo/:.`      
   +os+//:-..-oMMMo:--:::-/MMMo. .-mMMd+---`           hMMMMN+. oMMMMMo. `-+osyso:`   
   syo     `mNMMMMMNNNNNNNNMMMo.oNNMMMMMNNNN:`         +MMMMs:`  dMMMN/`     ``:syo   
   /yh`     :syyyyyyyyyyyyyyyy+.`+syyyyyyyyo:`         .oyys:`   .oyys:`        +yh   
   -yh-        ````````````````    `````````              ``        ``          oys   
   -+h/------------------------::::::::://////++++++++++++++++++++++///////::::/yd:   
   shdddddddddddddddddddddddddddddhhhhhhhhyyyyyssssssssssssssssyyyyyyyhhhhhhhddddh`   
                                                                                      
  S. Ponce, E. R. Margine, C. Verdi, and F. Giustino, http://arxiv.org/abs/1604.03525 
                                                                                      

     Program EPW v.4.0.0 (svn rev. 12681) starts on  9Aug2016 at 11:56: 1 

     This program is part of the open-source Quantum ESPRESSO suite
     for quantum simulation of materials; please cite
         "P. Giannozzi et al., J. Phys.:Condens. Matter 21 395502 (2009);
          URL http://www.quantum-espresso.org", 
     in publications or presentations arising from this work. More details at
     http://www.quantum-espresso.org/quote

           HOST :    @host@
           ARCH :    x86_64
             CC :    cc
            CPP :    cpp
            F90 :    mpif90
            F77 :    gfortran
         DFLAGS :    -D__GFORTRAN -D__STD_F95 -D__FFTW -D__MPI -D__PARA
      BLAS LIBS :    /home/sponce/program/espresso/BLAS/blas.a
    LAPACK LIBS :    /home/sponce/program/espresso/lapack-3.2/lapack.a
       FFT LIBS :    
      MASS LIBS :    

     Parallel version (MPI), running on     1 processors

     Reading data from directory:
     ./diam.save

   Info: using nr1, nr2, nr3 values from input

   Info: using nr1, nr2, nr3 values from input

     IMPORTANT: XC functional enforced from input :
     Exchange-correlation      =  SLA  PZ   NOGX NOGC ( 1  1  0  0 0 0)
     Any further DFT definition will be discarded
     Please, verify this is what you really want

               file C_3.98148.UPF: wavefunction(s)  3d renormalized

     G-vector sticks info
     --------------------
     sticks:   dense  smooth     PW     G-vecs:    dense   smooth      PW
     Sum         367     367    121                 4645     4645     893


Possibly too few bands at point    1   0.00000   0.00000   0.00000

Possibly too few bands at point    2  -0.33333   0.33333  -0.33333

Possibly too few bands at point    3  -0.66667   0.66667  -0.66667

Possibly too few bands at point    4   0.33333   0.33333   0.33333

Possibly too few bands at point    5   0.00000   0.66667   0.00000

Possibly too few bands at point    6  -0.33333   1.00000  -0.33333

Possibly too few bands at point    7   0.66667   0.66667   0.66667

Possibly too few bands at point    8   0.33333   1.00000   0.33333

Possibly too few bands at point    9   0.00000   1.33333   0.00000

Possibly too few bands at point   10  -0.33333  -0.33333   0.33333

Possibly too few bands at point   11  -0.66667   0.00000   0.00000

Possibly too few bands at point   12  -1.00000   0.33333  -0.33333

Possibly too few bands at point   13   0.00000   0.00000   0.66667

Possibly too few bands at point   14  -0.33333   0.33333   0.33333

Possibly too few bands at point   15  -0.66667   0.66667  -0.00000

Possibly too few bands at point   16   0.33333   0.33333   1.00000

Possibly too few bands at point   17   0.00000   0.66667   0.66667

Possibly too few bands at point   18  -0.33333   1.00000   0.33333

Possibly too few bands at point   19  -0.66667  -0.66667   0.66667

Possibly too few bands at point   20  -1.00000  -0.33333   0.33333

Possibly too few bands at point   21  -1.33333   0.00000   0.00000

Possibly too few bands at point   22  -0.33333  -0.33333   1.00000

Possibly too few bands at point   23  -0.66667  -0.00000   0.66667

Possibly too few bands at point   24  -1.00000   0.33333   0.33333

Possibly too few bands at point   25   0.00000   0.00000   1.33333

Possibly too few bands at point   26  -0.33333   0.33333   1.00000

Possibly too few bands at point   27  -0.66667   0.66667   0.66667

     --                                                                         

     bravais-lattice index     =            2
     lattice parameter (a_0)   =       6.6425  a.u.
     unit-cell volume          =      73.2698 (a.u.)^3
     number of atoms/cell      =            2
     number of atomic types    =            1
     kinetic-energy cut-off    =      60.0000  Ry
     charge density cut-off    =     240.0000  Ry
     convergence threshold     =      0.0E+00
     beta                      =       0.0000
     number of iterations used =            0
     Exchange-correlation      =  SLA  PZ   NOGX NOGC ( 1  1  0  0 0 0)


     celldm(1)=    6.64245  celldm(2)=    0.00000  celldm(3)=    0.00000
     celldm(4)=    0.00000  celldm(5)=    0.00000  celldm(6)=    0.00000

     crystal axes: (cart. coord. in units of a_0)
               a(1) = ( -0.5000  0.0000  0.5000 )  
               a(2) = (  0.0000  0.5000  0.5000 )  
               a(3) = ( -0.5000  0.5000  0.0000 )  

     reciprocal axes: (cart. coord. in units 2 pi/a_0)
               b(1) = ( -1.0000 -1.0000  1.0000 )  
               b(2) = (  1.0000  1.0000  1.0000 )  
               b(3) = ( -1.0000  1.0000 -1.0000 )  


     Atoms inside the unit cell: 

   Cartesian axes

     site n.  atom      mass           positions (a_0 units)
        1        C   12.0118   tau( 1) = (    0.00000    0.00000    0.00000  )
        2        C   12.0118   tau( 2) = (    0.25000    0.25000    0.25000  )

     49 Sym.Ops. (with q -> -q+G )


     G cutoff =  268.2305  (   4645 G-vectors)     FFT grid: ( 24, 24, 24)
     number of k points=   27  gaussian broad. (Ry)=  0.0200     ngauss =   1
                       cart. coord. in units 2pi/a_0
        k(    1) = (   0.0000000   0.0000000   0.0000000), wk =   0.0740741
        k(    2) = (  -0.3333333   0.3333333  -0.3333333), wk =   0.0740741
        k(    3) = (  -0.6666667   0.6666667  -0.6666667), wk =   0.0740741
        k(    4) = (   0.3333333   0.3333333   0.3333333), wk =   0.0740741
        k(    5) = (   0.0000000   0.6666667   0.0000000), wk =   0.0740741
        k(    6) = (  -0.3333333   1.0000000  -0.3333333), wk =   0.0740741
        k(    7) = (   0.6666667   0.6666667   0.6666667), wk =   0.0740741
        k(    8) = (   0.3333333   1.0000000   0.3333333), wk =   0.0740741
        k(    9) = (   0.0000000   1.3333333   0.0000000), wk =   0.0740741
        k(   10) = (  -0.3333333  -0.3333333   0.3333333), wk =   0.0740741
        k(   11) = (  -0.6666667   0.0000000   0.0000000), wk =   0.0740741
        k(   12) = (  -1.0000000   0.3333333  -0.3333333), wk =   0.0740741
        k(   13) = (   0.0000000   0.0000000   0.6666667), wk =   0.0740741
        k(   14) = (  -0.3333333   0.3333333   0.3333333), wk =   0.0740741
        k(   15) = (  -0.6666667   0.6666667  -0.0000000), wk =   0.0740741
        k(   16) = (   0.3333333   0.3333333   1.0000000), wk =   0.0740741
        k(   17) = (   0.0000000   0.6666667   0.6666667), wk =   0.0740741
        k(   18) = (  -0.3333333   1.0000000   0.3333333), wk =   0.0740741
        k(   19) = (  -0.6666667  -0.6666667   0.6666667), wk =   0.0740741
        k(   20) = (  -1.0000000  -0.3333333   0.3333333), wk =   0.0740741
        k(   21) = (  -1.3333333   0.0000000   0.0000000), wk =   0.0740741
        k(   22) = (  -0.3333333  -0.3333333   1.0000000), wk =   0.0740741
        k(   23) = (  -0.6666667  -0.0000000   0.6666667), wk =   0.0740741
        k(   24) = (  -1.0000000   0.3333333   0.3333333), wk =   0.0740741
        k(   25) = (   0.0000000   0.0000000   1.3333333), wk =   0.0740741
        k(   26) = (  -0.3333333   0.3333333   1.0000000), wk =   0.0740741
        k(   27) = (  -0.6666667   0.6666667   0.6666667), wk =   0.0740741

     PseudoPot. # 1 for C  read from file:
     ./C_3.98148.UPF
     MD5 check sum: 8b65adcd36341f53911399f4b6efa59f
     Pseudo is Norm-conserving, Zval =  4.0
     Generated by new atomic code, or converted to UPF format
     Using radial grid of  461 points,  2 beta functions with: 
                l(1) =   0
                l(2) =   1
     EPW          :     0.42s CPU         0.22s WALL

     EPW          :     0.57s CPU         0.29s WALL

     No wavefunction gauge setting applied
     -------------------------------------------------------------------
     Wannierization on  3 x  3 x  3 electronic grid
     -------------------------------------------------------------------

     Spin CASE ( default = unpolarized )

     Initializing Wannier90


     Initial Wannier projections

     (   0.00000   0.00000   0.00000) :  l =  -3 mr =   1
     (   0.00000   0.00000   0.00000) :  l =  -3 mr =   2
     (   0.00000   0.00000   0.00000) :  l =  -3 mr =   3
     (   0.00000   0.00000   0.00000) :  l =  -3 mr =   4

      - Number of bands is (  4)
      - Number of wannier functions is (  4)
      - All guiding functions are given 

  Reading data about k-point neighbours 

      - All neighbours are found 

     AMN
      k points =    27 in    1 pools
            1 of   27 on ionode
            2 of   27 on ionode
            3 of   27 on ionode
            4 of   27 on ionode
            5 of   27 on ionode
            6 of   27 on ionode
            7 of   27 on ionode
            8 of   27 on ionode
            9 of   27 on ionode
           10 of   27 on ionode
           11 of   27 on ionode
           12 of   27 on ionode
           13 of   27 on ionode
           14 of   27 on ionode
           15 of   27 on ionode
           16 of   27 on ionode
           17 of   27 on ionode
           18 of   27 on ionode
           19 of   27 on ionode
           20 of   27 on ionode
           21 of   27 on ionode
           22 of   27 on ionode
           23 of   27 on ionode
           24 of   27 on ionode
           25 of   27 on ionode
           26 of   27 on ionode
           27 of   27 on ionode

     AMN calculated

     MMN
      k points =    27 in    1 pools
            1 of   27 on ionode
            2 of   27 on ionode
            3 of   27 on ionode
            4 of   27 on ionode
            5 of   27 on ionode
            6 of   27 on ionode
            7 of   27 on ionode
            8 of   27 on ionode
            9 of   27 on ionode
           10 of   27 on ionode
           11 of   27 on ionode
           12 of   27 on ionode
           13 of   27 on ionode
           14 of   27 on ionode
           15 of   27 on ionode
           16 of   27 on ionode
           17 of   27 on ionode
           18 of   27 on ionode
           19 of   27 on ionode
           20 of   27 on ionode
           21 of   27 on ionode
           22 of   27 on ionode
           23 of   27 on ionode
           24 of   27 on ionode
           25 of   27 on ionode
           26 of   27 on ionode
           27 of   27 on ionode
     MMN calculated

     Running Wannier90

     Wannier Function centers (cartesian, alat) and spreads (ang):

     (   0.12500   0.12500   0.12500) :   0.57702
     (   0.12500  -0.12500  -0.12500) :   0.57702
     (  -0.12500   0.12500  -0.12500) :   0.57702
     (  -0.12500  -0.12500   0.12500) :   0.57702

     -------------------------------------------------------------------
     WANNIER      :      8.74s CPU      4.37s WALL (       1 calls)
     -------------------------------------------------------------------

     Dipole matrix elements calculated


     Calculating kmap and kgmap
     Progress  kmap: ###########################
     Progress kgmap: ########################################
     kmaps        :      2.80s CPU      1.40s WALL (       1 calls)
     Symmetries of bravais lattice:  48
     Symmetries of crystal:          48


     ===================================================================
     irreducible q point #    1
     ===================================================================

     Symmetries of small group of q: 48
          in addition sym. q -> -q+G:

     Number of q in the star =    1
     List of q in the star:
          1   0.000000000   0.000000000   0.000000000
        Imposing acoustic sum rule on the dynamical matrix

        q(    1 ) = (   0.0000000   0.0000000   0.0000000 )


     ===================================================================
     irreducible q point #    2
     ===================================================================

     Symmetries of small group of q:  6

     Number of q in the star =    8
     List of q in the star:
          1  -0.333333333   0.333333333  -0.333333333
          2   0.333333333   0.333333333  -0.333333333
          3   0.333333333   0.333333333   0.333333333
          4  -0.333333333   0.333333333   0.333333333
          5   0.333333333  -0.333333333   0.333333333
          6  -0.333333333  -0.333333333  -0.333333333
          7   0.333333333  -0.333333333  -0.333333333
          8  -0.333333333  -0.333333333   0.333333333

        q(    2 ) = (  -0.3333333   0.3333333  -0.3333333 )
        q(    3 ) = (   0.3333333   0.3333333  -0.3333333 )
        q(    4 ) = (   0.3333333   0.3333333   0.3333333 )
        q(    5 ) = (  -0.3333333   0.3333333   0.3333333 )
        q(    6 ) = (   0.3333333  -0.3333333   0.3333333 )
        q(    7 ) = (  -0.3333333  -0.3333333  -0.3333333 )
        q(    8 ) = (   0.3333333  -0.3333333  -0.3333333 )
        q(    9 ) = (  -0.3333333  -0.3333333   0.3333333 )


     ===================================================================
     irreducible q point #    3
     ===================================================================

     Symmetries of small group of q:  8

     Number of q in the star =    6
     List of q in the star:
          1   0.000000000   0.666666667   0.000000000
          2  -0.666666667   0.000000000   0.000000000
          3   0.000000000  -0.666666667   0.000000000
          4   0.000000000   0.000000000   0.666666667
          5   0.000000000   0.000000000  -0.666666667
          6   0.666666667   0.000000000   0.000000000

        q(   10 ) = (   0.0000000   0.6666667   0.0000000 )
        q(   11 ) = (  -0.6666667   0.0000000   0.0000000 )
        q(   12 ) = (   0.0000000  -0.6666667   0.0000000 )
        q(   13 ) = (   0.0000000   0.0000000   0.6666667 )
        q(   14 ) = (   0.0000000   0.0000000  -0.6666667 )
        q(   15 ) = (   0.6666667   0.0000000   0.0000000 )


     ===================================================================
     irreducible q point #    4
     ===================================================================

     Symmetries of small group of q:  4

     Number of q in the star =   12
     List of q in the star:
          1   0.666666667   0.000000000   0.666666667
          2   0.666666667   0.000000000  -0.666666667
          3  -0.666666667   0.000000000  -0.666666667
          4  -0.666666667   0.000000000   0.666666667
          5   0.000000000  -0.666666667   0.666666667
          6  -0.666666667   0.666666667   0.000000000
          7  -0.666666667  -0.666666667   0.000000000
          8   0.666666667   0.666666667   0.000000000
          9   0.666666667  -0.666666667   0.000000000
         10   0.000000000   0.666666667   0.666666667
         11   0.000000000   0.666666667  -0.666666667
         12   0.000000000  -0.666666667  -0.666666667

        q(   16 ) = (   0.6666667   0.0000000   0.6666667 )
        q(   17 ) = (   0.6666667   0.0000000  -0.6666667 )
        q(   18 ) = (  -0.6666667   0.0000000  -0.6666667 )
        q(   19 ) = (  -0.6666667   0.0000000   0.6666667 )
        q(   20 ) = (   0.0000000  -0.6666667   0.6666667 )
        q(   21 ) = (  -0.6666667   0.6666667   0.0000000 )
        q(   22 ) = (  -0.6666667  -0.6666667   0.0000000 )
        q(   23 ) = (   0.6666667   0.6666667   0.0000000 )
        q(   24 ) = (   0.6666667  -0.6666667   0.0000000 )
        q(   25 ) = (   0.0000000   0.6666667   0.6666667 )
        q(   26 ) = (   0.0000000   0.6666667  -0.6666667 )
        q(   27 ) = (   0.0000000  -0.6666667  -0.6666667 )

     Writing epmatq on .epb files


     The .epb files have been correctly written


     Writing Hamiltonian, Dynamical matrix and EP vertex in Wann rep to file


     Reading Hamiltonian, Dynamical matrix and EP vertex in Wann rep from file


     Finished reading Wann rep data from file

     Using uniform q-mesh:    6   6   6
     Size of q point mesh for interpolation:        216
     Using uniform k-mesh:    6   6   6
     Size of k point mesh for interpolation:        432
     Max number of k points per pool:              432

     Fermi energy coarse grid =  14.009584 eV

     Fermi energy is calculated from the fine k-mesh: Ef =  13.576273 eV

     Warning: check if difference with Fermi level fine grid makes sense

     ===================================================================

              ibndmin =     1  ebndmin =    -0.074
              ibndmax =     4  ebndmax =     1.021


     Number of ep-matrix elements per pool :        20736 ~=  162.00 Kb (@ 8 bytes/ DP)

     ===================================================================
     Electron (Imaginary) Self-Energy in the Migdal Approximation
     ===================================================================


     Fermi Surface thickness =  15.000000 eV

     Golden Rule strictly enforced with T =   0.025852 eV
     Gaussian Broadening:   1.000000 eV, ngauss=   1
     DOS =  0.055485 states/spin/eV/Unit Cell at Ef= 13.576273 eV
 

     ===================================================================
     Nesting Function in the double delta approx
     ===================================================================


     Fermi Surface thickness =  15.000000 eV

     Golden Rule strictly enforced with T =   0.025852 eV
     Gaussian Broadening:   1.000 eV, ngauss=   1
     DOS =  0.055485 states/spin/eV/Unit Cell at Ef= 13.576273 eV

     iq =     1 coord.:   0.00000  0.00000  0.00000 wt:   0.00463
     -------------------------------------------------------------------
      Nesting function (q)=   0.168757E+02 [Adimensional]
     -------------------------------------------------------------------


     Number of (k,k+q) pairs on the Fermi surface:      216 out of      216


     ===================================================================
     Electron Spectral Function in the Migdal Approximation
     ===================================================================


     Fermi Surface thickness =  15.000000 eV

     Golden Rule strictly enforced with T =   0.025852 eV
     Gaussian Broadening:   1.000000 eV, ngauss=   1
     DOS =  0.055485 states/spin/eV/Unit Cell at Ef= 13.576273 eV
 
     The sum rule to conserve the number of electron is enforced.
     The self energy is rescaled so that its real part is zero at the Fermi level.
     The sum rule replace the explicit calculation of the Debye-Waller term.
 

     iq =     2 coord.:   0.00000  0.00000  0.16667 wt:   0.00463
     -------------------------------------------------------------------
      Nesting function (q)=   0.825271E+01 [Adimensional]
     -------------------------------------------------------------------


     Number of (k,k+q) pairs on the Fermi surface:      216 out of      216


     iq =     3 coord.:   0.00000  0.00000  0.33333 wt:   0.00463
     -------------------------------------------------------------------
      Nesting function (q)=   0.183684E+01 [Adimensional]
     -------------------------------------------------------------------


     Number of (k,k+q) pairs on the Fermi surface:      216 out of      216


     iq =     4 coord.:   0.00000  0.00000  0.50000 wt:   0.00463
     -------------------------------------------------------------------
      Nesting function (q)=   0.952080E-01 [Adimensional]
     -------------------------------------------------------------------


     Number of (k,k+q) pairs on the Fermi surface:      216 out of      216


     iq =     5 coord.:   0.00000  0.00000  0.66667 wt:   0.00463
     -------------------------------------------------------------------
      Nesting function (q)=   0.183684E+01 [Adimensional]
     -------------------------------------------------------------------


     Number of (k,k+q) pairs on the Fermi surface:      216 out of      216


     iq =     6 coord.:   0.00000  0.00000  0.83333 wt:   0.00463
     -------------------------------------------------------------------
      Nesting function (q)=   0.825271E+01 [Adimensional]
     -------------------------------------------------------------------


     Number of (k,k+q) pairs on the Fermi surface:      216 out of      216


     iq =     7 coord.:   0.00000  0.16667  0.00000 wt:   0.00463
     -------------------------------------------------------------------
      Nesting function (q)=   0.825271E+01 [Adimensional]
     -------------------------------------------------------------------


     Number of (k,k+q) pairs on the Fermi surface:      216 out of      216


     iq =     8 coord.:   0.00000  0.16667  0.16667 wt:   0.00463
     -------------------------------------------------------------------
      Nesting function (q)=   0.692556E+01 [Adimensional]
     -------------------------------------------------------------------


     Number of (k,k+q) pairs on the Fermi surface:      216 out of      216


     iq =     9 coord.:   0.00000  0.16667  0.33333 wt:   0.00463
     -------------------------------------------------------------------
      Nesting function (q)=   0.189444E+01 [Adimensional]
     -------------------------------------------------------------------


     Number of (k,k+q) pairs on the Fermi surface:      216 out of      216


     iq =    10 coord.:   0.00000  0.16667  0.50000 wt:   0.00463
     -------------------------------------------------------------------
      Nesting function (q)=   0.203246E+00 [Adimensional]
     -------------------------------------------------------------------


     Number of (k,k+q) pairs on the Fermi surface:      216 out of      216


     iq =    11 coord.:   0.00000  0.16667  0.66667 wt:   0.00463
     -------------------------------------------------------------------
      Nesting function (q)=   0.770916E+00 [Adimensional]
     -------------------------------------------------------------------


     Number of (k,k+q) pairs on the Fermi surface:      216 out of      216


     iq =    12 coord.:   0.00000  0.16667  0.83333 wt:   0.00463
     -------------------------------------------------------------------
      Nesting function (q)=   0.453799E+01 [Adimensional]
     -------------------------------------------------------------------


     Number of (k,k+q) pairs on the Fermi surface:      216 out of      216


     iq =    13 coord.:   0.00000  0.33333  0.00000 wt:   0.00463
     -------------------------------------------------------------------
      Nesting function (q)=   0.183684E+01 [Adimensional]
     -------------------------------------------------------------------


     Number of (k,k+q) pairs on the Fermi surface:      216 out of      216


     iq =    14 coord.:   0.00000  0.33333  0.16667 wt:   0.00463
     -------------------------------------------------------------------
      Nesting function (q)=   0.189444E+01 [Adimensional]
     -------------------------------------------------------------------


     Number of (k,k+q) pairs on the Fermi surface:      216 out of      216


     iq =    15 coord.:   0.00000  0.33333  0.33333 wt:   0.00463
     -------------------------------------------------------------------
      Nesting function (q)=   0.394969E+00 [Adimensional]
     -------------------------------------------------------------------


     Number of (k,k+q) pairs on the Fermi surface:      216 out of      216


     iq =    16 coord.:   0.00000  0.33333  0.50000 wt:   0.00463
     -------------------------------------------------------------------
      Nesting function (q)=   0.255005E-02 [Adimensional]
     -------------------------------------------------------------------


     Number of (k,k+q) pairs on the Fermi surface:      216 out of      216


     iq =    17 coord.:   0.00000  0.33333  0.66667 wt:   0.00463
     -------------------------------------------------------------------
      Nesting function (q)=   0.930709E-01 [Adimensional]
     -------------------------------------------------------------------


     Number of (k,k+q) pairs on the Fermi surface:      216 out of      216


     iq =    18 coord.:   0.00000  0.33333  0.83333 wt:   0.00463
     -------------------------------------------------------------------
      Nesting function (q)=   0.770916E+00 [Adimensional]
     -------------------------------------------------------------------


     Number of (k,k+q) pairs on the Fermi surface:      216 out of      216


     iq =    19 coord.:   0.00000  0.50000  0.00000 wt:   0.00463
     -------------------------------------------------------------------
      Nesting function (q)=   0.952080E-01 [Adimensional]
     -------------------------------------------------------------------


     Number of (k,k+q) pairs on the Fermi surface:      216 out of      216


     iq =    20 coord.:   0.00000  0.50000  0.16667 wt:   0.00463
     -------------------------------------------------------------------
      Nesting function (q)=   0.203246E+00 [Adimensional]
     -------------------------------------------------------------------


     Number of (k,k+q) pairs on the Fermi surface:      216 out of      216


     iq =    21 coord.:   0.00000  0.50000  0.33333 wt:   0.00463
     -------------------------------------------------------------------
      Nesting function (q)=   0.255005E-02 [Adimensional]
     -------------------------------------------------------------------


     Number of (k,k+q) pairs on the Fermi surface:      216 out of      216


     iq =    22 coord.:   0.00000  0.50000  0.50000 wt:   0.00463
     -------------------------------------------------------------------
      Nesting function (q)=   0.161656E-04 [Adimensional]
     -------------------------------------------------------------------


     Number of (k,k+q) pairs on the Fermi surface:      216 out of      216


     iq =    23 coord.:   0.00000  0.50000  0.66667 wt:   0.00463
     -------------------------------------------------------------------
      Nesting function (q)=   0.255005E-02 [Adimensional]
     -------------------------------------------------------------------


     Number of (k,k+q) pairs on the Fermi surface:      216 out of      216


     iq =    24 coord.:   0.00000  0.50000  0.83333 wt:   0.00463
     -------------------------------------------------------------------
      Nesting function (q)=   0.203246E+00 [Adimensional]
     -------------------------------------------------------------------


     Number of (k,k+q) pairs on the Fermi surface:      216 out of      216


     iq =    25 coord.:   0.00000  0.66667  0.00000 wt:   0.00463
     -------------------------------------------------------------------
      Nesting function (q)=   0.183684E+01 [Adimensional]
     -------------------------------------------------------------------


     Number of (k,k+q) pairs on the Fermi surface:      216 out of      216


     iq =    26 coord.:   0.00000  0.66667  0.16667 wt:   0.00463
     -------------------------------------------------------------------
      Nesting function (q)=   0.770916E+00 [Adimensional]
     -------------------------------------------------------------------


     Number of (k,k+q) pairs on the Fermi surface:      216 out of      216


     iq =    27 coord.:   0.00000  0.66667  0.33333 wt:   0.00463
     -------------------------------------------------------------------
      Nesting function (q)=   0.930709E-01 [Adimensional]
     -------------------------------------------------------------------


     Number of (k,k+q) pairs on the Fermi surface:      216 out of      216


     iq =    28 coord.:   0.00000  0.66667  0.50000 wt:   0.00463
     -------------------------------------------------------------------
      Nesting function (q)=   0.255005E-02 [Adimensional]
     -------------------------------------------------------------------


     Number of (k,k+q) pairs on the Fermi surface:      216 out of      216


     iq =    29 coord.:   0.00000  0.66667  0.66667 wt:   0.00463
     -------------------------------------------------------------------
      Nesting function (q)=   0.394969E+00 [Adimensional]
     -------------------------------------------------------------------


     Number of (k,k+q) pairs on the Fermi surface:      216 out of      216


     iq =    30 coord.:   0.00000  0.66667  0.83333 wt:   0.00463
     -------------------------------------------------------------------
      Nesting function (q)=   0.189444E+01 [Adimensional]
     -------------------------------------------------------------------


     Number of (k,k+q) pairs on the Fermi surface:      216 out of      216


     iq =    31 coord.:   0.00000  0.83333  0.00000 wt:   0.00463
     -------------------------------------------------------------------
      Nesting function (q)=   0.825271E+01 [Adimensional]
     -------------------------------------------------------------------


     Number of (k,k+q) pairs on the Fermi surface:      216 out of      216


     iq =    32 coord.:   0.00000  0.83333  0.16667 wt:   0.00463
     -------------------------------------------------------------------
      Nesting function (q)=   0.453799E+01 [Adimensional]
     -------------------------------------------------------------------


     Number of (k,k+q) pairs on the Fermi surface:      216 out of      216


     iq =    33 coord.:   0.00000  0.83333  0.33333 wt:   0.00463
     -------------------------------------------------------------------
      Nesting function (q)=   0.770916E+00 [Adimensional]
     -------------------------------------------------------------------


     Number of (k,k+q) pairs on the Fermi surface:      216 out of      216


     iq =    34 coord.:   0.00000  0.83333  0.50000 wt:   0.00463
     -------------------------------------------------------------------
      Nesting function (q)=   0.203246E+00 [Adimensional]
     -------------------------------------------------------------------


     Number of (k,k+q) pairs on the Fermi surface:      216 out of      216


     iq =    35 coord.:   0.00000  0.83333  0.66667 wt:   0.00463
     -------------------------------------------------------------------
      Nesting function (q)=   0.189444E+01 [Adimensional]
     -------------------------------------------------------------------


     Number of (k,k+q) pairs on the Fermi surface:      216 out of      216


     iq =    36 coord.:   0.00000  0.83333  0.83333 wt:   0.00463
     -------------------------------------------------------------------
      Nesting function (q)=   0.692556E+01 [Adimensional]
     -------------------------------------------------------------------


     Number of (k,k+q) pairs on the Fermi surface:      216 out of      216


     iq =    37 coord.:   0.16667  0.00000  0.00000 wt:   0.00463
     -------------------------------------------------------------------
      Nesting function (q)=   0.825271E+01 [Adimensional]
     -------------------------------------------------------------------


     Number of (k,k+q) pairs on the Fermi surface:      216 out of      216


     iq =    38 coord.:   0.16667  0.00000  0.16667 wt:   0.00463
     -------------------------------------------------------------------
      Nesting function (q)=   0.692556E+01 [Adimensional]
     -------------------------------------------------------------------


     Number of (k,k+q) pairs on the Fermi surface:      216 out of      216


     iq =    39 coord.:   0.16667  0.00000  0.33333 wt:   0.00463
     -------------------------------------------------------------------
      Nesting function (q)=   0.189444E+01 [Adimensional]
     -------------------------------------------------------------------


     Number of (k,k+q) pairs on the Fermi surface:      216 out of      216


     iq =    40 coord.:   0.16667  0.00000  0.50000 wt:   0.00463
     -------------------------------------------------------------------
      Nesting function (q)=   0.203246E+00 [Adimensional]
     -------------------------------------------------------------------


     Number of (k,k+q) pairs on the Fermi surface:      216 out of      216


     iq =    41 coord.:   0.16667  0.00000  0.66667 wt:   0.00463
     -------------------------------------------------------------------
      Nesting function (q)=   0.770917E+00 [Adimensional]
     -------------------------------------------------------------------


     Number of (k,k+q) pairs on the Fermi surface:      216 out of      216


     iq =    42 coord.:   0.16667  0.00000  0.83333 wt:   0.00463
     -------------------------------------------------------------------
      Nesting function (q)=   0.453799E+01 [Adimensional]
     -------------------------------------------------------------------


     Number of (k,k+q) pairs on the Fermi surface:      216 out of      216


     iq =    43 coord.:   0.16667  0.16667  0.00000 wt:   0.00463
     -------------------------------------------------------------------
      Nesting function (q)=   0.692556E+01 [Adimensional]
     -------------------------------------------------------------------


     Number of (k,k+q) pairs on the Fermi surface:      216 out of      216


     iq =    44 coord.:   0.16667  0.16667  0.16667 wt:   0.00463
     -------------------------------------------------------------------
      Nesting function (q)=   0.825271E+01 [Adimensional]
     -------------------------------------------------------------------


     Number of (k,k+q) pairs on the Fermi surface:      216 out of      216


     iq =    45 coord.:   0.16667  0.16667  0.33333 wt:   0.00463
     -------------------------------------------------------------------
      Nesting function (q)=   0.453799E+01 [Adimensional]
     -------------------------------------------------------------------


     Number of (k,k+q) pairs on the Fermi surface:      216 out of      216


     iq =    46 coord.:   0.16667  0.16667  0.50000 wt:   0.00463
     -------------------------------------------------------------------
      Nesting function (q)=   0.770916E+00 [Adimensional]
     -------------------------------------------------------------------


     Number of (k,k+q) pairs on the Fermi surface:      216 out of      216


     iq =    47 coord.:   0.16667  0.16667  0.66667 wt:   0.00463
     -------------------------------------------------------------------
      Nesting function (q)=   0.203246E+00 [Adimensional]
     -------------------------------------------------------------------


     Number of (k,k+q) pairs on the Fermi surface:      216 out of      216


     iq =    48 coord.:   0.16667  0.16667  0.83333 wt:   0.00463
     -------------------------------------------------------------------
      Nesting function (q)=   0.189444E+01 [Adimensional]
     -------------------------------------------------------------------


     Number of (k,k+q) pairs on the Fermi surface:      216 out of      216


     iq =    49 coord.:   0.16667  0.33333  0.00000 wt:   0.00463
     -------------------------------------------------------------------
      Nesting function (q)=   0.189444E+01 [Adimensional]
     -------------------------------------------------------------------


     Number of (k,k+q) pairs on the Fermi surface:      216 out of      216


     iq =    50 coord.:   0.16667  0.33333  0.16667 wt:   0.00463
     -------------------------------------------------------------------
      Nesting function (q)=   0.453799E+01 [Adimensional]
     -------------------------------------------------------------------


     Number of (k,k+q) pairs on the Fermi surface:      216 out of      216


     iq =    51 coord.:   0.16667  0.33333  0.33333 wt:   0.00463
     -------------------------------------------------------------------
      Nesting function (q)=   0.189444E+01 [Adimensional]
     -------------------------------------------------------------------


     Number of (k,k+q) pairs on the Fermi surface:      216 out of      216


     iq =    52 coord.:   0.16667  0.33333  0.50000 wt:   0.00463
     -------------------------------------------------------------------
      Nesting function (q)=   0.129393E+00 [Adimensional]
     -------------------------------------------------------------------


     Number of (k,k+q) pairs on the Fermi surface:      216 out of      216


     iq =    53 coord.:   0.16667  0.33333  0.66667 wt:   0.00463
     -------------------------------------------------------------------
      Nesting function (q)=   0.244504E-02 [Adimensional]
     -------------------------------------------------------------------


     Number of (k,k+q) pairs on the Fermi surface:      216 out of      216


     iq =    54 coord.:   0.16667  0.33333  0.83333 wt:   0.00463
     -------------------------------------------------------------------
      Nesting function (q)=   0.129393E+00 [Adimensional]
     -------------------------------------------------------------------


     Number of (k,k+q) pairs on the Fermi surface:      216 out of      216


     iq =    55 coord.:   0.16667  0.50000  0.00000 wt:   0.00463
     -------------------------------------------------------------------
      Nesting function (q)=   0.203246E+00 [Adimensional]
     -------------------------------------------------------------------


     Number of (k,k+q) pairs on the Fermi surface:      216 out of      216


     iq =    56 coord.:   0.16667  0.50000  0.16667 wt:   0.00463
     -------------------------------------------------------------------
      Nesting function (q)=   0.770917E+00 [Adimensional]
     -------------------------------------------------------------------


     Number of (k,k+q) pairs on the Fermi surface:      216 out of      216


     iq =    57 coord.:   0.16667  0.50000  0.33333 wt:   0.00463
     -------------------------------------------------------------------
      Nesting function (q)=   0.129393E+00 [Adimensional]
     -------------------------------------------------------------------


     Number of (k,k+q) pairs on the Fermi surface:      216 out of      216


     iq =    58 coord.:   0.16667  0.50000  0.50000 wt:   0.00463
     -------------------------------------------------------------------
      Nesting function (q)=   0.255005E-02 [Adimensional]
     -------------------------------------------------------------------


     Number of (k,k+q) pairs on the Fermi surface:      216 out of      216


     iq =    59 coord.:   0.16667  0.50000  0.66667 wt:   0.00463
     -------------------------------------------------------------------
      Nesting function (q)=   0.150201E-04 [Adimensional]
     -------------------------------------------------------------------


     Number of (k,k+q) pairs on the Fermi surface:      216 out of      216


     iq =    60 coord.:   0.16667  0.50000  0.83333 wt:   0.00463
     -------------------------------------------------------------------
      Nesting function (q)=   0.244504E-02 [Adimensional]
     -------------------------------------------------------------------


     Number of (k,k+q) pairs on the Fermi surface:      216 out of      216


     iq =    61 coord.:   0.16667  0.66667  0.00000 wt:   0.00463
     -------------------------------------------------------------------
      Nesting function (q)=   0.770917E+00 [Adimensional]
     -------------------------------------------------------------------


     Number of (k,k+q) pairs on the Fermi surface:      216 out of      216


     iq =    62 coord.:   0.16667  0.66667  0.16667 wt:   0.00463
     -------------------------------------------------------------------
      Nesting function (q)=   0.203246E+00 [Adimensional]
     -------------------------------------------------------------------


     Number of (k,k+q) pairs on the Fermi surface:      216 out of      216


     iq =    63 coord.:   0.16667  0.66667  0.33333 wt:   0.00463
     -------------------------------------------------------------------
      Nesting function (q)=   0.244504E-02 [Adimensional]
     -------------------------------------------------------------------


     Number of (k,k+q) pairs on the Fermi surface:      216 out of      216


     iq =    64 coord.:   0.16667  0.66667  0.50000 wt:   0.00463
     -------------------------------------------------------------------
      Nesting function (q)=   0.150201E-04 [Adimensional]
     -------------------------------------------------------------------


     Number of (k,k+q) pairs on the Fermi surface:      216 out of      216


     iq =    65 coord.:   0.16667  0.66667  0.66667 wt:   0.00463
     -------------------------------------------------------------------
      Nesting function (q)=   0.255005E-02 [Adimensional]
     -------------------------------------------------------------------


     Number of (k,k+q) pairs on the Fermi surface:      216 out of      216


     iq =    66 coord.:   0.16667  0.66667  0.83333 wt:   0.00463
     -------------------------------------------------------------------
      Nesting function (q)=   0.129393E+00 [Adimensional]
     -------------------------------------------------------------------


     Number of (k,k+q) pairs on the Fermi surface:      216 out of      216


     iq =    67 coord.:   0.16667  0.83333  0.00000 wt:   0.00463
     -------------------------------------------------------------------
      Nesting function (q)=   0.453799E+01 [Adimensional]
     -------------------------------------------------------------------


     Number of (k,k+q) pairs on the Fermi surface:      216 out of      216


     iq =    68 coord.:   0.16667  0.83333  0.16667 wt:   0.00463
     -------------------------------------------------------------------
      Nesting function (q)=   0.189444E+01 [Adimensional]
     -------------------------------------------------------------------


     Number of (k,k+q) pairs on the Fermi surface:      216 out of      216


     iq =    69 coord.:   0.16667  0.83333  0.33333 wt:   0.00463
     -------------------------------------------------------------------
      Nesting function (q)=   0.129393E+00 [Adimensional]
     -------------------------------------------------------------------


     Number of (k,k+q) pairs on the Fermi surface:      216 out of      216


     iq =    70 coord.:   0.16667  0.83333  0.50000 wt:   0.00463
     -------------------------------------------------------------------
      Nesting function (q)=   0.244504E-02 [Adimensional]
     -------------------------------------------------------------------


     Number of (k,k+q) pairs on the Fermi surface:      216 out of      216


     iq =    71 coord.:   0.16667  0.83333  0.66667 wt:   0.00463
     -------------------------------------------------------------------
      Nesting function (q)=   0.129393E+00 [Adimensional]
     -------------------------------------------------------------------


     Number of (k,k+q) pairs on the Fermi surface:      216 out of      216


     iq =    72 coord.:   0.16667  0.83333  0.83333 wt:   0.00463
     -------------------------------------------------------------------
      Nesting function (q)=   0.189444E+01 [Adimensional]
     -------------------------------------------------------------------


     Number of (k,k+q) pairs on the Fermi surface:      216 out of      216


     iq =    73 coord.:   0.33333  0.00000  0.00000 wt:   0.00463
     -------------------------------------------------------------------
      Nesting function (q)=   0.183684E+01 [Adimensional]
     -------------------------------------------------------------------


     Number of (k,k+q) pairs on the Fermi surface:      216 out of      216


     iq =    74 coord.:   0.33333  0.00000  0.16667 wt:   0.00463
     -------------------------------------------------------------------
      Nesting function (q)=   0.189444E+01 [Adimensional]
     -------------------------------------------------------------------


     Number of (k,k+q) pairs on the Fermi surface:      216 out of      216


     iq =    75 coord.:   0.33333  0.00000  0.33333 wt:   0.00463
     -------------------------------------------------------------------
      Nesting function (q)=   0.394969E+00 [Adimensional]
     -------------------------------------------------------------------


     Number of (k,k+q) pairs on the Fermi surface:      216 out of      216


     iq =    76 coord.:   0.33333  0.00000  0.50000 wt:   0.00463
     -------------------------------------------------------------------
      Nesting function (q)=   0.255005E-02 [Adimensional]
     -------------------------------------------------------------------


     Number of (k,k+q) pairs on the Fermi surface:      216 out of      216


     iq =    77 coord.:   0.33333  0.00000  0.66667 wt:   0.00463
     -------------------------------------------------------------------
      Nesting function (q)=   0.930709E-01 [Adimensional]
     -------------------------------------------------------------------


     Number of (k,k+q) pairs on the Fermi surface:      216 out of      216


     iq =    78 coord.:   0.33333  0.00000  0.83333 wt:   0.00463
     -------------------------------------------------------------------
      Nesting function (q)=   0.770917E+00 [Adimensional]
     -------------------------------------------------------------------


     Number of (k,k+q) pairs on the Fermi surface:      216 out of      216


     iq =    79 coord.:   0.33333  0.16667  0.00000 wt:   0.00463
     -------------------------------------------------------------------
      Nesting function (q)=   0.189444E+01 [Adimensional]
     -------------------------------------------------------------------


     Number of (k,k+q) pairs on the Fermi surface:      216 out of      216


     iq =    80 coord.:   0.33333  0.16667  0.16667 wt:   0.00463
     -------------------------------------------------------------------
      Nesting function (q)=   0.453799E+01 [Adimensional]
     -------------------------------------------------------------------


     Number of (k,k+q) pairs on the Fermi surface:      216 out of      216


     iq =    81 coord.:   0.33333  0.16667  0.33333 wt:   0.00463
     -------------------------------------------------------------------
      Nesting function (q)=   0.189444E+01 [Adimensional]
     -------------------------------------------------------------------


     Number of (k,k+q) pairs on the Fermi surface:      216 out of      216


     iq =    82 coord.:   0.33333  0.16667  0.50000 wt:   0.00463
     -------------------------------------------------------------------
      Nesting function (q)=   0.129393E+00 [Adimensional]
     -------------------------------------------------------------------


     Number of (k,k+q) pairs on the Fermi surface:      216 out of      216


     iq =    83 coord.:   0.33333  0.16667  0.66667 wt:   0.00463
     -------------------------------------------------------------------
      Nesting function (q)=   0.244504E-02 [Adimensional]
     -------------------------------------------------------------------


     Number of (k,k+q) pairs on the Fermi surface:      216 out of      216


     iq =    84 coord.:   0.33333  0.16667  0.83333 wt:   0.00463
     -------------------------------------------------------------------
      Nesting function (q)=   0.129393E+00 [Adimensional]
     -------------------------------------------------------------------


     Number of (k,k+q) pairs on the Fermi surface:      216 out of      216


     iq =    85 coord.:   0.33333  0.33333  0.00000 wt:   0.00463
     -------------------------------------------------------------------
      Nesting function (q)=   0.394969E+00 [Adimensional]
     -------------------------------------------------------------------


     Number of (k,k+q) pairs on the Fermi surface:      216 out of      216


     iq =    86 coord.:   0.33333  0.33333  0.16667 wt:   0.00463
     -------------------------------------------------------------------
      Nesting function (q)=   0.189444E+01 [Adimensional]
     -------------------------------------------------------------------


     Number of (k,k+q) pairs on the Fermi surface:      216 out of      216


     iq =    87 coord.:   0.33333  0.33333  0.33333 wt:   0.00463
     -------------------------------------------------------------------
      Nesting function (q)=   0.183684E+01 [Adimensional]
     -------------------------------------------------------------------


     Number of (k,k+q) pairs on the Fermi surface:      216 out of      216


     iq =    88 coord.:   0.33333  0.33333  0.50000 wt:   0.00463
     -------------------------------------------------------------------
      Nesting function (q)=   0.770916E+00 [Adimensional]
     -------------------------------------------------------------------


     Number of (k,k+q) pairs on the Fermi surface:      216 out of      216


     iq =    89 coord.:   0.33333  0.33333  0.66667 wt:   0.00463
     -------------------------------------------------------------------
      Nesting function (q)=   0.930709E-01 [Adimensional]
     -------------------------------------------------------------------


     Number of (k,k+q) pairs on the Fermi surface:      216 out of      216


     iq =    90 coord.:   0.33333  0.33333  0.83333 wt:   0.00463
     -------------------------------------------------------------------
      Nesting function (q)=   0.255005E-02 [Adimensional]
     -------------------------------------------------------------------


     Number of (k,k+q) pairs on the Fermi surface:      216 out of      216


     iq =    91 coord.:   0.33333  0.50000  0.00000 wt:   0.00463
     -------------------------------------------------------------------
      Nesting function (q)=   0.255005E-02 [Adimensional]
     -------------------------------------------------------------------


     Number of (k,k+q) pairs on the Fermi surface:      216 out of      216


     iq =    92 coord.:   0.33333  0.50000  0.16667 wt:   0.00463
     -------------------------------------------------------------------
      Nesting function (q)=   0.129393E+00 [Adimensional]
     -------------------------------------------------------------------


     Number of (k,k+q) pairs on the Fermi surface:      216 out of      216


     iq =    93 coord.:   0.33333  0.50000  0.33333 wt:   0.00463
     -------------------------------------------------------------------
      Nesting function (q)=   0.770916E+00 [Adimensional]
     -------------------------------------------------------------------


     Number of (k,k+q) pairs on the Fermi surface:      216 out of      216


     iq =    94 coord.:   0.33333  0.50000  0.50000 wt:   0.00463
     -------------------------------------------------------------------
      Nesting function (q)=   0.203246E+00 [Adimensional]
     -------------------------------------------------------------------


     Number of (k,k+q) pairs on the Fermi surface:      216 out of      216


     iq =    95 coord.:   0.33333  0.50000  0.66667 wt:   0.00463
     -------------------------------------------------------------------
      Nesting function (q)=   0.244504E-02 [Adimensional]
     -------------------------------------------------------------------


     Number of (k,k+q) pairs on the Fermi surface:      216 out of      216


     iq =    96 coord.:   0.33333  0.50000  0.83333 wt:   0.00463
     -------------------------------------------------------------------
      Nesting function (q)=   0.150201E-04 [Adimensional]
     -------------------------------------------------------------------


     Number of (k,k+q) pairs on the Fermi surface:      216 out of      216


     iq =    97 coord.:   0.33333  0.66667  0.00000 wt:   0.00463
     -------------------------------------------------------------------
      Nesting function (q)=   0.930709E-01 [Adimensional]
     -------------------------------------------------------------------


     Number of (k,k+q) pairs on the Fermi surface:      216 out of      216


     iq =    98 coord.:   0.33333  0.66667  0.16667 wt:   0.00463
     -------------------------------------------------------------------
      Nesting function (q)=   0.244504E-02 [Adimensional]
     -------------------------------------------------------------------


     Number of (k,k+q) pairs on the Fermi surface:      216 out of      216


     iq =    99 coord.:   0.33333  0.66667  0.33333 wt:   0.00463
     -------------------------------------------------------------------
      Nesting function (q)=   0.930709E-01 [Adimensional]
     -------------------------------------------------------------------


     Number of (k,k+q) pairs on the Fermi surface:      216 out of      216


     iq =   100 coord.:   0.33333  0.66667  0.50000 wt:   0.00463
     -------------------------------------------------------------------
      Nesting function (q)=   0.244504E-02 [Adimensional]
     -------------------------------------------------------------------


     Number of (k,k+q) pairs on the Fermi surface:      216 out of      216


     iq =   101 coord.:   0.33333  0.66667  0.66667 wt:   0.00463
     -------------------------------------------------------------------
      Nesting function (q)=   0.930709E-01 [Adimensional]
     -------------------------------------------------------------------


     Number of (k,k+q) pairs on the Fermi surface:      216 out of      216


     iq =   102 coord.:   0.33333  0.66667  0.83333 wt:   0.00463
     -------------------------------------------------------------------
      Nesting function (q)=   0.244504E-02 [Adimensional]
     -------------------------------------------------------------------


     Number of (k,k+q) pairs on the Fermi surface:      216 out of      216


     iq =   103 coord.:   0.33333  0.83333  0.00000 wt:   0.00463
     -------------------------------------------------------------------
      Nesting function (q)=   0.770917E+00 [Adimensional]
     -------------------------------------------------------------------


     Number of (k,k+q) pairs on the Fermi surface:      216 out of      216


     iq =   104 coord.:   0.33333  0.83333  0.16667 wt:   0.00463
     -------------------------------------------------------------------
      Nesting function (q)=   0.129393E+00 [Adimensional]
     -------------------------------------------------------------------


     Number of (k,k+q) pairs on the Fermi surface:      216 out of      216


     iq =   105 coord.:   0.33333  0.83333  0.33333 wt:   0.00463
     -------------------------------------------------------------------
      Nesting function (q)=   0.255005E-02 [Adimensional]
     -------------------------------------------------------------------


     Number of (k,k+q) pairs on the Fermi surface:      216 out of      216


     iq =   106 coord.:   0.33333  0.83333  0.50000 wt:   0.00463
     -------------------------------------------------------------------
      Nesting function (q)=   0.150201E-04 [Adimensional]
     -------------------------------------------------------------------


     Number of (k,k+q) pairs on the Fermi surface:      216 out of      216


     iq =   107 coord.:   0.33333  0.83333  0.66667 wt:   0.00463
     -------------------------------------------------------------------
      Nesting function (q)=   0.244504E-02 [Adimensional]
     -------------------------------------------------------------------


     Number of (k,k+q) pairs on the Fermi surface:      216 out of      216


     iq =   108 coord.:   0.33333  0.83333  0.83333 wt:   0.00463
     -------------------------------------------------------------------
      Nesting function (q)=   0.203246E+00 [Adimensional]
     -------------------------------------------------------------------


     Number of (k,k+q) pairs on the Fermi surface:      216 out of      216


     iq =   109 coord.:   0.50000  0.00000  0.00000 wt:   0.00463
     -------------------------------------------------------------------
      Nesting function (q)=   0.952080E-01 [Adimensional]
     -------------------------------------------------------------------


     Number of (k,k+q) pairs on the Fermi surface:      216 out of      216


     iq =   110 coord.:   0.50000  0.00000  0.16667 wt:   0.00463
     -------------------------------------------------------------------
      Nesting function (q)=   0.203246E+00 [Adimensional]
     -------------------------------------------------------------------


     Number of (k,k+q) pairs on the Fermi surface:      216 out of      216


     iq =   111 coord.:   0.50000  0.00000  0.33333 wt:   0.00463
     -------------------------------------------------------------------
      Nesting function (q)=   0.255005E-02 [Adimensional]
     -------------------------------------------------------------------


     Number of (k,k+q) pairs on the Fermi surface:      216 out of      216


     iq =   112 coord.:   0.50000  0.00000  0.50000 wt:   0.00463
     -------------------------------------------------------------------
      Nesting function (q)=   0.161656E-04 [Adimensional]
     -------------------------------------------------------------------


     Number of (k,k+q) pairs on the Fermi surface:      216 out of      216


     iq =   113 coord.:   0.50000  0.00000  0.66667 wt:   0.00463
     -------------------------------------------------------------------
      Nesting function (q)=   0.255005E-02 [Adimensional]
     -------------------------------------------------------------------


     Number of (k,k+q) pairs on the Fermi surface:      216 out of      216


     iq =   114 coord.:   0.50000  0.00000  0.83333 wt:   0.00463
     -------------------------------------------------------------------
      Nesting function (q)=   0.203246E+00 [Adimensional]
     -------------------------------------------------------------------


     Number of (k,k+q) pairs on the Fermi surface:      216 out of      216


     iq =   115 coord.:   0.50000  0.16667  0.00000 wt:   0.00463
     -------------------------------------------------------------------
      Nesting function (q)=   0.203246E+00 [Adimensional]
     -------------------------------------------------------------------


     Number of (k,k+q) pairs on the Fermi surface:      216 out of      216


     iq =   116 coord.:   0.50000  0.16667  0.16667 wt:   0.00463
     -------------------------------------------------------------------
      Nesting function (q)=   0.770917E+00 [Adimensional]
     -------------------------------------------------------------------


     Number of (k,k+q) pairs on the Fermi surface:      216 out of      216


     iq =   117 coord.:   0.50000  0.16667  0.33333 wt:   0.00463
     -------------------------------------------------------------------
      Nesting function (q)=   0.129393E+00 [Adimensional]
     -------------------------------------------------------------------


     Number of (k,k+q) pairs on the Fermi surface:      216 out of      216


     iq =   118 coord.:   0.50000  0.16667  0.50000 wt:   0.00463
     -------------------------------------------------------------------
      Nesting function (q)=   0.255005E-02 [Adimensional]
     -------------------------------------------------------------------


     Number of (k,k+q) pairs on the Fermi surface:      216 out of      216


     iq =   119 coord.:   0.50000  0.16667  0.66667 wt:   0.00463
     -------------------------------------------------------------------
      Nesting function (q)=   0.150201E-04 [Adimensional]
     -------------------------------------------------------------------


     Number of (k,k+q) pairs on the Fermi surface:      216 out of      216


     iq =   120 coord.:   0.50000  0.16667  0.83333 wt:   0.00463
     -------------------------------------------------------------------
      Nesting function (q)=   0.244504E-02 [Adimensional]
     -------------------------------------------------------------------


     Number of (k,k+q) pairs on the Fermi surface:      216 out of      216


     iq =   121 coord.:   0.50000  0.33333  0.00000 wt:   0.00463
     -------------------------------------------------------------------
      Nesting function (q)=   0.255005E-02 [Adimensional]
     -------------------------------------------------------------------


     Number of (k,k+q) pairs on the Fermi surface:      216 out of      216


     iq =   122 coord.:   0.50000  0.33333  0.16667 wt:   0.00463
     -------------------------------------------------------------------
      Nesting function (q)=   0.129393E+00 [Adimensional]
     -------------------------------------------------------------------


     Number of (k,k+q) pairs on the Fermi surface:      216 out of      216


     iq =   123 coord.:   0.50000  0.33333  0.33333 wt:   0.00463
     -------------------------------------------------------------------
      Nesting function (q)=   0.770916E+00 [Adimensional]
     -------------------------------------------------------------------


     Number of (k,k+q) pairs on the Fermi surface:      216 out of      216


     iq =   124 coord.:   0.50000  0.33333  0.50000 wt:   0.00463
     -------------------------------------------------------------------
      Nesting function (q)=   0.203246E+00 [Adimensional]
     -------------------------------------------------------------------


     Number of (k,k+q) pairs on the Fermi surface:      216 out of      216


     iq =   125 coord.:   0.50000  0.33333  0.66667 wt:   0.00463
     -------------------------------------------------------------------
      Nesting function (q)=   0.244504E-02 [Adimensional]
     -------------------------------------------------------------------


     Number of (k,k+q) pairs on the Fermi surface:      216 out of      216


     iq =   126 coord.:   0.50000  0.33333  0.83333 wt:   0.00463
     -------------------------------------------------------------------
      Nesting function (q)=   0.150201E-04 [Adimensional]
     -------------------------------------------------------------------


     Number of (k,k+q) pairs on the Fermi surface:      216 out of      216


     iq =   127 coord.:   0.50000  0.50000  0.00000 wt:   0.00463
     -------------------------------------------------------------------
      Nesting function (q)=   0.161656E-04 [Adimensional]
     -------------------------------------------------------------------


     Number of (k,k+q) pairs on the Fermi surface:      216 out of      216


     iq =   128 coord.:   0.50000  0.50000  0.16667 wt:   0.00463
     -------------------------------------------------------------------
      Nesting function (q)=   0.255005E-02 [Adimensional]
     -------------------------------------------------------------------


     Number of (k,k+q) pairs on the Fermi surface:      216 out of      216


     iq =   129 coord.:   0.50000  0.50000  0.33333 wt:   0.00463
     -------------------------------------------------------------------
      Nesting function (q)=   0.203246E+00 [Adimensional]
     -------------------------------------------------------------------


     Number of (k,k+q) pairs on the Fermi surface:      216 out of      216


     iq =   130 coord.:   0.50000  0.50000  0.50000 wt:   0.00463
     -------------------------------------------------------------------
      Nesting function (q)=   0.952080E-01 [Adimensional]
     -------------------------------------------------------------------


     Number of (k,k+q) pairs on the Fermi surface:      216 out of      216


     iq =   131 coord.:   0.50000  0.50000  0.66667 wt:   0.00463
     -------------------------------------------------------------------
      Nesting function (q)=   0.203246E+00 [Adimensional]
     -------------------------------------------------------------------


     Number of (k,k+q) pairs on the Fermi surface:      216 out of      216


     iq =   132 coord.:   0.50000  0.50000  0.83333 wt:   0.00463
     -------------------------------------------------------------------
      Nesting function (q)=   0.255005E-02 [Adimensional]
     -------------------------------------------------------------------


     Number of (k,k+q) pairs on the Fermi surface:      216 out of      216


     iq =   133 coord.:   0.50000  0.66667  0.00000 wt:   0.00463
     -------------------------------------------------------------------
      Nesting function (q)=   0.255005E-02 [Adimensional]
     -------------------------------------------------------------------


     Number of (k,k+q) pairs on the Fermi surface:      216 out of      216


     iq =   134 coord.:   0.50000  0.66667  0.16667 wt:   0.00463
     -------------------------------------------------------------------
      Nesting function (q)=   0.150201E-04 [Adimensional]
     -------------------------------------------------------------------


     Number of (k,k+q) pairs on the Fermi surface:      216 out of      216


     iq =   135 coord.:   0.50000  0.66667  0.33333 wt:   0.00463
     -------------------------------------------------------------------
      Nesting function (q)=   0.244504E-02 [Adimensional]
     -------------------------------------------------------------------


     Number of (k,k+q) pairs on the Fermi surface:      216 out of      216


     iq =   136 coord.:   0.50000  0.66667  0.50000 wt:   0.00463
     -------------------------------------------------------------------
      Nesting function (q)=   0.203246E+00 [Adimensional]
     -------------------------------------------------------------------


     Number of (k,k+q) pairs on the Fermi surface:      216 out of      216


     iq =   137 coord.:   0.50000  0.66667  0.66667 wt:   0.00463
     -------------------------------------------------------------------
      Nesting function (q)=   0.770916E+00 [Adimensional]
     -------------------------------------------------------------------


     Number of (k,k+q) pairs on the Fermi surface:      216 out of      216


     iq =   138 coord.:   0.50000  0.66667  0.83333 wt:   0.00463
     -------------------------------------------------------------------
      Nesting function (q)=   0.129393E+00 [Adimensional]
     -------------------------------------------------------------------


     Number of (k,k+q) pairs on the Fermi surface:      216 out of      216


     iq =   139 coord.:   0.50000  0.83333  0.00000 wt:   0.00463
     -------------------------------------------------------------------
      Nesting function (q)=   0.203246E+00 [Adimensional]
     -------------------------------------------------------------------


     Number of (k,k+q) pairs on the Fermi surface:      216 out of      216


     iq =   140 coord.:   0.50000  0.83333  0.16667 wt:   0.00463
     -------------------------------------------------------------------
      Nesting function (q)=   0.244504E-02 [Adimensional]
     -------------------------------------------------------------------


     Number of (k,k+q) pairs on the Fermi surface:      216 out of      216


     iq =   141 coord.:   0.50000  0.83333  0.33333 wt:   0.00463
     -------------------------------------------------------------------
      Nesting function (q)=   0.150201E-04 [Adimensional]
     -------------------------------------------------------------------


     Number of (k,k+q) pairs on the Fermi surface:      216 out of      216


     iq =   142 coord.:   0.50000  0.83333  0.50000 wt:   0.00463
     -------------------------------------------------------------------
      Nesting function (q)=   0.255005E-02 [Adimensional]
     -------------------------------------------------------------------


     Number of (k,k+q) pairs on the Fermi surface:      216 out of      216


     iq =   143 coord.:   0.50000  0.83333  0.66667 wt:   0.00463
     -------------------------------------------------------------------
      Nesting function (q)=   0.129393E+00 [Adimensional]
     -------------------------------------------------------------------


     Number of (k,k+q) pairs on the Fermi surface:      216 out of      216


     iq =   144 coord.:   0.50000  0.83333  0.83333 wt:   0.00463
     -------------------------------------------------------------------
      Nesting function (q)=   0.770917E+00 [Adimensional]
     -------------------------------------------------------------------


     Number of (k,k+q) pairs on the Fermi surface:      216 out of      216


     iq =   145 coord.:   0.66667  0.00000  0.00000 wt:   0.00463
     -------------------------------------------------------------------
      Nesting function (q)=   0.183684E+01 [Adimensional]
     -------------------------------------------------------------------


     Number of (k,k+q) pairs on the Fermi surface:      216 out of      216


     iq =   146 coord.:   0.66667  0.00000  0.16667 wt:   0.00463
     -------------------------------------------------------------------
      Nesting function (q)=   0.770917E+00 [Adimensional]
     -------------------------------------------------------------------


     Number of (k,k+q) pairs on the Fermi surface:      216 out of      216


     iq =   147 coord.:   0.66667  0.00000  0.33333 wt:   0.00463
     -------------------------------------------------------------------
      Nesting function (q)=   0.930709E-01 [Adimensional]
     -------------------------------------------------------------------


     Number of (k,k+q) pairs on the Fermi surface:      216 out of      216


     iq =   148 coord.:   0.66667  0.00000  0.50000 wt:   0.00463
     -------------------------------------------------------------------
      Nesting function (q)=   0.255005E-02 [Adimensional]
     -------------------------------------------------------------------


     Number of (k,k+q) pairs on the Fermi surface:      216 out of      216


     iq =   149 coord.:   0.66667  0.00000  0.66667 wt:   0.00463
     -------------------------------------------------------------------
      Nesting function (q)=   0.394969E+00 [Adimensional]
     -------------------------------------------------------------------


     Number of (k,k+q) pairs on the Fermi surface:      216 out of      216


     iq =   150 coord.:   0.66667  0.00000  0.83333 wt:   0.00463
     -------------------------------------------------------------------
      Nesting function (q)=   0.189444E+01 [Adimensional]
     -------------------------------------------------------------------


     Number of (k,k+q) pairs on the Fermi surface:      216 out of      216


     iq =   151 coord.:   0.66667  0.16667  0.00000 wt:   0.00463
     -------------------------------------------------------------------
      Nesting function (q)=   0.770917E+00 [Adimensional]
     -------------------------------------------------------------------


     Number of (k,k+q) pairs on the Fermi surface:      216 out of      216


     iq =   152 coord.:   0.66667  0.16667  0.16667 wt:   0.00463
     -------------------------------------------------------------------
      Nesting function (q)=   0.203246E+00 [Adimensional]
     -------------------------------------------------------------------


     Number of (k,k+q) pairs on the Fermi surface:      216 out of      216


     iq =   153 coord.:   0.66667  0.16667  0.33333 wt:   0.00463
     -------------------------------------------------------------------
      Nesting function (q)=   0.244504E-02 [Adimensional]
     -------------------------------------------------------------------


     Number of (k,k+q) pairs on the Fermi surface:      216 out of      216


     iq =   154 coord.:   0.66667  0.16667  0.50000 wt:   0.00463
     -------------------------------------------------------------------
      Nesting function (q)=   0.150201E-04 [Adimensional]
     -------------------------------------------------------------------


     Number of (k,k+q) pairs on the Fermi surface:      216 out of      216


     iq =   155 coord.:   0.66667  0.16667  0.66667 wt:   0.00463
     -------------------------------------------------------------------
      Nesting function (q)=   0.255005E-02 [Adimensional]
     -------------------------------------------------------------------


     Number of (k,k+q) pairs on the Fermi surface:      216 out of      216


     iq =   156 coord.:   0.66667  0.16667  0.83333 wt:   0.00463
     -------------------------------------------------------------------
      Nesting function (q)=   0.129393E+00 [Adimensional]
     -------------------------------------------------------------------


     Number of (k,k+q) pairs on the Fermi surface:      216 out of      216


     iq =   157 coord.:   0.66667  0.33333  0.00000 wt:   0.00463
     -------------------------------------------------------------------
      Nesting function (q)=   0.930709E-01 [Adimensional]
     -------------------------------------------------------------------


     Number of (k,k+q) pairs on the Fermi surface:      216 out of      216


     iq =   158 coord.:   0.66667  0.33333  0.16667 wt:   0.00463
     -------------------------------------------------------------------
      Nesting function (q)=   0.244504E-02 [Adimensional]
     -------------------------------------------------------------------


     Number of (k,k+q) pairs on the Fermi surface:      216 out of      216


     iq =   159 coord.:   0.66667  0.33333  0.33333 wt:   0.00463
     -------------------------------------------------------------------
      Nesting function (q)=   0.930709E-01 [Adimensional]
     -------------------------------------------------------------------


     Number of (k,k+q) pairs on the Fermi surface:      216 out of      216


     iq =   160 coord.:   0.66667  0.33333  0.50000 wt:   0.00463
     -------------------------------------------------------------------
      Nesting function (q)=   0.244504E-02 [Adimensional]
     -------------------------------------------------------------------


     Number of (k,k+q) pairs on the Fermi surface:      216 out of      216


     iq =   161 coord.:   0.66667  0.33333  0.66667 wt:   0.00463
     -------------------------------------------------------------------
      Nesting function (q)=   0.930709E-01 [Adimensional]
     -------------------------------------------------------------------


     Number of (k,k+q) pairs on the Fermi surface:      216 out of      216


     iq =   162 coord.:   0.66667  0.33333  0.83333 wt:   0.00463
     -------------------------------------------------------------------
      Nesting function (q)=   0.244504E-02 [Adimensional]
     -------------------------------------------------------------------


     Number of (k,k+q) pairs on the Fermi surface:      216 out of      216


     iq =   163 coord.:   0.66667  0.50000  0.00000 wt:   0.00463
     -------------------------------------------------------------------
      Nesting function (q)=   0.255005E-02 [Adimensional]
     -------------------------------------------------------------------


     Number of (k,k+q) pairs on the Fermi surface:      216 out of      216


     iq =   164 coord.:   0.66667  0.50000  0.16667 wt:   0.00463
     -------------------------------------------------------------------
      Nesting function (q)=   0.150201E-04 [Adimensional]
     -------------------------------------------------------------------


     Number of (k,k+q) pairs on the Fermi surface:      216 out of      216


     iq =   165 coord.:   0.66667  0.50000  0.33333 wt:   0.00463
     -------------------------------------------------------------------
      Nesting function (q)=   0.244504E-02 [Adimensional]
     -------------------------------------------------------------------


     Number of (k,k+q) pairs on the Fermi surface:      216 out of      216


     iq =   166 coord.:   0.66667  0.50000  0.50000 wt:   0.00463
     -------------------------------------------------------------------
      Nesting function (q)=   0.203246E+00 [Adimensional]
     -------------------------------------------------------------------


     Number of (k,k+q) pairs on the Fermi surface:      216 out of      216


     iq =   167 coord.:   0.66667  0.50000  0.66667 wt:   0.00463
     -------------------------------------------------------------------
      Nesting function (q)=   0.770916E+00 [Adimensional]
     -------------------------------------------------------------------


     Number of (k,k+q) pairs on the Fermi surface:      216 out of      216


     iq =   168 coord.:   0.66667  0.50000  0.83333 wt:   0.00463
     -------------------------------------------------------------------
      Nesting function (q)=   0.129393E+00 [Adimensional]
     -------------------------------------------------------------------


     Number of (k,k+q) pairs on the Fermi surface:      216 out of      216


     iq =   169 coord.:   0.66667  0.66667  0.00000 wt:   0.00463
     -------------------------------------------------------------------
      Nesting function (q)=   0.394969E+00 [Adimensional]
     -------------------------------------------------------------------


     Number of (k,k+q) pairs on the Fermi surface:      216 out of      216


     iq =   170 coord.:   0.66667  0.66667  0.16667 wt:   0.00463
     -------------------------------------------------------------------
      Nesting function (q)=   0.255005E-02 [Adimensional]
     -------------------------------------------------------------------


     Number of (k,k+q) pairs on the Fermi surface:      216 out of      216


     iq =   171 coord.:   0.66667  0.66667  0.33333 wt:   0.00463
     -------------------------------------------------------------------
      Nesting function (q)=   0.930709E-01 [Adimensional]
[...]
      204        4       -2.6593       -2.1579       -9.7884      106.9599
      204        4       -2.6593       -1.8947       -5.4606       97.4698
      204        4       -2.6593       -1.6316       -2.9424       88.6377
      204        4       -2.6593       -1.3684       -1.5927       80.7751
      204        4       -2.6593       -1.1053       -0.6034       73.8869
      204        4       -2.6593       -0.8421        0.6039       67.3110
      204        4       -2.6593       -0.5789        1.7687       60.1857
      204        4       -2.6593       -0.3158        1.9285       52.3303
      204        4       -2.6593       -0.0526        0.4643       44.5858
      204        4       -2.6593        0.2105       -2.2190       37.8210
      204        4       -2.6593        0.4737       -5.4162       32.1480
      204        4       -2.6593        0.7368       -8.8262       27.3100
      204        4       -2.6593        1.0000      -12.4024       23.2020
      205        4       -2.6027       -4.0000      -74.6251      137.8072
      205        4       -2.6027       -3.7368      -66.6062      138.6072
      205        4       -2.6027       -3.4737      -58.0155      138.8435
      205        4       -2.6027       -3.2105      -48.4106      138.4065
      205        4       -2.6027       -2.9474      -37.3681      136.4069
      205        4       -2.6027       -2.6842      -25.6313      131.2607
      205        4       -2.6027       -2.4211      -15.5361      122.6822
      205        4       -2.6027       -2.1579       -8.5343      112.4877
      205        4       -2.6027       -1.8947       -4.2147      102.3748
      205        4       -2.6027       -1.6316       -1.7300       92.9862
      205        4       -2.6027       -1.3684       -0.4334       84.5775
      205        4       -2.6027       -1.1053        0.4434       77.1449
      205        4       -2.6027       -0.8421        1.4628       70.0586
      205        4       -2.6027       -0.5789        2.3824       62.4875
      205        4       -2.6027       -0.3158        2.2707       54.2552
      205        4       -2.6027       -0.0526        0.5226       46.1891
      205        4       -2.6027        0.2105       -2.4569       39.1552
      205        4       -2.6027        0.4737       -5.9548       33.2720
      205        4       -2.6027        0.7368       -9.6517       28.2825
      205        4       -2.6027        1.0000      -13.4853       24.0674
      206        4       -3.9563       -4.0000      -62.4552      115.5191
      206        4       -3.9563       -3.7368      -55.9060      116.4163
      206        4       -3.9563       -3.4737      -48.7391      116.8422
      206        4       -3.9563       -3.2105      -40.6311      116.6342
      206        4       -3.9563       -2.9474      -31.2875      115.0380
      206        4       -3.9563       -2.6842      -21.3612      110.7420
      206        4       -3.9563       -2.4211      -12.8291      103.5166
      206        4       -3.9563       -2.1579       -6.9258       94.9024
      206        4       -3.9563       -1.8947       -3.3124       86.3433
      206        4       -3.9563       -1.6316       -1.2828       78.4008
      206        4       -3.9563       -1.3684       -0.2773       71.3233
      206        4       -3.9563       -1.1053        0.3951       65.1116
      206        4       -3.9563       -0.8421        1.2321       59.2004
      206        4       -3.9563       -0.5789        2.0140       52.8550
      206        4       -3.9563       -0.3158        1.9240       45.9253
      206        4       -3.9563       -0.0526        0.4425       39.1302
      206        4       -3.9563        0.2105       -2.0768       33.2091
      206        4       -3.9563        0.4737       -5.0249       28.2544
      206        4       -3.9563        0.7368       -8.1379       24.0407
      206        4       -3.9563        1.0000      -11.3733       20.4693
      207        4       -5.2565       -4.0000      -54.2198      100.2521
      207        4       -5.2565       -3.7368      -48.4286      101.1223
      207        4       -5.2565       -3.4737      -42.1423      101.4580
      207        4       -5.2565       -3.2105      -35.1469      101.2099
      207        4       -5.2565       -2.9474      -27.1468       99.8151
      207        4       -5.2565       -2.6842      -18.6316       96.1436
      207        4       -5.2565       -2.4211      -11.2880       89.9550
      207        4       -5.2565       -2.1579       -6.1951       82.5655
      207        4       -5.2565       -1.8947       -3.0571       75.2201
      207        4       -5.2565       -1.6316       -1.2660       68.3869
      207        4       -5.2565       -1.3684       -0.3575       62.2751
      207        4       -5.2565       -1.1053        0.2564       56.8982
      207        4       -5.2565       -0.8421        1.0131       51.7727
      207        4       -5.2565       -0.5789        1.7237       46.2544
      207        4       -5.2565       -0.3158        1.6671       40.2106
      207        4       -5.2565       -0.0526        0.3851       34.2775
      207        4       -5.2565        0.2105       -1.8095       29.1073
      207        4       -5.2565        0.4737       -4.3796       24.7798
      207        4       -5.2565        0.7368       -7.0954       21.0950
      207        4       -5.2565        1.0000       -9.9228       17.9672
      208        4       -3.9563       -4.0000      -63.2244      116.4544
      208        4       -3.9563       -3.7368      -56.6470      117.3192
      208        4       -3.9563       -3.4737      -49.5023      117.7477
      208        4       -3.9563       -3.2105      -41.4148      117.6291
      208        4       -3.9563       -2.9474      -31.9960      116.1854
      208        4       -3.9563       -2.6842      -21.8685      111.9944
      208        4       -3.9563       -2.4211      -13.0930      104.7438
      208        4       -3.9563       -2.1579       -7.0048       96.0000
      208        4       -3.9563       -1.8947       -3.2935       87.2796
      208        4       -3.9563       -1.6316       -1.2303       79.1930
      208        4       -3.9563       -1.3684       -0.2227       72.0038
      208        4       -3.9563       -1.1053        0.4451       65.7067
      208        4       -3.9563       -0.8421        1.2794       59.7216
      208        4       -3.9563       -0.5789        2.0569       53.3041
      208        4       -3.9563       -0.3158        1.9539       46.3031
      208        4       -3.9563       -0.0526        0.4484       39.4434
      208        4       -3.9563        0.2105       -2.1024       33.4690
      208        4       -3.9563        0.4737       -5.0839       28.4726
      208        4       -3.9563        0.7368       -8.2288       24.2262
      208        4       -3.9563        1.0000      -11.4938       20.6281
      209        4       -2.6027       -4.0000      -75.1978      138.4728
      209        4       -2.6027       -3.7368      -67.0900      139.2721
      209        4       -2.6027       -3.4737      -58.4219      139.4871
      209        4       -2.6027       -3.2105      -48.7516      139.0212
      209        4       -2.6027       -2.9474      -37.6443      136.9855
      209        4       -2.6027       -2.6842      -25.8443      131.7796
      209        4       -2.6027       -2.4211      -15.7124      123.1096
      209        4       -2.6027       -2.1579       -8.7279      112.8117
      209        4       -2.6027       -1.8947       -4.4897      102.6240
      209        4       -2.6027       -1.6316       -2.1259       93.2415
      209        4       -2.6027       -1.3684       -0.9122       84.9441
      209        4       -2.6027       -1.1053        0.0008       77.6651
      209        4       -2.6027       -0.8421        1.1631       70.6643
      209        4       -2.6027       -0.5789        2.2387       63.0681
      209        4       -2.6027       -0.3158        2.2275       54.7443
      209        4       -2.6027       -0.0526        0.5199       46.5757
      209        4       -2.6027        0.2105       -2.4577       39.4547
      209        4       -2.6027        0.4737       -5.9727       33.5049
      209        4       -2.6027        0.7368       -9.6939       28.4669
      209        4       -2.6027        1.0000      -13.5527       24.2165
      210        4       -0.9512       -4.0000      -86.6640      155.5948
      210        4       -0.9512       -3.7368      -77.5309      156.6532
      210        4       -0.9512       -3.4737      -67.7448      157.0984
      210        4       -0.9512       -3.2105      -56.7697      156.8040
      210        4       -0.9512       -2.9474      -44.0960      154.7289
      210        4       -0.9512       -2.6842      -30.5757      149.0160
      210        4       -0.9512       -2.4211      -18.9254      139.3062
      210        4       -0.9512       -2.1579      -10.8659      127.6941
      210        4       -0.9512       -1.8947       -5.9562      116.1813
      210        4       -0.9512       -1.6316       -3.2078      105.5717
      210        4       -0.9512       -1.3684       -1.8103       96.2041
      210        4       -0.9512       -1.1053       -0.7907       88.0521
      210        4       -0.9512       -0.8421        0.5469       80.3139
      210        4       -0.9512       -0.5789        1.9182       71.9415
      210        4       -0.9512       -0.3158        2.1832       62.6540
      210        4       -0.9512       -0.0526        0.5380       53.4012
      210        4       -0.9512        0.2105       -2.6111       45.2467
      210        4       -0.9512        0.4737       -6.4421       38.3875
      210        4       -0.9512        0.7368      -10.5670       32.5616
      210        4       -0.9512        1.0000      -14.8906       27.6465
      211        4       -1.5590       -4.0000      -84.5758      156.2380
      211        4       -1.5590       -3.7368      -75.5160      156.9925
      211        4       -1.5590       -3.4737      -65.9074      157.1748
      211        4       -1.5590       -3.2105      -55.1639      156.7221
      211        4       -1.5590       -2.9474      -42.6942      154.5891
      211        4       -1.5590       -2.6842      -29.3094      148.8602
      211        4       -1.5590       -2.4211      -17.7403      139.1200
      211        4       -1.5590       -2.1579       -9.7490      127.4425
      211        4       -1.5590       -1.8947       -4.9249      115.8422
      211        4       -1.5590       -1.6316       -2.2890      105.1434
      211        4       -1.5590       -1.3684       -1.0280       95.7001
      211        4       -1.5590       -1.1053       -0.1633       87.4940
      211        4       -1.5590       -0.8421        1.0039       79.7315
      211        4       -1.5590       -0.5789        2.1997       71.3780
      211        4       -1.5590       -0.3158        2.3093       62.1582
      211        4       -1.5590       -0.0526        0.5541       53.0027
      211        4       -1.5590        0.2105       -2.6588       44.9452
      211        4       -1.5590        0.4737       -6.5237       38.1666
      211        4       -1.5590        0.7368      -10.6672       32.4038
      211        4       -1.5590        1.0000      -15.0012       27.5381
      212        4       -2.6027       -4.0000      -75.1976      138.4727
      212        4       -2.6027       -3.7368      -67.0898      139.2720
      212        4       -2.6027       -3.4737      -58.4218      139.4870
      212        4       -2.6027       -3.2105      -48.7514      139.0211
      212        4       -2.6027       -2.9474      -37.6442      136.9853
      212        4       -2.6027       -2.6842      -25.8443      131.7793
      212        4       -2.6027       -2.4211      -15.7124      123.1094
      212        4       -2.6027       -2.1579       -8.7280      112.8115
      212        4       -2.6027       -1.8947       -4.4898      102.6239
      212        4       -2.6027       -1.6316       -2.1259       93.2414
      212        4       -2.6027       -1.3684       -0.9123       84.9440
      212        4       -2.6027       -1.1053        0.0007       77.6650
      212        4       -2.6027       -0.8421        1.1631       70.6643
      212        4       -2.6027       -0.5789        2.2386       63.0682
      212        4       -2.6027       -0.3158        2.2275       54.7444
      212        4       -2.6027       -0.0526        0.5199       46.5758
      212        4       -2.6027        0.2105       -2.4577       39.4547
      212        4       -2.6027        0.4737       -5.9727       33.5050
      212        4       -2.6027        0.7368       -9.6938       28.4669
      212        4       -2.6027        1.0000      -13.5526       24.2165
      213        4       -3.8929       -4.0000      -65.6067      114.7271
      213        4       -3.8929       -3.7368      -59.1305      115.8511
      213        4       -3.8929       -3.4737      -52.0288      116.5943
      213        4       -3.8929       -3.2105      -43.9220      116.8022
      213        4       -3.8929       -2.9474      -34.4345      115.6878
      213        4       -3.8929       -2.6842      -24.1752      111.8248
      213        4       -3.8929       -2.4211      -15.1974      104.8677
      213        4       -3.8929       -2.1579       -8.8608       96.3542
      213        4       -3.8929       -1.8947       -4.8876       87.7957
      213        4       -3.8929       -1.6316       -2.5757       79.8172
      213        4       -3.8929       -1.3684       -1.3370       72.7098
      213        4       -3.8929       -1.1053       -0.4357       66.4794
      213        4       -3.8929       -0.8421        0.6499       60.5265
      213        4       -3.8929       -0.5789        1.6790       54.0788
      213        4       -3.8929       -0.3158        1.7856       46.9868
      213        4       -3.8929       -0.0526        0.4259       40.0136
      213        4       -3.8929        0.2105       -2.0262       33.9369
      213        4       -3.8929        0.4737       -4.9315       28.8522
      213        4       -3.8929        0.7368       -8.0168       24.5219
      213        4       -3.8929        1.0000      -11.2427       20.8451
      214        4       -2.6593       -4.0000      -74.6781      132.0260
      214        4       -2.6593       -3.7368      -66.5865      133.0505
      214        4       -2.6593       -3.4737      -58.0217      133.3914
      214        4       -2.6593       -3.2105      -48.5935      133.0536
      214        4       -2.6593       -2.9474      -37.8276      131.2524
      214        4       -2.6593       -2.6842      -26.3723      126.4435
      214        4       -2.6593       -2.4211      -16.4688      118.3031
      214        4       -2.6593       -2.1579       -9.5472      108.5569
      214        4       -2.6593       -1.8947       -5.2498       98.8527
      214        4       -2.6593       -1.6316       -2.7786       89.8572
      214        4       -2.6593       -1.3684       -1.4703       81.8724
      214        4       -2.6593       -1.1053       -0.5032       74.8838
      214        4       -2.6593       -0.8421        0.6979       68.2057
      214        4       -2.6593       -0.5789        1.8544       60.9657
      214        4       -2.6593       -0.3158        1.9874       52.9910
      214        4       -2.6593       -0.0526        0.4757       45.1369
      214        4       -2.6593        0.2105       -2.2678       38.2814
      214        4       -2.6593        0.4737       -5.5280       32.5371
      214        4       -2.6593        0.7368       -8.9982       27.6426
      214        4       -2.6593        1.0000      -12.6309       23.4884
      215        4       -0.9512       -4.0000      -91.0088      158.6796
      215        4       -0.9512       -3.7368      -81.6315      160.2137
      215        4       -0.9512       -3.4737      -71.4482      161.1616
      215        4       -0.9512       -3.2105      -59.8861      161.3184
      215        4       -0.9512       -2.9474      -46.4433      159.5525
      215        4       -0.9512       -2.6842      -32.0194      153.9051
      215        4       -0.9512       -2.4211      -19.4672      143.9359
      215        4       -0.9512       -2.1579      -10.6868      131.7850
      215        4       -0.9512       -1.8947       -5.3265      119.6022
      215        4       -0.9512       -1.6316       -2.3751      108.3327
      215        4       -0.9512       -1.3684       -0.9426       98.3896
      215        4       -0.9512       -1.1053        0.0166       89.7539
      215        4       -0.9512       -0.8421        1.2300       81.6047
      215        4       -0.9512       -0.5789        2.4147       72.8929
      215        4       -0.9512       -0.3158        2.4468       63.3659
      215        4       -0.9512       -0.0526        0.5770       53.9837
      215        4       -0.9512        0.2105       -2.7415       45.7720
      215        4       -0.9512        0.4737       -6.6835       38.8770
      215        4       -0.9512        0.7368      -10.8859       33.0085
      215        4       -0.9512        1.0000      -15.2767       28.0433
      216        4       -0.4527       -4.0000     -104.7715      178.8816
      216        4       -0.4527       -3.7368      -94.1554      180.4934
      216        4       -0.4527       -3.4737      -82.7364      181.3927
      216        4       -0.4527       -3.2105      -69.9145      181.4123
      216        4       -0.4527       -2.9474      -55.1310      179.3702
      216        4       -0.4527       -2.6842      -39.3546      173.1685
      216        4       -0.4527       -2.4211      -25.6590      162.4049
      216        4       -0.4527       -2.1579      -15.9732      149.4510
      216        4       -0.4527       -1.8947       -9.7699      136.5391
      216        4       -0.4527       -1.6316       -5.9410      124.5062
      216        4       -0.4527       -1.3684       -3.6544      113.6870
      216        4       -0.4527       -1.1053       -1.8962      104.0883
      216        4       -0.4527       -0.8421        0.0908       94.8583
      216        4       -0.4527       -0.5789        1.9654       84.8539
      216        4       -0.4527       -0.3158        2.4270       73.8215
      216        4       -0.4527       -0.0526        0.6076       62.9041
      216        4       -0.4527        0.2105       -2.9564       53.3151
      216        4       -0.4527        0.4737       -7.3000       45.2316
      216        4       -0.4527        0.7368      -12.0052       38.3302
      216        4       -0.4527        1.0000      -16.9802       32.4896
  

     Unfolding on the coarse grid
     elphon_wrap  :    107.70s CPU     54.29s WALL (       1 calls)

     INITIALIZATION: 

     init_vloc    :      0.05s CPU      0.03s WALL (      29 calls)
     init_us_1    :      1.56s CPU      0.78s WALL (      29 calls)


     Electron-Phonon interpolation
     ephwann      :     34.00s CPU     17.05s WALL (       1 calls)
     ep-interp    :     33.40s CPU     16.74s WALL (     216 calls)

     Ham: step 1  :      0.00s CPU      0.00s WALL (       1 calls)
     Ham: step 2  :      0.00s CPU      0.00s WALL (       1 calls)
     ep: step 1   :      0.01s CPU      0.00s WALL (     162 calls)
     ep: step 2   :      0.14s CPU      0.07s WALL (     162 calls)
     DynW2B       :      0.03s CPU      0.01s WALL (     216 calls)
     HamW2B       :      3.61s CPU      1.76s WALL (   93744 calls)
     ephW2Bp      :      0.15s CPU      0.07s WALL (     216 calls)


     Total program execution
     EPW          :  2m31.01s CPU     1m16.00s WALL

