                                                                                      
                                       ``:oss/                                        
                           `.+s+.     .+ys--yh+     `./ss+.                           
                          -sh//yy+`   +yy   +yy    -+h+-oyy                           
                          -yh- .oyy/.-sh.   .syo-.:sy-  /yh                           
                 `.-.`    `yh+   -oyyyo.     `/syys:    oys      `.`                  
               `/+ssys+-` `sh+      `                   oys`   .:osyo`                
               -yh- ./syyooyo`                          .sys+/oyo--yh/                
               `yy+    .-:-.                             `-/+/:`  -sh-                
                /yh.                                              oys                 
          ``..---hho---------`   .---------..`      `.-----.`    -hd+---.             
       `./osmNMMMMMMMMMMMMMMMs. +NNMMMMMMMMNNmh+.   yNMMMMMNm-  oNMMMMMNmo++:`        
       +sy--/sdMMMhyyyyyyyNMMh- .oyNMMmyyyyyhNMMm+` -yMMMdyyo:` .oyyNMMNhs+syy`       
       -yy/   /MMM+.`-+/``mMMy-   `mMMh:`````.dMMN:` `MMMy-`-dhhy```mMMy:``+hs        
        -yy+` /MMMo:-mMM+`-oo/.    mMMh:     `dMMN/`  dMMm:`dMMMMy..MMMo-.+yo`        
         .sys`/MMMMNNMMMs-         mMMmyooooymMMNo:   oMMM/sMMMMMM++MMN//oh:          
          `sh+/MMMhyyMMMs- `-`     mMMMMMMMMMNmy+-`   -MMMhMMMsmMMmdMMd/yy+           
    `-/+++oyy-/MMM+.`/hh/.`mNm:`   mMMd+/////:-.`      NMMMMMd/:NMMMMMy:/yyo/:.`      
   +os+//:-..-oMMMo:--:::-/MMMo. .-mMMd+---`           hMMMMN+. oMMMMMo. `-+osyso:`   
   syo     `mNMMMMMNNNNNNNNMMMo.oNNMMMMMNNNN:`         +MMMMs:`  dMMMN/`     ``:syo   
   /yh`     :syyyyyyyyyyyyyyyy+.`+syyyyyyyyo:`         .oyys:`   .oyys:`        +yh   
   -yh-        ````````````````    `````````              ``        ``          oys   
   -+h/------------------------::::::::://////++++++++++++++++++++++///////::::/yd:   
   shdddddddddddddddddddddddddddddhhhhhhhhyyyyyssssssssssssssssyyyyyyyhhhhhhhddddh`   
                                                                                      
  S. Ponce, E. R. Margine, C. Verdi, and F. Giustino,                                 
                                                Comput. Phys. Commun. 209, 116 (2016) 
                                                                                      

     Program EPW v.4.1.0 (svn rev. 13239) starts on 11Jan2017 at 11:28:42 

     This program is part of the open-source Quantum ESPRESSO suite
     for quantum simulation of materials; please cite
         "P. Giannozzi et al., J. Phys.:Condens. Matter 21 395502 (2009);
          URL http://www.quantum-espresso.org", 
     in publications or presentations arising from this work. More details at
     http://www.quantum-espresso.org/quote

     Parallel version (MPI), running on     1 processors
                      
     ------------------------------------------------------------------------ 
                   RESTART - RESTART - RESTART - RESTART                         
     Restart is done without reading PWSCF save file.                  
     Be aware that some consistency checks are therefore not done.                  
     ------------------------------------------------------------------------ 
                      

     --                                                                         

     bravais-lattice index     =            0
     lattice parameter (a_0)   =       0.0000  a.u.
     unit-cell volume          =       0.0000 (a.u.)^3
     number of atoms/cell      =            0
     number of atomic types    =            0
     kinetic-energy cut-off    =       0.0000  Ry
     charge density cut-off    =       0.0000  Ry
     convergence threshold     =      0.0E+00
     beta                      =       0.0000
     number of iterations used =            0
     Exchange-correlation      = not set (-1 -1 -1 -1-1-1)


     celldm(1)=    0.00000  celldm(2)=    0.00000  celldm(3)=    0.00000
     celldm(4)=    0.00000  celldm(5)=    0.00000  celldm(6)=    0.00000

     crystal axes: (cart. coord. in units of a_0)
               a(1) = (  0.0000  0.0000  0.0000 )  
               a(2) = (  0.0000  0.0000  0.0000 )  
               a(3) = (  0.0000  0.0000  0.0000 )  

     reciprocal axes: (cart. coord. in units 2 pi/a_0)
               b(1) = (  0.0000  0.0000  0.0000 )  
               b(2) = (  0.0000  0.0000  0.0000 )  
               b(3) = (  0.0000  0.0000  0.0000 )  


     Atoms inside the unit cell: 

   Cartesian axes

     site n.  atom      mass           positions (a_0 units)


     No symmetry!

     G cutoff =    0.0000  (      0 G-vectors)     FFT grid: (  0,  0,  0)
     number of k points=    0
                       cart. coord. in units 2pi/a_0
     EPW          :     0.00s CPU         0.00s WALL

     EPW          :     0.00s CPU         0.00s WALL

     No wavefunction gauge setting applied

     -------------------------------------------------------------------
     Using ./diam.ukk from disk
     -------------------------------------------------------------------


     Using kmap and kgmap from disk

     Do not need to read .epb files; read .fmt files


              band disentanglement is used:  nbndsub =    4

     Reading Hamiltonian, Dynamical matrix and EP vertex in Wann rep from file


     Finished reading Wann rep data from file

     Using uniform k-mesh:    4   4   4
     Size of k point mesh for interpolation:        128
     Using uniform q-mesh:    4   4   4
     Size of q point mesh for interpolation:         64
     Max number of q points per pool:               64

     Fermi energy coarse grid =  14.006778 eV

     Fermi energy is calculated from the fine k-mesh: Ef =  13.734237 eV

     Warning: check if difference with Fermi level fine grid makes sense

     ===================================================================

              ibndmin =     1  ebndmin =    -0.018
              ibndmax =     4  ebndmax =     1.016


     Number of ep-matrix elements per pool :         6144 ~=   48.00 Kb (@ 8 bytes/ DP)

     ===================================================================
     Electron (Imaginary) Self-Energy in the Migdal Approximation
     ===================================================================


     Fermi Surface thickness =  15.000000 eV

     Golden Rule strictly enforced with T =   0.025852 eV
     WARNING: only the eigenstates within the Fermi window are meaningful
     Gaussian Broadening:   1.000000 eV, ngauss=   1
     DOS =  0.031027 states/spin/eV/Unit Cell at Ef= 13.734237 eV
 
     Average over degenerate eigenstates is performed

     ik =       1 coord.:    0.0000000   0.0000000   0.0000000
     -------------------------------------------------------------------
     E(   1 )= -21.7232 eV   Re[Sigma]=     -42.874685 meV Im[Sigma]=       0.000350 meV     Z=       0.995854 lam=       0.004163
     E(   2 )=   0.0890 eV   Re[Sigma]=     153.243600 meV Im[Sigma]=      21.309846 meV     Z=       0.968410 lam=       0.032620
     E(   3 )=   0.0890 eV   Re[Sigma]=     153.243600 meV Im[Sigma]=      21.309846 meV     Z=       0.968410 lam=       0.032620
     E(   4 )=   0.0890 eV   Re[Sigma]=     153.243600 meV Im[Sigma]=      21.309846 meV     Z=       0.968410 lam=       0.032620
     -------------------------------------------------------------------


     ===================================================================
     Nesting Function in the double delta approx
     ===================================================================


     Fermi Surface thickness =  15.000000 eV

     Golden Rule strictly enforced with T =   0.025852 eV
     Gaussian Broadening:   1.000 eV, ngauss=   1
     DOS =  0.031027 states/spin/eV/Unit Cell at Ef= 13.734237 eV

     ===================================================================
     Electron Spectral Function in the Migdal Approximation
     ===================================================================


     Fermi Surface thickness =  15.000000 eV

     Golden Rule strictly enforced with T =   0.025852 eV
     Gaussian Broadening:   1.000000 eV, ngauss=   1
     DOS =  0.031027 states/spin/eV/Unit Cell at Ef= 13.734237 eV
 
     The sum rule to conserve the number of electron is enforced.
     The self energy is rescaled so that its real part is zero at the Fermi level.
     The sum rule replace the explicit calculation of the Debye-Waller term.
 
     WARNING: only the eigenstates within the Fermi window are meaningful

     ik =     1 coord.:    0.0000000   0.0000000   0.0000000
     -------------------------------------------------------------------
     ik =       1  w =   -4.0000 eV   A(k,w) =  0.10226E-04 meV^-1
     ik =       1  w =   -3.4444 eV   A(k,w) =  0.15389E-04 meV^-1
     ik =       1  w =   -2.8889 eV   A(k,w) =  0.22302E-04 meV^-1
     ik =       1  w =   -2.3333 eV   A(k,w) =  0.30384E-04 meV^-1
     ik =       1  w =   -1.7778 eV   A(k,w) =  0.50792E-04 meV^-1
     ik =       1  w =   -1.2222 eV   A(k,w) =  0.88406E-04 meV^-1
     ik =       1  w =   -0.6667 eV   A(k,w) =  0.16925E-03 meV^-1
     ik =       1  w =   -0.1111 eV   A(k,w) =  0.13945E-02 meV^-1
     ik =       1  w =    0.4444 eV   A(k,w) =  0.30742E-03 meV^-1
     ik =       1  w =    1.0000 eV   A(k,w) =  0.34273E-04 meV^-1
     -------------------------------------------------------------------

        1       -4.0000   0.10226E-04
        1       -3.4444   0.15389E-04
        1       -2.8889   0.22302E-04
        1       -2.3333   0.30384E-04
        1       -1.7778   0.50792E-04
        1       -1.2222   0.88406E-04
        1       -0.6667   0.16925E-03
        1       -0.1111   0.13945E-02
        1        0.4444   0.30742E-03
        1        1.0000   0.34273E-04
        1        1      -21.7232       -4.0000      -27.9371       98.3149
        1        1      -21.7232       -3.4444      -25.9010       99.4671
        1        1      -21.7232       -2.8889       -9.5791       96.5421
        1        1      -21.7232       -2.3333       -0.1028       79.7974
        1        1      -21.7232       -1.7778        0.8744       69.8236
        1        1      -21.7232       -1.2222        8.7365       59.0727
        1        1      -21.7232       -0.6667        9.3344       40.3487
        1        1      -21.7232       -0.1111        1.7428       26.6529
        1        1      -21.7232        0.4444       -6.7217       18.7556
        1        1      -21.7232        1.0000      -14.0324       14.0544
  
        1        2        0.0890       -4.0000     -133.2439      161.1587
        1        2        0.0890       -3.4444     -126.8973      180.4385
        1        2        0.0890       -2.8889      -91.4179      189.2179
        1        2        0.0890       -2.3333      -67.9701      173.1589
        1        2        0.0890       -1.7778      -51.0514      174.3193
        1        2        0.0890       -1.2222       -4.6554      158.8605
        1        2        0.0890       -0.6667       15.2581      106.4143
        1        2        0.0890       -0.1111        3.4814       66.3850
        1        2        0.0890        0.4444      -13.9910       44.0172
        1        2        0.0890        1.0000      -29.4177       31.3111
  
        1        3        0.0890       -4.0000     -137.4084      169.5067
        1        3        0.0890       -3.4444     -129.5687      190.4037
        1        3        0.0890       -2.8889      -90.8145      198.7256
        1        3        0.0890       -2.3333      -65.7095      180.0475
        1        3        0.0890       -1.7778      -48.7598      179.0838
        1        3        0.0890       -1.2222       -2.7702      161.8854
        1        3        0.0890       -0.6667       16.1958      108.3186
        1        3        0.0890       -0.1111        3.6153       67.7619
        1        3        0.0890        0.4444      -14.4624       45.0790
        1        3        0.0890        1.0000      -30.3703       32.1583
  
        1        4        0.0890       -4.0000     -136.3643      167.4137
        1        4        0.0890       -3.4444     -128.8989      187.9052
        1        4        0.0890       -2.8889      -90.9658      196.3418
        1        4        0.0890       -2.3333      -66.2763      178.3204
        1        4        0.0890       -1.7778      -49.3343      177.8892
        1        4        0.0890       -1.2222       -3.2428      161.1270
        1        4        0.0890       -0.6667       15.9607      107.8412
        1        4        0.0890       -0.1111        3.5817       67.4167
        1        4        0.0890        0.4444      -14.3442       44.8128
        1        4        0.0890        1.0000      -30.1314       31.9459
  
     Average over degenerate eigenstates is performed

     ik =       2 coord.:    0.0000000   0.0000000   0.2500000
     -------------------------------------------------------------------
     E(   1 )= -18.4283 eV   Re[Sigma]=     -51.315685 meV Im[Sigma]=      14.496329 meV     Z=       0.999256 lam=       0.000744
     E(   2 )=  -7.0152 eV   Re[Sigma]=     -40.400812 meV Im[Sigma]=     151.595505 meV     Z=       1.041337 lam=      -0.039696
     E(   3 )=  -1.3549 eV   Re[Sigma]=     109.403779 meV Im[Sigma]=     102.112300 meV     Z=       1.020623 lam=      -0.020207
     E(   4 )=  -1.3549 eV   Re[Sigma]=     109.403779 meV Im[Sigma]=     102.112300 meV     Z=       1.020623 lam=      -0.020207
     -------------------------------------------------------------------

     WARNING: only the eigenstates within the Fermi window are meaningful

     ik =     2 coord.:    0.0000000   0.0000000   0.2500000
     -------------------------------------------------------------------
     ik =       2  w =   -4.0000 eV   A(k,w) =  0.15689E-04 meV^-1
     ik =       2  w =   -3.4444 eV   A(k,w) =  0.24870E-04 meV^-1
     ik =       2  w =   -2.8889 eV   A(k,w) =  0.43509E-04 meV^-1
     ik =       2  w =   -2.3333 eV   A(k,w) =  0.84208E-04 meV^-1
     ik =       2  w =   -1.7778 eV   A(k,w) =  0.36307E-03 meV^-1
     ik =       2  w =   -1.2222 eV   A(k,w) =  0.24234E-02 meV^-1
     ik =       2  w =   -0.6667 eV   A(k,w) =  0.90143E-04 meV^-1
     ik =       2  w =   -0.1111 eV   A(k,w) =  0.21844E-04 meV^-1
     ik =       2  w =    0.4444 eV   A(k,w) =  0.83378E-05 meV^-1
     ik =       2  w =    1.0000 eV   A(k,w) =  0.34366E-05 meV^-1
     -------------------------------------------------------------------

        2       -4.0000   0.15689E-04
        2       -3.4444   0.24870E-04
        2       -2.8889   0.43509E-04
        2       -2.3333   0.84208E-04
        2       -1.7778   0.36307E-03
        2       -1.2222   0.24234E-02
        2       -0.6667   0.90143E-04
        2       -0.1111   0.21844E-04
        2        0.4444   0.83378E-05
        2        1.0000   0.34366E-05
        2        1      -18.4283       -4.0000      -23.9744       88.6069
        2        1      -18.4283       -3.4444      -21.3075       90.7961
        2        1      -18.4283       -2.8889       -4.8603       88.6888
        2        1      -18.4283       -2.3333        5.7637       71.9737
        2        1      -18.4283       -1.7778        6.1419       59.6830
        2        1      -18.4283       -1.2222        9.2357       48.7493
        2        1      -18.4283       -0.6667        6.9160       35.0542
        2        1      -18.4283       -0.1111        0.9993       26.5047
        2        1      -18.4283        0.4444       -3.4263       20.5066
        2        1      -18.4283        1.0000       -8.2622       14.9663
  
        2        2       -7.0152       -4.0000      -34.1567       85.8364
        2        2       -7.0152       -3.4444      -29.3839       91.8481
        2        2       -7.0152       -2.8889       -9.8391       90.6428
        2        2       -7.0152       -2.3333        2.0958       73.6510
        2        2       -7.0152       -1.7778        3.3555       61.8002
        2        2       -7.0152       -1.2222        8.0513       50.9680
        2        2       -7.0152       -0.6667        6.7799       36.3319
        2        2       -7.0152       -0.1111        1.0187       26.9625
        2        2       -7.0152        0.4444       -3.5442       20.5856
        2        2       -7.0152        1.0000       -8.4577       14.9456
  
        2        3       -1.3549       -4.0000      -69.4907      126.7078
        2        3       -1.3549       -3.4444      -62.6044      139.5970
        2        3       -1.3549       -2.8889      -30.9079      143.2323
        2        3       -1.3549       -2.3333       -8.2289      119.9236
        2        3       -1.3549       -1.7778       -2.8861      102.9719
        2        3       -1.3549       -1.2222        7.6036       86.3509
        2        3       -1.3549       -0.6667        7.0879       63.8478
        2        3       -1.3549       -0.1111        0.6614       51.2234
        2        3       -1.3549        0.4444       -1.4156       40.8466
        2        3       -1.3549        1.0000       -6.5586       28.6477
  
        2        4       -1.3549       -4.0000      -77.0714      136.1528
        2        4       -1.3549       -3.4444      -68.8134      151.2373
        2        4       -1.3549       -2.8889      -33.5560      155.1904
        2        4       -1.3549       -2.3333       -8.6165      129.6712
        2        4       -1.3549       -1.7778       -2.6523      111.0279
        2        4       -1.3549       -1.2222        8.7236       92.7420
        2        4       -1.3549       -0.6667        8.1209       68.0804
        2        4       -1.3549       -0.1111        0.8461       53.9943
        2        4       -1.3549        0.4444       -2.1167       42.7830
        2        4       -1.3549        1.0000       -8.0099       30.0871
  
     Average over degenerate eigenstates is performed

     ik =       3 coord.:    0.0000000   0.0000000   0.5000000
     -------------------------------------------------------------------
     E(   1 )= -15.5805 eV   Re[Sigma]=     -69.772915 meV Im[Sigma]=      33.901036 meV     Z=       0.997370 lam=       0.002637
     E(   2 )= -13.6723 eV   Re[Sigma]=       2.803257 meV Im[Sigma]=      86.973092 meV     Z=       1.018009 lam=      -0.017691
     E(   3 )=  -2.7987 eV   Re[Sigma]=      53.412999 meV Im[Sigma]=     134.689459 meV     Z=       1.032928 lam=      -0.031878
     E(   4 )=  -2.7987 eV   Re[Sigma]=      53.412999 meV Im[Sigma]=     134.689459 meV     Z=       1.032928 lam=      -0.031878
     -------------------------------------------------------------------

     WARNING: only the eigenstates within the Fermi window are meaningful

     ik =     3 coord.:    0.0000000   0.0000000   0.5000000
     -------------------------------------------------------------------
     ik =       3  w =   -4.0000 eV   A(k,w) =  0.50346E-04 meV^-1
     ik =       3  w =   -3.4444 eV   A(k,w) =  0.19303E-03 meV^-1
     ik =       3  w =   -2.8889 eV   A(k,w) =  0.46881E-02 meV^-1
     ik =       3  w =   -2.3333 eV   A(k,w) =  0.25274E-03 meV^-1
     ik =       3  w =   -1.7778 eV   A(k,w) =  0.56334E-04 meV^-1
     ik =       3  w =   -1.2222 eV   A(k,w) =  0.21886E-04 meV^-1
     ik =       3  w =   -0.6667 eV   A(k,w) =  0.86735E-05 meV^-1
     ik =       3  w =   -0.1111 eV   A(k,w) =  0.41199E-05 meV^-1
     ik =       3  w =    0.4444 eV   A(k,w) =  0.22143E-05 meV^-1
     ik =       3  w =    1.0000 eV   A(k,w) =  0.11395E-05 meV^-1
     -------------------------------------------------------------------

        3       -4.0000   0.50346E-04
        3       -3.4444   0.19303E-03
        3       -2.8889   0.46881E-02
        3       -2.3333   0.25274E-03
        3       -1.7778   0.56334E-04
        3       -1.2222   0.21886E-04
        3       -0.6667   0.86735E-05
        3       -0.1111   0.41199E-05
        3        0.4444   0.22143E-05
        3        1.0000   0.11395E-05
        3        1      -15.5805       -4.0000      -25.6469       91.7218
        3        1      -15.5805       -3.4444      -23.9371       91.2453
        3        1      -15.5805       -2.8889      -10.2117       89.2293
        3        1      -15.5805       -2.3333       -0.6256       75.0148
        3        1      -15.5805       -1.7778        1.2091       65.4928
        3        1      -15.5805       -1.2222        7.8749       54.8691
        3        1      -15.5805       -0.6667        7.2756       38.8921
        3        1      -15.5805       -0.1111        1.1217       28.6296
        3        1      -15.5805        0.4444       -3.7982       21.9813
        3        1      -15.5805        1.0000       -8.8639       16.0230
  
        3        2      -13.6723       -4.0000      -12.2901       30.6288
        3        2      -13.6723       -3.4444      -12.1422       32.6034
        3        2      -13.6723       -2.8889       -7.1309       33.0811
        3        2      -13.6723       -2.3333       -4.0119       29.1656
        3        2      -13.6723       -1.7778       -2.7658       27.5536
        3        2      -13.6723       -1.2222        1.3744       24.2738
        3        2      -13.6723       -0.6667        1.9028       18.0478
        3        2      -13.6723       -0.1111        0.1929       14.4777
        3        2      -13.6723        0.4444       -0.4010       11.6662
        3        2      -13.6723        1.0000       -1.8288        8.2693
  
        3        3       -2.7987       -4.0000      -58.5697      102.2550
        3        3       -2.7987       -3.4444      -55.1052      107.9499
        3        3       -2.7987       -2.8889      -37.2933      109.6655
        3        3       -2.7987       -2.3333      -25.1580       98.4913
        3        3       -2.7987       -1.7778      -17.7753       95.1891
        3        3       -2.7987       -1.2222        1.1922       84.3633
        3        3       -2.7987       -0.6667        6.3064       60.5342
        3        3       -2.7987       -0.1111        0.8530       45.7247
        3        3       -2.7987        0.4444       -2.2361       35.6802
        3        3       -2.7987        1.0000       -7.0284       25.0767
  
        3        4       -2.7987       -4.0000      -59.5009      104.4672
        3        4       -2.7987       -3.4444      -55.8551      110.1834
        3        4       -2.7987       -2.8889      -37.6535      111.8148
        3        4       -2.7987       -2.3333      -25.2790      100.3134
        3        4       -2.7987       -1.7778      -17.7917       96.8129
        3        4       -2.7987       -1.2222        1.4074       85.6894
        3        4       -2.7987       -0.6667        6.5192       61.4132
        3        4       -2.7987       -0.1111        0.8914       46.3010
        3        4       -2.7987        0.4444       -2.3824       36.0843
        3        4       -2.7987        1.0000       -7.3320       25.3784
  
     Average over degenerate eigenstates is performed

     ik =       4 coord.:    0.0000000   0.0000000   0.7500000
     -------------------------------------------------------------------
     E(   1 )= -18.4283 eV   Re[Sigma]=     -51.315685 meV Im[Sigma]=      14.496329 meV     Z=       0.999256 lam=       0.000744
     E(   2 )=  -7.0152 eV   Re[Sigma]=     -40.400812 meV Im[Sigma]=     151.595505 meV     Z=       1.041337 lam=      -0.039696
     E(   3 )=  -1.3549 eV   Re[Sigma]=     109.403779 meV Im[Sigma]=     102.112300 meV     Z=       1.020623 lam=      -0.020207
     E(   4 )=  -1.3549 eV   Re[Sigma]=     109.403779 meV Im[Sigma]=     102.112300 meV     Z=       1.020623 lam=      -0.020207
     -------------------------------------------------------------------

     WARNING: only the eigenstates within the Fermi window are meaningful

     ik =     4 coord.:    0.0000000   0.0000000   0.7500000
     -------------------------------------------------------------------
     ik =       4  w =   -4.0000 eV   A(k,w) =  0.15689E-04 meV^-1
     ik =       4  w =   -3.4444 eV   A(k,w) =  0.24870E-04 meV^-1
     ik =       4  w =   -2.8889 eV   A(k,w) =  0.43509E-04 meV^-1
     ik =       4  w =   -2.3333 eV   A(k,w) =  0.84208E-04 meV^-1
     ik =       4  w =   -1.7778 eV   A(k,w) =  0.36307E-03 meV^-1
     ik =       4  w =   -1.2222 eV   A(k,w) =  0.24234E-02 meV^-1
     ik =       4  w =   -0.6667 eV   A(k,w) =  0.90143E-04 meV^-1
     ik =       4  w =   -0.1111 eV   A(k,w) =  0.21844E-04 meV^-1
     ik =       4  w =    0.4444 eV   A(k,w) =  0.83378E-05 meV^-1
     ik =       4  w =    1.0000 eV   A(k,w) =  0.34366E-05 meV^-1
     -------------------------------------------------------------------

        4       -4.0000   0.15689E-04
        4       -3.4444   0.24870E-04
        4       -2.8889   0.43509E-04
        4       -2.3333   0.84208E-04
        4       -1.7778   0.36307E-03
        4       -1.2222   0.24234E-02
        4       -0.6667   0.90143E-04
        4       -0.1111   0.21844E-04
        4        0.4444   0.83378E-05
        4        1.0000   0.34366E-05
        4        1      -18.4283       -4.0000      -23.9744       88.6069
        4        1      -18.4283       -3.4444      -21.3075       90.7961
        4        1      -18.4283       -2.8889       -4.8603       88.6888
        4        1      -18.4283       -2.3333        5.7637       71.9737
        4        1      -18.4283       -1.7778        6.1419       59.6830
        4        1      -18.4283       -1.2222        9.2357       48.7493
        4        1      -18.4283       -0.6667        6.9160       35.0542
        4        1      -18.4283       -0.1111        0.9993       26.5047
        4        1      -18.4283        0.4444       -3.4263       20.5066
        4        1      -18.4283        1.0000       -8.2622       14.9663
  
        4        2       -7.0152       -4.0000      -34.1567       85.8364
        4        2       -7.0152       -3.4444      -29.3839       91.8481
        4        2       -7.0152       -2.8889       -9.8391       90.6428
        4        2       -7.0152       -2.3333        2.0958       73.6510
        4        2       -7.0152       -1.7778        3.3555       61.8002
        4        2       -7.0152       -1.2222        8.0513       50.9680
        4        2       -7.0152       -0.6667        6.7799       36.3319
        4        2       -7.0152       -0.1111        1.0187       26.9625
        4        2       -7.0152        0.4444       -3.5442       20.5856
        4        2       -7.0152        1.0000       -8.4577       14.9456
  
        4        3       -1.3549       -4.0000      -69.4890      126.7057
        4        3       -1.3549       -3.4444      -62.6030      139.5944
        4        3       -1.3549       -2.8889      -30.9073      143.2296
        4        3       -1.3549       -2.3333       -8.2288      119.9214
        4        3       -1.3549       -1.7778       -2.8861      102.9701
        4        3       -1.3549       -1.2222        7.6033       86.3495
        4        3       -1.3549       -0.6667        7.0876       63.8468
        4        3       -1.3549       -0.1111        0.6613       51.2228
        4        3       -1.3549        0.4444       -1.4154       40.8461
        4        3       -1.3549        1.0000       -6.5583       28.6473
  
        4        4       -1.3549       -4.0000      -77.0731      136.1550
        4        4       -1.3549       -3.4444      -68.8148      151.2400
        4        4       -1.3549       -2.8889      -33.5566      155.1931
        4        4       -1.3549       -2.3333       -8.6166      129.6734
        4        4       -1.3549       -1.7778       -2.6522      111.0297
        4        4       -1.3549       -1.2222        8.7238       92.7434
        4        4       -1.3549       -0.6667        8.1212       68.0813
        4        4       -1.3549       -0.1111        0.8462       53.9950
        4        4       -1.3549        0.4444       -2.1168       42.7834
        4        4       -1.3549        1.0000       -8.0103       30.0874
  
     Average over degenerate eigenstates is performed

     ik =       5 coord.:    0.0000000   0.2500000   0.0000000
     -------------------------------------------------------------------
     E(   1 )= -18.4283 eV   Re[Sigma]=     -50.547945 meV Im[Sigma]=      15.860876 meV     Z=       0.999884 lam=       0.000116
     E(   2 )=  -7.0152 eV   Re[Sigma]=     -45.051658 meV Im[Sigma]=     174.636383 meV     Z=       1.049983 lam=      -0.047604
     E(   3 )=  -1.3549 eV   Re[Sigma]=      99.705357 meV Im[Sigma]=      85.568909 meV     Z=       1.012187 lam=      -0.012040
     E(   4 )=  -1.3549 eV   Re[Sigma]=      99.705357 meV Im[Sigma]=      85.568909 meV     Z=       1.012187 lam=      -0.012040
     -------------------------------------------------------------------

     WARNING: only the eigenstates within the Fermi window are meaningful

     ik =     5 coord.:    0.0000000   0.2500000   0.0000000
     -------------------------------------------------------------------
     ik =       5  w =   -4.0000 eV   A(k,w) =  0.14724E-04 meV^-1
     ik =       5  w =   -3.4444 eV   A(k,w) =  0.23204E-04 meV^-1
     ik =       5  w =   -2.8889 eV   A(k,w) =  0.40362E-04 meV^-1
     ik =       5  w =   -2.3333 eV   A(k,w) =  0.76845E-04 meV^-1
     ik =       5  w =   -1.7778 eV   A(k,w) =  0.32378E-03 meV^-1
     ik =       5  w =   -1.2222 eV   A(k,w) =  0.22813E-02 meV^-1
     ik =       5  w =   -0.6667 eV   A(k,w) =  0.83097E-04 meV^-1
     ik =       5  w =   -0.1111 eV   A(k,w) =  0.21482E-04 meV^-1
     ik =       5  w =    0.4444 eV   A(k,w) =  0.83193E-05 meV^-1
     ik =       5  w =    1.0000 eV   A(k,w) =  0.33868E-05 meV^-1
     -------------------------------------------------------------------

        5       -4.0000   0.14724E-04
        5       -3.4444   0.23204E-04
        5       -2.8889   0.40362E-04
        5       -2.3333   0.76845E-04
        5       -1.7778   0.32378E-03
        5       -1.2222   0.22813E-02
        5       -0.6667   0.83097E-04
        5       -0.1111   0.21482E-04
        5        0.4444   0.83193E-05
        5        1.0000   0.33868E-05
        5        1      -18.4283       -4.0000      -22.2034       85.8633
        5        1      -18.4283       -3.4444      -19.4166       88.5411
        5        1      -18.4283       -2.8889       -3.2047       86.2365
        5        1      -18.4283       -2.3333        7.1120       69.5362
        5        1      -18.4283       -1.7778        6.9750       56.9978
        5        1      -18.4283       -1.2222        9.0477       46.4605
        5        1      -18.4283       -0.6667        6.4257       33.8147
        5        1      -18.4283       -0.1111        0.8925       25.9947
        5        1      -18.4283        0.4444       -3.1013       20.1608
        5        1      -18.4283        1.0000       -7.7630       14.6649
  
        5        2       -7.0152       -4.0000      -37.6596       92.4624
        5        2       -7.0152       -3.4444      -34.0244       98.9308
        5        2       -7.0152       -2.8889      -14.2647       98.9392
        5        2       -7.0152       -2.3333       -1.3887       82.0150
        5        2       -7.0152       -1.7778        0.3318       70.3840
        5        2       -7.0152       -1.2222        6.2565       59.4297
        5        2       -7.0152       -0.6667        5.4062       44.2038
        5        2       -7.0152       -0.1111        0.5887       35.2180
        5        2       -7.0152        0.4444       -1.8110       27.6628
        5        2       -7.0152        1.0000       -6.2948       19.5472
  
        5        3       -1.3549       -4.0000      -65.9451      119.7811
        5        3       -1.3549       -3.4444      -58.6256      134.4294
        5        3       -1.3549       -2.8889      -26.7386      138.2365
        5        3       -1.3549       -2.3333       -3.6297      114.3616
        5        3       -1.3549       -1.7778        0.1510       95.4020
        5        3       -1.3549       -1.2222        6.5660       79.6773
        5        3       -1.3549       -0.6667        4.6463       61.1909
        5        3       -1.3549       -0.1111        0.0850       51.6480
        5        3       -1.3549        0.4444        0.3706       41.4158
        5        3       -1.3549        1.0000       -4.0706       28.6542
  
        5        4       -1.3549       -4.0000      -65.9451      119.7811
        5        4       -1.3549       -3.4444      -58.6256      134.4294
        5        4       -1.3549       -2.8889      -26.7386      138.2365
        5        4       -1.3549       -2.3333       -3.6297      114.3616
        5        4       -1.3549       -1.7778        0.1510       95.4020
        5        4       -1.3549       -1.2222        6.5660       79.6773
        5        4       -1.3549       -0.6667        4.6463       61.1909
        5        4       -1.3549       -0.1111        0.0850       51.6480
        5        4       -1.3549        0.4444        0.3706       41.4158
        5        4       -1.3549        1.0000       -4.0706       28.6542
  
     Average over degenerate eigenstates is performed

     ik =       6 coord.:    0.0000000   0.2500000   0.2500000
     -------------------------------------------------------------------
     E(   1 )= -17.2624 eV   Re[Sigma]=     -50.113106 meV Im[Sigma]=      13.663058 meV     Z=       0.995731 lam=       0.004288
     E(   2 )=  -6.3786 eV   Re[Sigma]=      -0.094965 meV Im[Sigma]=     228.185648 meV     Z=       1.101937 lam=      -0.092507
     E(   3 )=  -3.2435 eV   Re[Sigma]=      43.193987 meV Im[Sigma]=     112.808811 meV     Z=       1.026771 lam=      -0.026073
     E(   4 )=  -3.2435 eV   Re[Sigma]=      43.193987 meV Im[Sigma]=     112.808811 meV     Z=       1.026771 lam=      -0.026073
     -------------------------------------------------------------------

     WARNING: only the eigenstates within the Fermi window are meaningful

     ik =     6 coord.:    0.0000000   0.2500000   0.2500000
     -------------------------------------------------------------------
     ik =       6  w =   -4.0000 eV   A(k,w) =  0.11325E-03 meV^-1
     ik =       6  w =   -3.4444 eV   A(k,w) =  0.17156E-02 meV^-1
     ik =       6  w =   -2.8889 eV   A(k,w) =  0.39465E-03 meV^-1
     ik =       6  w =   -2.3333 eV   A(k,w) =  0.63011E-04 meV^-1
     ik =       6  w =   -1.7778 eV   A(k,w) =  0.23759E-04 meV^-1
     ik =       6  w =   -1.2222 eV   A(k,w) =  0.11426E-04 meV^-1
     ik =       6  w =   -0.6667 eV   A(k,w) =  0.51774E-05 meV^-1
     ik =       6  w =   -0.1111 eV   A(k,w) =  0.26484E-05 meV^-1
     ik =       6  w =    0.4444 eV   A(k,w) =  0.14810E-05 meV^-1
     ik =       6  w =    1.0000 eV   A(k,w) =  0.80823E-06 meV^-1
     -------------------------------------------------------------------

        6       -4.0000   0.11325E-03
        6       -3.4444   0.17156E-02
        6       -2.8889   0.39465E-03
        6       -2.3333   0.63011E-04
        6       -1.7778   0.23759E-04
        6       -1.2222   0.11426E-04
        6       -0.6667   0.51774E-05
        6       -0.1111   0.26484E-05
        6        0.4444   0.14810E-05
        6        1.0000   0.80823E-06
        6        1      -17.2624       -4.0000      -21.6472       79.6010
        6        1      -17.2624       -3.4444      -20.8557       80.1515
        6        1      -17.2624       -2.8889       -8.8256       78.5747
        6        1      -17.2624       -2.3333       -0.9597       66.0295
        6        1      -17.2624       -1.7778        0.2457       58.1975
        6        1      -17.2624       -1.2222        6.3587       49.3520
        6        1      -17.2624       -0.6667        6.1913       35.2408
        6        1      -17.2624       -0.1111        0.9576       26.0086
        6        1      -17.2624        0.4444       -3.3694       19.7831
        6        1      -17.2624        1.0000       -8.0774       14.3455
  
        6        2       -6.3786       -4.0000      -36.8618      100.4853
        6        2       -6.3786       -3.4444      -36.5455      100.6347
        6        2       -6.3786       -2.8889      -22.3868      100.7198
        6        2       -6.3786       -2.3333      -11.8424       87.6483
        6        2       -6.3786       -1.7778       -8.2047       80.8551
        6        2       -6.3786       -1.2222        4.1811       70.7182
        6        2       -6.3786       -0.6667        6.9143       50.6219
        6        2       -6.3786       -0.1111        1.0854       37.2187
        6        2       -6.3786        0.4444       -3.7971       28.0974
        6        2       -6.3786        1.0000       -9.6763       20.0039
  
        6        3       -3.2435       -4.0000      -42.6069       90.3025
        6        3       -3.2435       -3.4444      -41.6724       94.9802
        6        3       -3.2435       -2.8889      -26.0057       97.1435
        6        3       -3.2435       -2.3333      -14.4605       85.3144
        6        3       -3.2435       -1.7778       -9.7038       79.3707
        6        3       -3.2435       -1.2222        3.3304       69.3287
        6        3       -3.2435       -0.6667        6.1161       49.8300
        6        3       -3.2435       -0.1111        0.8788       37.3799
        6        3       -3.2435        0.4444       -2.8414       28.6724
        6        3       -3.2435        1.0000       -7.9231       20.2792
  
        6        4       -3.2435       -4.0000      -40.0018       85.2695
        6        4       -3.2435       -3.4444      -39.0247       89.6414
        6        4       -3.2435       -2.8889      -24.4038       91.4565
        6        4       -3.2435       -2.3333      -13.6347       80.2925
        6        4       -3.2435       -1.7778       -9.2693       74.6731
        6        4       -3.2435       -1.2222        3.1785       65.3716
        6        4       -3.2435       -0.6667        6.1871       46.5657
        6        4       -3.2435       -0.1111        0.9825       34.0559
        6        4       -3.2435        0.4444       -3.4248       25.6466
        6        4       -3.2435        1.0000       -8.7202       18.2218
  
     Average over degenerate eigenstates is performed

     ik =       7 coord.:    0.0000000   0.2500000   0.5000000
     -------------------------------------------------------------------
     E(   1 )= -13.9778 eV   Re[Sigma]=     -44.326171 meV Im[Sigma]=      58.590453 meV     Z=       1.012987 lam=      -0.012821
     E(   2 )= -11.6981 eV   Re[Sigma]=       7.691838 meV Im[Sigma]=      43.916534 meV     Z=       1.002180 lam=      -0.002175
     E(   3 )=  -6.2742 eV   Re[Sigma]=      16.912984 meV Im[Sigma]=     167.609279 meV     Z=       1.065573 lam=      -0.061538
     E(   4 )=  -4.6174 eV   Re[Sigma]=      24.850916 meV Im[Sigma]=      60.641459 meV     Z=       1.002856 lam=      -0.002848
     -------------------------------------------------------------------

     WARNING: only the eigenstates within the Fermi window are meaningful

     ik =     7 coord.:    0.0000000   0.2500000   0.5000000
     -------------------------------------------------------------------
     ik =       7  w =   -4.0000 eV   A(k,w) =  0.53353E-04 meV^-1
     ik =       7  w =   -3.4444 eV   A(k,w) =  0.19525E-04 meV^-1
     ik =       7  w =   -2.8889 eV   A(k,w) =  0.10461E-04 meV^-1
     ik =       7  w =   -2.3333 eV   A(k,w) =  0.55922E-05 meV^-1
     ik =       7  w =   -1.7778 eV   A(k,w) =  0.34122E-05 meV^-1
     ik =       7  w =   -1.2222 eV   A(k,w) =  0.21158E-05 meV^-1
     ik =       7  w =   -0.6667 eV   A(k,w) =  0.11506E-05 meV^-1
     ik =       7  w =   -0.1111 eV   A(k,w) =  0.67241E-06 meV^-1
     ik =       7  w =    0.4444 eV   A(k,w) =  0.42010E-06 meV^-1
     ik =       7  w =    1.0000 eV   A(k,w) =  0.25453E-06 meV^-1
     -------------------------------------------------------------------

        7       -4.0000   0.53353E-04
        7       -3.4444   0.19525E-04
        7       -2.8889   0.10461E-04
        7       -2.3333   0.55922E-05
        7       -1.7778   0.34122E-05
        7       -1.2222   0.21158E-05
        7       -0.6667   0.11506E-05
        7       -0.1111   0.67241E-06
        7        0.4444   0.42010E-06
        7        1.0000   0.25453E-06
        7        1      -13.9778       -4.0000      -24.2956       72.4823
        7        1      -13.9778       -3.4444      -22.0609       76.0468
        7        1      -13.9778       -2.8889       -7.9938       75.3895
        7        1      -13.9778       -2.3333        1.5462       62.4035
        7        1      -13.9778       -1.7778        3.0894       52.9857
        7        1      -13.9778       -1.2222        7.5830       43.4502
        7        1      -13.9778       -0.6667        6.3973       30.4400
        7        1      -13.9778       -0.1111        1.0154       22.0079
        7        1      -13.9778        0.4444       -3.5952       16.6294
        7        1      -13.9778        1.0000       -8.0873       12.2216
  
        7        2      -11.6981       -4.0000      -18.6503       44.6947
        7        2      -11.6981       -3.4444      -17.0577       48.1054
        7        2      -11.6981       -2.8889       -8.1360       48.1893
        7        2      -11.6981       -2.3333       -2.4738       40.9472
        7        2      -11.6981       -1.7778       -0.9424       36.5494
        7        2      -11.6981       -1.2222        3.6096       30.9943
        7        2      -11.6981       -0.6667        3.7442       22.0265
        7        2      -11.6981       -0.1111        0.5724       16.2933
        7        2      -11.6981        0.4444       -1.9451       12.4975
        7        2      -11.6981        1.0000       -4.7038        9.0562
  
        7        3       -6.2742       -4.0000      -29.3892       75.0535
        7        3       -6.2742       -3.4444      -26.7432       79.6666
        7        3       -6.2742       -2.8889      -11.5676       79.8257
        7        3       -6.2742       -2.3333       -1.0485       66.8738
        7        3       -6.2742       -1.7778        1.3214       57.7002
        7        3       -6.2742       -1.2222        7.1644       47.7388
        7        3       -6.2742       -0.6667        6.3986       33.6567
        7        3       -6.2742       -0.1111        0.9796       24.7422
        7        3       -6.2742        0.4444       -3.3331       18.9535
        7        3       -6.2742        1.0000       -7.7724       13.8114
  
        7        4       -4.6174       -4.0000      -36.7018       65.6903
        7        4       -4.6174       -3.4444      -33.7515       73.3649
        7        4       -4.6174       -2.8889      -18.2162       75.5526
        7        4       -4.6174       -2.3333       -7.1244       64.8256
        7        4       -4.6174       -1.7778       -3.2334       57.7049
        7        4       -4.6174       -1.2222        4.8773       48.5301
        7        4       -4.6174       -0.6667        5.5595       34.0700
        7        4       -4.6174       -0.1111        0.8590       24.8668
        7        4       -4.6174        0.4444       -2.9149       18.8720
        7        4       -4.6174        1.0000       -7.0150       13.5595
  
     Average over degenerate eigenstates is performed

     ik =       8 coord.:    0.0000000   0.2500000   0.7500000
     -------------------------------------------------------------------
     E(   1 )= -15.0824 eV   Re[Sigma]=     -52.903785 meV Im[Sigma]=      40.892322 meV     Z=       1.002324 lam=      -0.002318
     E(   2 )= -10.2958 eV   Re[Sigma]=       7.199754 meV Im[Sigma]=      49.048234 meV     Z=       1.002324 lam=      -0.002318
     E(   3 )=  -6.4857 eV   Re[Sigma]=      -3.698463 meV Im[Sigma]=     170.586591 meV     Z=       1.078933 lam=      -0.073158
     E(   4 )=  -2.7288 eV   Re[Sigma]=      56.389302 meV Im[Sigma]=     100.066626 meV     Z=       1.020778 lam=      -0.020355
     -------------------------------------------------------------------

     WARNING: only the eigenstates within the Fermi window are meaningful

     ik =     8 coord.:    0.0000000   0.2500000   0.7500000
     -------------------------------------------------------------------
     ik =       8  w =   -4.0000 eV   A(k,w) =  0.21371E-04 meV^-1
     ik =       8  w =   -3.4444 eV   A(k,w) =  0.60907E-04 meV^-1
     ik =       8  w =   -2.8889 eV   A(k,w) =  0.10012E-02 meV^-1
     ik =       8  w =   -2.3333 eV   A(k,w) =  0.13797E-03 meV^-1
     ik =       8  w =   -1.7778 eV   A(k,w) =  0.24634E-04 meV^-1
     ik =       8  w =   -1.2222 eV   A(k,w) =  0.92214E-05 meV^-1
     ik =       8  w =   -0.6667 eV   A(k,w) =  0.36727E-05 meV^-1
     ik =       8  w =   -0.1111 eV   A(k,w) =  0.17252E-05 meV^-1
     ik =       8  w =    0.4444 eV   A(k,w) =  0.92336E-06 meV^-1
     ik =       8  w =    1.0000 eV   A(k,w) =  0.49996E-06 meV^-1
     -------------------------------------------------------------------

        8       -4.0000   0.21371E-04
        8       -3.4444   0.60907E-04
        8       -2.8889   0.10012E-02
        8       -2.3333   0.13797E-03
        8       -1.7778   0.24634E-04
        8       -1.2222   0.92214E-05
        8       -0.6667   0.36727E-05
        8       -0.1111   0.17252E-05
        8        0.4444   0.92336E-06
        8        1.0000   0.49996E-06
        8        1      -15.0824       -4.0000      -23.2905       74.0790
        8        1      -15.0824       -3.4444      -21.3600       75.6018
        8        1      -15.0824       -2.8889       -9.0455       73.8718
        8        1      -15.0824       -2.3333       -1.4468       61.8950
        8        1      -15.0824       -1.7778       -0.0398       54.5814
        8        1      -15.0824       -1.2222        6.0010       46.1266
        8        1      -15.0824       -0.6667        5.9371       32.6698
        8        1      -15.0824       -0.1111        0.9363       23.8574
        8        1      -15.0824        0.4444       -3.2619       18.1201
        8        1      -15.0824        1.0000       -7.6222       13.1737
  
        8        2      -10.2958       -4.0000      -20.5686       56.6905
        8        2      -10.2958       -3.4444      -19.1317       59.3145
        8        2      -10.2958       -2.8889       -8.8698       59.0073
        8        2      -10.2958       -2.3333       -2.3536       49.9865
        8        2      -10.2958       -1.7778       -0.7435       44.5787
        8        2      -10.2958       -1.2222        4.5420       37.7792
        8        2      -10.2958       -0.6667        4.4867       27.0392
        8        2      -10.2958       -0.1111        0.6545       20.3325
        8        2      -10.2958        0.4444       -2.1301       15.8014
        8        2      -10.2958        1.0000       -5.3177       11.4291
  
        8        3       -6.4857       -4.0000      -29.2620       74.5107
        8        3       -6.4857       -3.4444      -26.9586       76.5642
        8        3       -6.4857       -2.8889      -14.7533       75.2986
        8        3       -6.4857       -2.3333       -7.4350       64.6697
        8        3       -6.4857       -1.7778       -4.9908       59.4953
        8        3       -6.4857       -1.2222        3.9152       51.6750
        8        3       -6.4857       -0.6667        5.5206       36.7634
        8        3       -6.4857       -0.1111        0.8731       26.9146
        8        3       -6.4857        0.4444       -2.9852       20.4363
        8        3       -6.4857        1.0000       -7.3228       14.6612
  
        8        4       -2.7288       -4.0000      -36.9116       81.6340
        8        4       -2.7288       -3.4444      -33.8130       85.6751
        8        4       -2.7288       -2.8889      -19.3899       84.6268
        8        4       -2.7288       -2.3333      -11.1035       73.1178
        8        4       -2.7288       -1.7778       -7.8875       68.1884
        8        4       -2.7288       -1.2222        3.4123       59.7480
        8        4       -2.7288       -0.6667        6.1116       42.2930
        8        4       -2.7288       -0.1111        1.0103       30.5065
        8        4       -2.7288        0.4444       -3.5634       22.8455
        8        4       -2.7288        1.0000       -8.6380       16.3316
  
     Average over degenerate eigenstates is performed

     ik =       9 coord.:    0.0000000   0.5000000   0.0000000
     -------------------------------------------------------------------
     E(   1 )= -15.5805 eV   Re[Sigma]=     -62.627384 meV Im[Sigma]=      28.479277 meV     Z=       0.996675 lam=       0.003337
     E(   2 )= -13.6723 eV   Re[Sigma]=      -0.465069 meV Im[Sigma]=      91.796349 meV     Z=       1.017012 lam=      -0.016728
     E(   3 )=  -2.7987 eV   Re[Sigma]=      41.553418 meV Im[Sigma]=     123.337302 meV     Z=       1.027649 lam=      -0.026905
     E(   4 )=  -2.7987 eV   Re[Sigma]=      41.553418 meV Im[Sigma]=     123.337302 meV     Z=       1.027649 lam=      -0.026905
     -------------------------------------------------------------------

     WARNING: only the eigenstates within the Fermi window are meaningful

     ik =     9 coord.:    0.0000000   0.5000000   0.0000000
     -------------------------------------------------------------------
     ik =       9  w =   -4.0000 eV   A(k,w) =  0.46160E-04 meV^-1
     ik =       9  w =   -3.4444 eV   A(k,w) =  0.18104E-03 meV^-1
     ik =       9  w =   -2.8889 eV   A(k,w) =  0.52173E-02 meV^-1
     ik =       9  w =   -2.3333 eV   A(k,w) =  0.23443E-03 meV^-1
     ik =       9  w =   -1.7778 eV   A(k,w) =  0.56073E-04 meV^-1
     ik =       9  w =   -1.2222 eV   A(k,w) =  0.22797E-04 meV^-1
     ik =       9  w =   -0.6667 eV   A(k,w) =  0.90870E-05 meV^-1
     ik =       9  w =   -0.1111 eV   A(k,w) =  0.42454E-05 meV^-1
     ik =       9  w =    0.4444 eV   A(k,w) =  0.22503E-05 meV^-1
     ik =       9  w =    1.0000 eV   A(k,w) =  0.11485E-05 meV^-1
     -------------------------------------------------------------------

        9       -4.0000   0.46160E-04
        9       -3.4444   0.18104E-03
        9       -2.8889   0.52173E-02
        9       -2.3333   0.23443E-03
        9       -1.7778   0.56073E-04
        9       -1.2222   0.22797E-04
        9       -0.6667   0.90870E-05
        9       -0.1111   0.42454E-05
        9        0.4444   0.22503E-05
        9        1.0000   0.11485E-05
        9        1      -15.5805       -4.0000      -29.1349       84.5083
        9        1      -15.5805       -3.4444      -27.8675       84.6383
        9        1      -15.5805       -2.8889      -15.4158       83.8042
        9        1      -15.5805       -2.3333       -6.5171       72.0882
        9        1      -15.5805       -1.7778       -3.7168       65.2534
        9        1      -15.5805       -1.2222        5.2923       56.0341
        9        1      -15.5805       -0.6667        6.5215       39.6552
        9        1      -15.5805       -0.1111        1.0488       28.8047
        9        1      -15.5805        0.4444       -3.5836       21.8709
        9        1      -15.5805        1.0000       -8.4508       15.8001
  
        9        2      -13.6723       -4.0000      -14.0229       37.8222
        9        2      -13.6723       -3.4444      -14.0066       40.0340
        9        2      -13.6723       -2.8889       -8.2395       40.2190
        9        2      -13.6723       -2.3333       -4.9255       35.4818
        9        2      -13.6723       -1.7778       -3.5024       33.7871
        9        2      -13.6723       -1.2222        1.8260       29.8390
        9        2      -13.6723       -0.6667        2.6737       21.8426
        9        2      -13.6723       -0.1111        0.3457       16.9528
        9        2      -13.6723        0.4444       -1.0000       13.3904
        9        2      -13.6723        1.0000       -3.0873        9.5537
  
        9        3       -2.7987       -4.0000      -63.5059       93.8274
        9        3       -2.7987       -3.4444      -61.0978       99.8610
        9        3       -2.7987       -2.8889      -45.8022      102.9151
        9        3       -2.7987       -2.3333      -35.4835       95.6684
        9        3       -2.7987       -1.7778      -26.8865       97.2206
        9        3       -2.7987       -1.2222       -3.4737       89.0962
        9        3       -2.7987       -0.6667        5.2602       63.9273
        9        3       -2.7987       -0.1111        0.7973       47.3892
        9        3       -2.7987        0.4444       -2.1637       36.4312
        9        3       -2.7987        1.0000       -6.9621       25.3926
  
        9        4       -2.7987       -4.0000      -63.5059       93.8274
        9        4       -2.7987       -3.4444      -61.0978       99.8610
        9        4       -2.7987       -2.8889      -45.8022      102.9151
        9        4       -2.7987       -2.3333      -35.4835       95.6684
        9        4       -2.7987       -1.7778      -26.8865       97.2206
        9        4       -2.7987       -1.2222       -3.4737       89.0962
        9        4       -2.7987       -0.6667        5.2602       63.9273
        9        4       -2.7987       -0.1111        0.7973       47.3892
        9        4       -2.7987        0.4444       -2.1637       36.4312
        9        4       -2.7987        1.0000       -6.9621       25.3926
  
     Average over degenerate eigenstates is performed

     ik =      10 coord.:    0.0000000   0.5000000   0.2500000
     -------------------------------------------------------------------
     E(   1 )= -13.9778 eV   Re[Sigma]=     -43.945854 meV Im[Sigma]=      54.014418 meV     Z=       1.011252 lam=      -0.011127
     E(   2 )= -11.6981 eV   Re[Sigma]=       9.977651 meV Im[Sigma]=      60.208654 meV     Z=       1.008303 lam=      -0.008235
     E(   3 )=  -6.2742 eV   Re[Sigma]=      14.808217 meV Im[Sigma]=     138.806856 meV     Z=       1.053073 lam=      -0.050398
     E(   4 )=  -4.6174 eV   Re[Sigma]=      18.619153 meV Im[Sigma]=      66.696855 meV     Z=       1.007852 lam=      -0.007790
     -------------------------------------------------------------------

     WARNING: only the eigenstates within the Fermi window are meaningful

     ik =    10 coord.:    0.0000000   0.5000000   0.2500000
     -------------------------------------------------------------------
     ik =      10  w =   -4.0000 eV   A(k,w) =  0.52856E-04 meV^-1
     ik =      10  w =   -3.4444 eV   A(k,w) =  0.19268E-04 meV^-1
     ik =      10  w =   -2.8889 eV   A(k,w) =  0.10389E-04 meV^-1
     ik =      10  w =   -2.3333 eV   A(k,w) =  0.56208E-05 meV^-1
     ik =      10  w =   -1.7778 eV   A(k,w) =  0.35082E-05 meV^-1
     ik =      10  w =   -1.2222 eV   A(k,w) =  0.22089E-05 meV^-1
     ik =      10  w =   -0.6667 eV   A(k,w) =  0.12179E-05 meV^-1
     ik =      10  w =   -0.1111 eV   A(k,w) =  0.73348E-06 meV^-1
     ik =      10  w =    0.4444 eV   A(k,w) =  0.46844E-06 meV^-1
     ik =      10  w =    1.0000 eV   A(k,w) =  0.27969E-06 meV^-1
     -------------------------------------------------------------------

       10       -4.0000   0.52856E-04
       10       -3.4444   0.19268E-04
       10       -2.8889   0.10389E-04
       10       -2.3333   0.56208E-05
       10       -1.7778   0.35082E-05
       10       -1.2222   0.22089E-05
       10       -0.6667   0.12179E-05
       10       -0.1111   0.73348E-06
       10        0.4444   0.46844E-06
       10        1.0000   0.27969E-06
       10        1      -13.9778       -4.0000      -27.6614       70.5623
       10        1      -13.9778       -3.4444      -25.6882       74.5117
       10        1      -13.9778       -2.8889      -11.7328       74.9254
       10        1      -13.9778       -2.3333       -1.8709       62.9934
       10        1      -13.9778       -1.7778        0.4310       54.6486
       10        1      -13.9778       -1.2222        6.2032       45.4948
       10        1      -13.9778       -0.6667        5.7210       32.2804
       10        1      -13.9778       -0.1111        0.8506       23.9943
       10        1      -13.9778        0.4444       -2.8202       18.4983
       10        1      -13.9778        1.0000       -6.7925       13.3936
  
       10        2      -11.6981       -4.0000      -24.2957       53.5557
       10        2      -11.6981       -3.4444      -22.3845       57.9632
       10        2      -11.6981       -2.8889      -11.1490       58.6855
       10        2      -11.6981       -2.3333       -3.6905       49.9997
       10        2      -11.6981       -1.7778       -1.4849       44.5858
       10        2      -11.6981       -1.2222        4.1366       37.7149
       10        2      -11.6981       -0.6667        4.2480       26.9843
       10        2      -11.6981       -0.1111        0.6050       20.3745
       10        2      -11.6981        0.4444       -1.9210       15.8709
       10        2      -11.6981        1.0000       -4.9322       11.4258
  
       10        3       -6.2742       -4.0000      -28.0070       63.7910
       10        3       -6.2742       -3.4444      -25.3019       68.7097
       10        3       -6.2742       -2.8889      -11.7558       68.9796
       10        3       -6.2742       -2.3333       -2.7963       58.0723
       10        3       -6.2742       -1.7778       -0.5598       50.8577
       10        3       -6.2742       -1.2222        5.3024       42.6553
       10        3       -6.2742       -0.6667        5.2365       30.2222
       10        3       -6.2742       -0.1111        0.7953       22.3132
       10        3       -6.2742        0.4444       -2.6855       17.0930
       10        3       -6.2742        1.0000       -6.4508       12.3653
  
       10        4       -4.6174       -4.0000      -41.4931       66.8521
       10        4       -4.6174       -3.4444      -38.8058       74.5686
       10        4       -4.6174       -2.8889      -23.1797       77.7830
       10        4       -4.6174       -2.3333      -11.7729       68.0059
       10        4       -4.6174       -1.7778       -6.9201       62.3128
       10        4       -4.6174       -1.2222        3.1788       53.4121
       10        4       -4.6174       -0.6667        4.7357       38.2913
       10        4       -4.6174       -0.1111        0.6137       29.2373
       10        4       -4.6174        0.4444       -1.6426       22.9929
       10        4       -4.6174        1.0000       -4.9217       16.2780
  
     Average over degenerate eigenstates is performed

     ik =      11 coord.:    0.0000000   0.5000000   0.5000000
     -------------------------------------------------------------------
     E(   1 )= -12.7063 eV   Re[Sigma]=     -19.984976 meV Im[Sigma]=      69.233029 meV     Z=       1.003892 lam=      -0.003877
     E(   2 )= -12.7063 eV   Re[Sigma]=     -19.984976 meV Im[Sigma]=      69.233029 meV     Z=       1.003892 lam=      -0.003877
     E(   3 )=  -6.4360 eV   Re[Sigma]=       0.787075 meV Im[Sigma]=     105.540964 meV     Z=       1.043303 lam=      -0.041506
     E(   4 )=  -6.4360 eV   Re[Sigma]=       0.787075 meV Im[Sigma]=     105.540964 meV     Z=       1.043303 lam=      -0.041506
     -------------------------------------------------------------------

     WARNING: only the eigenstates within the Fermi window are meaningful

     ik =    11 coord.:    0.0000000   0.5000000   0.5000000
     -------------------------------------------------------------------
     ik =      11  w =   -4.0000 eV   A(k,w) =  0.63160E-05 meV^-1
     ik =      11  w =   -3.4444 eV   A(k,w) =  0.47870E-05 meV^-1
     ik =      11  w =   -2.8889 eV   A(k,w) =  0.36524E-05 meV^-1
     ik =      11  w =   -2.3333 eV   A(k,w) =  0.24860E-05 meV^-1
     ik =      11  w =   -1.7778 eV   A(k,w) =  0.18587E-05 meV^-1
     ik =      11  w =   -1.2222 eV   A(k,w) =  0.13196E-05 meV^-1
     ik =      11  w =   -0.6667 eV   A(k,w) =  0.79516E-06 meV^-1
     ik =      11  w =   -0.1111 eV   A(k,w) =  0.52244E-06 meV^-1
     ik =      11  w =    0.4444 eV   A(k,w) =  0.35624E-06 meV^-1
     ik =      11  w =    1.0000 eV   A(k,w) =  0.21835E-06 meV^-1
     -------------------------------------------------------------------

       11       -4.0000   0.63160E-05
       11       -3.4444   0.47870E-05
       11       -2.8889   0.36524E-05
       11       -2.3333   0.24860E-05
       11       -1.7778   0.18587E-05
       11       -1.2222   0.13196E-05
       11       -0.6667   0.79516E-06
       11       -0.1111   0.52244E-06
       11        0.4444   0.35624E-06
       11        1.0000   0.21835E-06
       11        1      -12.7063       -4.0000      -26.5810       64.5073
       11        1      -12.7063       -3.4444      -24.3407       66.3520
       11        1      -12.7063       -2.8889      -12.9740       65.9964
       11        1      -12.7063       -2.3333       -5.5573       56.4575
       11        1      -12.7063       -1.7778       -3.1903       51.1456
       11        1      -12.7063       -1.2222        3.7745       43.8357
       11        1      -12.7063       -0.6667        4.3758       31.6294
       11        1      -12.7063       -0.1111        0.5873       24.1857
       11        1      -12.7063        0.4444       -1.7454       18.9589
       11        1      -12.7063        1.0000       -4.8846       13.5240
  
       11        2      -12.7063       -4.0000      -26.5934       72.3205
       11        2      -12.7063       -3.4444      -23.9710       74.9513
       11        2      -12.7063       -2.8889      -10.6333       73.8928
       11        2      -12.7063       -2.3333       -2.3735       62.0411
       11        2      -12.7063       -1.7778       -0.4621       54.7997
       11        2      -12.7063       -1.2222        5.6293       46.1391
       11        2      -12.7063       -0.6667        5.2477       33.2190
       11        2      -12.7063       -0.1111        0.7130       25.4134
       11        2      -12.7063        0.4444       -2.1938       19.9464
       11        2      -12.7063        1.0000       -5.8002       14.3365
  
       11        3       -6.4360       -4.0000      -36.2398       57.3414
       11        3       -6.4360       -3.4444      -33.9924       63.7592
       11        3       -6.4360       -2.8889      -21.4088       66.2103
       11        3       -6.4360       -2.3333      -12.8144       58.8140
       11        3       -6.4360       -1.7778       -8.2800       55.7013
       11        3       -6.4360       -1.2222        1.8423       48.4301
       11        3       -6.4360       -0.6667        3.7162       34.9927
       11        3       -6.4360       -0.1111        0.4258       27.1820
       11        3       -6.4360        0.4444       -0.9208       21.6111
       11        3       -6.4360        1.0000       -3.4948       15.2148
  
       11        4       -6.4360       -4.0000      -34.7783       52.9661
       11        4       -6.4360       -3.4444      -32.7140       58.9106
       11        4       -6.4360       -2.8889      -21.0265       61.5029
       11        4       -6.4360       -2.3333      -12.8596       54.8525
       11        4       -6.4360       -1.7778       -8.5354       52.1672
       11        4       -6.4360       -1.2222        1.1587       45.6556
       11        4       -6.4360       -0.6667        3.1891       33.1753
       11        4       -6.4360       -0.1111        0.3367       25.9635
       11        4       -6.4360        0.4444       -0.5872       20.7348
       11        4       -6.4360        1.0000       -2.8053       14.5469
  
     Average over degenerate eigenstates is performed

     ik =      12 coord.:    0.0000000   0.5000000   0.7500000
     -------------------------------------------------------------------
     E(   1 )= -13.9778 eV   Re[Sigma]=     -43.945854 meV Im[Sigma]=      54.014418 meV     Z=       1.011252 lam=      -0.011127
     E(   2 )= -11.6981 eV   Re[Sigma]=       9.977651 meV Im[Sigma]=      60.208654 meV     Z=       1.008303 lam=      -0.008235
     E(   3 )=  -6.2742 eV   Re[Sigma]=      14.808217 meV Im[Sigma]=     138.806856 meV     Z=       1.053073 lam=      -0.050398
     E(   4 )=  -4.6174 eV   Re[Sigma]=      18.619153 meV Im[Sigma]=      66.696855 meV     Z=       1.007852 lam=      -0.007790
     -------------------------------------------------------------------

     WARNING: only the eigenstates within the Fermi window are meaningful

     ik =    12 coord.:    0.0000000   0.5000000   0.7500000
     -------------------------------------------------------------------
     ik =      12  w =   -4.0000 eV   A(k,w) =  0.52856E-04 meV^-1
     ik =      12  w =   -3.4444 eV   A(k,w) =  0.19268E-04 meV^-1
     ik =      12  w =   -2.8889 eV   A(k,w) =  0.10389E-04 meV^-1
     ik =      12  w =   -2.3333 eV   A(k,w) =  0.56208E-05 meV^-1
     ik =      12  w =   -1.7778 eV   A(k,w) =  0.35082E-05 meV^-1
     ik =      12  w =   -1.2222 eV   A(k,w) =  0.22089E-05 meV^-1
     ik =      12  w =   -0.6667 eV   A(k,w) =  0.12179E-05 meV^-1
     ik =      12  w =   -0.1111 eV   A(k,w) =  0.73348E-06 meV^-1
     ik =      12  w =    0.4444 eV   A(k,w) =  0.46844E-06 meV^-1
     ik =      12  w =    1.0000 eV   A(k,w) =  0.27969E-06 meV^-1
     -------------------------------------------------------------------

       12       -4.0000   0.52856E-04
       12       -3.4444   0.19268E-04
       12       -2.8889   0.10389E-04
       12       -2.3333   0.56208E-05
       12       -1.7778   0.35082E-05
       12       -1.2222   0.22089E-05
       12       -0.6667   0.12179E-05
       12       -0.1111   0.73348E-06
       12        0.4444   0.46844E-06
       12        1.0000   0.27969E-06
       12        1      -13.9778       -4.0000      -27.6614       70.5623
       12        1      -13.9778       -3.4444      -25.6882       74.5117
       12        1      -13.9778       -2.8889      -11.7328       74.9254
       12        1      -13.9778       -2.3333       -1.8709       62.9934
       12        1      -13.9778       -1.7778        0.4310       54.6486
       12        1      -13.9778       -1.2222        6.2032       45.4948
       12        1      -13.9778       -0.6667        5.7210       32.2804
       12        1      -13.9778       -0.1111        0.8506       23.9943
       12        1      -13.9778        0.4444       -2.8202       18.4983
       12        1      -13.9778        1.0000       -6.7925       13.3936
  
       12        2      -11.6981       -4.0000      -24.2957       53.5557
       12        2      -11.6981       -3.4444      -22.3845       57.9632
       12        2      -11.6981       -2.8889      -11.1490       58.6855
       12        2      -11.6981       -2.3333       -3.6905       49.9997
       12        2      -11.6981       -1.7778       -1.4849       44.5858
       12        2      -11.6981       -1.2222        4.1366       37.7149
       12        2      -11.6981       -0.6667        4.2480       26.9843
       12        2      -11.6981       -0.1111        0.6050       20.3745
       12        2      -11.6981        0.4444       -1.9210       15.8709
       12        2      -11.6981        1.0000       -4.9322       11.4258
  
       12        3       -6.2742       -4.0000      -28.0070       63.7910
       12        3       -6.2742       -3.4444      -25.3019       68.7097
       12        3       -6.2742       -2.8889      -11.7558       68.9796
       12        3       -6.2742       -2.3333       -2.7963       58.0723
       12        3       -6.2742       -1.7778       -0.5598       50.8577
       12        3       -6.2742       -1.2222        5.3024       42.6553
       12        3       -6.2742       -0.6667        5.2365       30.2222
       12        3       -6.2742       -0.1111        0.7953       22.3132
       12        3       -6.2742        0.4444       -2.6855       17.0930
       12        3       -6.2742        1.0000       -6.4508       12.3653
  
       12        4       -4.6174       -4.0000      -41.4931       66.8521
       12        4       -4.6174       -3.4444      -38.8058       74.5686
       12        4       -4.6174       -2.8889      -23.1797       77.7830
       12        4       -4.6174       -2.3333      -11.7729       68.0059
       12        4       -4.6174       -1.7778       -6.9201       62.3128
       12        4       -4.6174       -1.2222        3.1788       53.4121
       12        4       -4.6174       -0.6667        4.7357       38.2913
       12        4       -4.6174       -0.1111        0.6137       29.2373
       12        4       -4.6174        0.4444       -1.6426       22.9929
       12        4       -4.6174        1.0000       -4.9217       16.2780
  
     Average over degenerate eigenstates is performed

     ik =      13 coord.:    0.0000000   0.7500000   0.0000000
     -------------------------------------------------------------------
     E(   1 )= -18.4283 eV   Re[Sigma]=     -50.547945 meV Im[Sigma]=      15.860876 meV     Z=       0.999884 lam=       0.000116
     E(   2 )=  -7.0152 eV   Re[Sigma]=     -45.051658 meV Im[Sigma]=     174.636383 meV     Z=       1.049983 lam=      -0.047604
     E(   3 )=  -1.3549 eV   Re[Sigma]=      99.705357 meV Im[Sigma]=      85.568909 meV     Z=       1.012187 lam=      -0.012040
     E(   4 )=  -1.3549 eV   Re[Sigma]=      99.705357 meV Im[Sigma]=      85.568909 meV     Z=       1.012187 lam=      -0.012040
     -------------------------------------------------------------------

     WARNING: only the eigenstates within the Fermi window are meaningful

     ik =    13 coord.:    0.0000000   0.7500000   0.0000000
     -------------------------------------------------------------------
     ik =      13  w =   -4.0000 eV   A(k,w) =  0.14724E-04 meV^-1
     ik =      13  w =   -3.4444 eV   A(k,w) =  0.23204E-04 meV^-1
     ik =      13  w =   -2.8889 eV   A(k,w) =  0.40362E-04 meV^-1
     ik =      13  w =   -2.3333 eV   A(k,w) =  0.76845E-04 meV^-1
     ik =      13  w =   -1.7778 eV   A(k,w) =  0.32378E-03 meV^-1
     ik =      13  w =   -1.2222 eV   A(k,w) =  0.22813E-02 meV^-1
     ik =      13  w =   -0.6667 eV   A(k,w) =  0.83097E-04 meV^-1
     ik =      13  w =   -0.1111 eV   A(k,w) =  0.21482E-04 meV^-1
     ik =      13  w =    0.4444 eV   A(k,w) =  0.83193E-05 meV^-1
     ik =      13  w =    1.0000 eV   A(k,w) =  0.33868E-05 meV^-1
     -------------------------------------------------------------------

       13       -4.0000   0.14724E-04
       13       -3.4444   0.23204E-04
       13       -2.8889   0.40362E-04
       13       -2.3333   0.76845E-04
       13       -1.7778   0.32378E-03
       13       -1.2222   0.22813E-02
       13       -0.6667   0.83097E-04
       13       -0.1111   0.21482E-04
       13        0.4444   0.83193E-05
       13        1.0000   0.33868E-05
       13        1      -18.4283       -4.0000      -22.2034       85.8633
       13        1      -18.4283       -3.4444      -19.4166       88.5411
       13        1      -18.4283       -2.8889       -3.2047       86.2365
       13        1      -18.4283       -2.3333        7.1120       69.5362
       13        1      -18.4283       -1.7778        6.9750       56.9978
       13        1      -18.4283       -1.2222        9.0477       46.4605
       13        1      -18.4283       -0.6667        6.4257       33.8147
       13        1      -18.4283       -0.1111        0.8925       25.9947
       13        1      -18.4283        0.4444       -3.1013       20.1608
       13        1      -18.4283        1.0000       -7.7630       14.6649
  
       13        2       -7.0152       -4.0000      -37.6596       92.4624
       13        2       -7.0152       -3.4444      -34.0244       98.9308
       13        2       -7.0152       -2.8889      -14.2647       98.9392
       13        2       -7.0152       -2.3333       -1.3887       82.0150
       13        2       -7.0152       -1.7778        0.3318       70.3840
       13        2       -7.0152       -1.2222        6.2565       59.4297
       13        2       -7.0152       -0.6667        5.4062       44.2038
       13        2       -7.0152       -0.1111        0.5887       35.2180
       13        2       -7.0152        0.4444       -1.8110       27.6628
       13        2       -7.0152        1.0000       -6.2948       19.5472
  
       13        3       -1.3549       -4.0000      -65.9451      119.7811
       13        3       -1.3549       -3.4444      -58.6256      134.4294
       13        3       -1.3549       -2.8889      -26.7386      138.2365
       13        3       -1.3549       -2.3333       -3.6297      114.3616
       13        3       -1.3549       -1.7778        0.1510       95.4020
       13        3       -1.3549       -1.2222        6.5660       79.6773
       13        3       -1.3549       -0.6667        4.6463       61.1909
       13        3       -1.3549       -0.1111        0.0850       51.6480
       13        3       -1.3549        0.4444        0.3706       41.4158
       13        3       -1.3549        1.0000       -4.0706       28.6542
  
       13        4       -1.3549       -4.0000      -65.9451      119.7811
       13        4       -1.3549       -3.4444      -58.6256      134.4294
       13        4       -1.3549       -2.8889      -26.7386      138.2365
       13        4       -1.3549       -2.3333       -3.6297      114.3616
       13        4       -1.3549       -1.7778        0.1510       95.4020
       13        4       -1.3549       -1.2222        6.5660       79.6773
       13        4       -1.3549       -0.6667        4.6463       61.1909
       13        4       -1.3549       -0.1111        0.0850       51.6480
       13        4       -1.3549        0.4444        0.3706       41.4158
       13        4       -1.3549        1.0000       -4.0706       28.6542
  
     Average over degenerate eigenstates is performed

     ik =      14 coord.:    0.0000000   0.7500000   0.2500000
     -------------------------------------------------------------------
     E(   1 )= -15.0824 eV   Re[Sigma]=     -52.903785 meV Im[Sigma]=      40.892322 meV     Z=       1.002324 lam=      -0.002318
     E(   2 )= -10.2958 eV   Re[Sigma]=       7.199754 meV Im[Sigma]=      49.048234 meV     Z=       1.002324 lam=      -0.002318
     E(   3 )=  -6.4857 eV   Re[Sigma]=      -3.698463 meV Im[Sigma]=     170.586591 meV     Z=       1.078933 lam=      -0.073158
     E(   4 )=  -2.7288 eV   Re[Sigma]=      56.389302 meV Im[Sigma]=     100.066626 meV     Z=       1.020778 lam=      -0.020355
     -------------------------------------------------------------------

     WARNING: only the eigenstates within the Fermi window are meaningful

     ik =    14 coord.:    0.0000000   0.7500000   0.2500000
     -------------------------------------------------------------------
     ik =      14  w =   -4.0000 eV   A(k,w) =  0.21371E-04 meV^-1
     ik =      14  w =   -3.4444 eV   A(k,w) =  0.60907E-04 meV^-1
     ik =      14  w =   -2.8889 eV   A(k,w) =  0.10012E-02 meV^-1
     ik =      14  w =   -2.3333 eV   A(k,w) =  0.13797E-03 meV^-1
     ik =      14  w =   -1.7778 eV   A(k,w) =  0.24634E-04 meV^-1
     ik =      14  w =   -1.2222 eV   A(k,w) =  0.92214E-05 meV^-1
     ik =      14  w =   -0.6667 eV   A(k,w) =  0.36727E-05 meV^-1
     ik =      14  w =   -0.1111 eV   A(k,w) =  0.17252E-05 meV^-1
     ik =      14  w =    0.4444 eV   A(k,w) =  0.92336E-06 meV^-1
     ik =      14  w =    1.0000 eV   A(k,w) =  0.49996E-06 meV^-1
     -------------------------------------------------------------------

       14       -4.0000   0.21371E-04
       14       -3.4444   0.60907E-04
       14       -2.8889   0.10012E-02
       14       -2.3333   0.13797E-03
       14       -1.7778   0.24634E-04
       14       -1.2222   0.92214E-05
       14       -0.6667   0.36727E-05
       14       -0.1111   0.17252E-05
       14        0.4444   0.92336E-06
       14        1.0000   0.49996E-06
       14        1      -15.0824       -4.0000      -23.2905       74.0790
       14        1      -15.0824       -3.4444      -21.3600       75.6018
       14        1      -15.0824       -2.8889       -9.0455       73.8718
       14        1      -15.0824       -2.3333       -1.4468       61.8950
       14        1      -15.0824       -1.7778       -0.0398       54.5814
       14        1      -15.0824       -1.2222        6.0010       46.1266
       14        1      -15.0824       -0.6667        5.9371       32.6698
       14        1      -15.0824       -0.1111        0.9363       23.8574
       14        1      -15.0824        0.4444       -3.2619       18.1201
       14        1      -15.0824        1.0000       -7.6222       13.1737
  
       14        2      -10.2958       -4.0000      -20.5686       56.6905
       14        2      -10.2958       -3.4444      -19.1317       59.3145
       14        2      -10.2958       -2.8889       -8.8698       59.0073
       14        2      -10.2958       -2.3333       -2.3536       49.9865
       14        2      -10.2958       -1.7778       -0.7435       44.5787
       14        2      -10.2958       -1.2222        4.5420       37.7792
       14        2      -10.2958       -0.6667        4.4867       27.0392
       14        2      -10.2958       -0.1111        0.6545       20.3325
       14        2      -10.2958        0.4444       -2.1301       15.8014
       14        2      -10.2958        1.0000       -5.3177       11.4291
  
       14        3       -6.4857       -4.0000      -29.2620       74.5107
       14        3       -6.4857       -3.4444      -26.9586       76.5642
       14        3       -6.4857       -2.8889      -14.7533       75.2986
       14        3       -6.4857       -2.3333       -7.4350       64.6697
       14        3       -6.4857       -1.7778       -4.9908       59.4953
       14        3       -6.4857       -1.2222        3.9152       51.6750
       14        3       -6.4857       -0.6667        5.5206       36.7634
       14        3       -6.4857       -0.1111        0.8731       26.9146
       14        3       -6.4857        0.4444       -2.9852       20.4363
       14        3       -6.4857        1.0000       -7.3228       14.6612
  
       14        4       -2.7288       -4.0000      -36.9116       81.6340
       14        4       -2.7288       -3.4444      -33.8130       85.6751
       14        4       -2.7288       -2.8889      -19.3899       84.6268
       14        4       -2.7288       -2.3333      -11.1035       73.1178
       14        4       -2.7288       -1.7778       -7.8875       68.1884
       14        4       -2.7288       -1.2222        3.4123       59.7480
       14        4       -2.7288       -0.6667        6.1116       42.2930
       14        4       -2.7288       -0.1111        1.0103       30.5065
       14        4       -2.7288        0.4444       -3.5634       22.8455
       14        4       -2.7288        1.0000       -8.6380       16.3316
  
     Average over degenerate eigenstates is performed

     ik =      15 coord.:    0.0000000   0.7500000   0.5000000
     -------------------------------------------------------------------
     E(   1 )= -13.9778 eV   Re[Sigma]=     -44.326171 meV Im[Sigma]=      58.590453 meV     Z=       1.012987 lam=      -0.012821
[...]


     iq =    23 coord.:   0.25000  0.25000  0.50000 wt:   0.01562
     -------------------------------------------------------------------
     Nesting function (q)=   0.381226E+00 [Adimensional]
     -------------------------------------------------------------------


     Number of (k,k+q) pairs on the Fermi surface:       64 out of       64


     iq =    24 coord.:   0.25000  0.25000  0.75000 wt:   0.01562
     -------------------------------------------------------------------
     Nesting function (q)=   0.305234E-02 [Adimensional]
     -------------------------------------------------------------------


     Number of (k,k+q) pairs on the Fermi surface:       64 out of       64


     iq =    25 coord.:   0.25000  0.50000  0.00000 wt:   0.01562
     -------------------------------------------------------------------
     Nesting function (q)=   0.305234E-02 [Adimensional]
     -------------------------------------------------------------------


     Number of (k,k+q) pairs on the Fermi surface:       64 out of       64


     iq =    26 coord.:   0.25000  0.50000  0.25000 wt:   0.01562
     -------------------------------------------------------------------
     Nesting function (q)=   0.381226E+00 [Adimensional]
     -------------------------------------------------------------------


     Number of (k,k+q) pairs on the Fermi surface:       64 out of       64


     iq =    27 coord.:   0.25000  0.50000  0.50000 wt:   0.01562
     -------------------------------------------------------------------
     Nesting function (q)=   0.305234E-02 [Adimensional]
     -------------------------------------------------------------------


     Number of (k,k+q) pairs on the Fermi surface:       64 out of       64


     iq =    28 coord.:   0.25000  0.50000  0.75000 wt:   0.01562
     -------------------------------------------------------------------
     Nesting function (q)=   0.728708E-05 [Adimensional]
     -------------------------------------------------------------------


     Number of (k,k+q) pairs on the Fermi surface:       64 out of       64


     iq =    29 coord.:   0.25000  0.75000  0.00000 wt:   0.01562
     -------------------------------------------------------------------
     Nesting function (q)=   0.381226E+00 [Adimensional]
     -------------------------------------------------------------------


     Number of (k,k+q) pairs on the Fermi surface:       64 out of       64


     iq =    30 coord.:   0.25000  0.75000  0.25000 wt:   0.01562
     -------------------------------------------------------------------
     Nesting function (q)=   0.305234E-02 [Adimensional]
     -------------------------------------------------------------------


     Number of (k,k+q) pairs on the Fermi surface:       64 out of       64


     iq =    31 coord.:   0.25000  0.75000  0.50000 wt:   0.01562
     -------------------------------------------------------------------
     Nesting function (q)=   0.728708E-05 [Adimensional]
     -------------------------------------------------------------------


     Number of (k,k+q) pairs on the Fermi surface:       64 out of       64


     iq =    32 coord.:   0.25000  0.75000  0.75000 wt:   0.01562
     -------------------------------------------------------------------
     Nesting function (q)=   0.305234E-02 [Adimensional]
     -------------------------------------------------------------------


     Number of (k,k+q) pairs on the Fermi surface:       64 out of       64


     iq =    33 coord.:   0.50000  0.00000  0.00000 wt:   0.01562
     -------------------------------------------------------------------
     Nesting function (q)=   0.383515E+00 [Adimensional]
     -------------------------------------------------------------------


     Number of (k,k+q) pairs on the Fermi surface:       64 out of       64


     iq =    34 coord.:   0.50000  0.00000  0.25000 wt:   0.01562
     -------------------------------------------------------------------
     Nesting function (q)=   0.305234E-02 [Adimensional]
     -------------------------------------------------------------------


     Number of (k,k+q) pairs on the Fermi surface:       64 out of       64


     iq =    35 coord.:   0.50000  0.00000  0.50000 wt:   0.01562
     -------------------------------------------------------------------
     Nesting function (q)=   0.121749E-04 [Adimensional]
     -------------------------------------------------------------------


     Number of (k,k+q) pairs on the Fermi surface:       64 out of       64


     iq =    36 coord.:   0.50000  0.00000  0.75000 wt:   0.01562
     -------------------------------------------------------------------
     Nesting function (q)=   0.305234E-02 [Adimensional]
     -------------------------------------------------------------------


     Number of (k,k+q) pairs on the Fermi surface:       64 out of       64


     iq =    37 coord.:   0.50000  0.25000  0.00000 wt:   0.01562
     -------------------------------------------------------------------
     Nesting function (q)=   0.305234E-02 [Adimensional]
     -------------------------------------------------------------------


     Number of (k,k+q) pairs on the Fermi surface:       64 out of       64


     iq =    38 coord.:   0.50000  0.25000  0.25000 wt:   0.01562
     -------------------------------------------------------------------
     Nesting function (q)=   0.381226E+00 [Adimensional]
     -------------------------------------------------------------------


     Number of (k,k+q) pairs on the Fermi surface:       64 out of       64


     iq =    39 coord.:   0.50000  0.25000  0.50000 wt:   0.01562
     -------------------------------------------------------------------
     Nesting function (q)=   0.305234E-02 [Adimensional]
     -------------------------------------------------------------------


     Number of (k,k+q) pairs on the Fermi surface:       64 out of       64


     iq =    40 coord.:   0.50000  0.25000  0.75000 wt:   0.01562
     -------------------------------------------------------------------
     Nesting function (q)=   0.728708E-05 [Adimensional]
     -------------------------------------------------------------------


     Number of (k,k+q) pairs on the Fermi surface:       64 out of       64


     iq =    41 coord.:   0.50000  0.50000  0.00000 wt:   0.01562
     -------------------------------------------------------------------
     Nesting function (q)=   0.121749E-04 [Adimensional]
     -------------------------------------------------------------------


     Number of (k,k+q) pairs on the Fermi surface:       64 out of       64


     iq =    42 coord.:   0.50000  0.50000  0.25000 wt:   0.01562
     -------------------------------------------------------------------
     Nesting function (q)=   0.305234E-02 [Adimensional]
     -------------------------------------------------------------------


     Number of (k,k+q) pairs on the Fermi surface:       64 out of       64


     iq =    43 coord.:   0.50000  0.50000  0.50000 wt:   0.01562
     -------------------------------------------------------------------
     Nesting function (q)=   0.383515E+00 [Adimensional]
     -------------------------------------------------------------------


     Number of (k,k+q) pairs on the Fermi surface:       64 out of       64


     iq =    44 coord.:   0.50000  0.50000  0.75000 wt:   0.01562
     -------------------------------------------------------------------
     Nesting function (q)=   0.305234E-02 [Adimensional]
     -------------------------------------------------------------------


     Number of (k,k+q) pairs on the Fermi surface:       64 out of       64


     iq =    45 coord.:   0.50000  0.75000  0.00000 wt:   0.01562
     -------------------------------------------------------------------
     Nesting function (q)=   0.305234E-02 [Adimensional]
     -------------------------------------------------------------------


     Number of (k,k+q) pairs on the Fermi surface:       64 out of       64


     iq =    46 coord.:   0.50000  0.75000  0.25000 wt:   0.01562
     -------------------------------------------------------------------
     Nesting function (q)=   0.728708E-05 [Adimensional]
     -------------------------------------------------------------------


     Number of (k,k+q) pairs on the Fermi surface:       64 out of       64


     iq =    47 coord.:   0.50000  0.75000  0.50000 wt:   0.01562
     -------------------------------------------------------------------
     Nesting function (q)=   0.305234E-02 [Adimensional]
     -------------------------------------------------------------------


     Number of (k,k+q) pairs on the Fermi surface:       64 out of       64


     iq =    48 coord.:   0.50000  0.75000  0.75000 wt:   0.01562
     -------------------------------------------------------------------
     Nesting function (q)=   0.381226E+00 [Adimensional]
     -------------------------------------------------------------------


     Number of (k,k+q) pairs on the Fermi surface:       64 out of       64


     iq =    49 coord.:   0.75000  0.00000  0.00000 wt:   0.01562
     -------------------------------------------------------------------
     Nesting function (q)=   0.350004E+01 [Adimensional]
     -------------------------------------------------------------------


     Number of (k,k+q) pairs on the Fermi surface:       64 out of       64


     iq =    50 coord.:   0.75000  0.00000  0.25000 wt:   0.01562
     -------------------------------------------------------------------
     Nesting function (q)=   0.381226E+00 [Adimensional]
     -------------------------------------------------------------------


     Number of (k,k+q) pairs on the Fermi surface:       64 out of       64


     iq =    51 coord.:   0.75000  0.00000  0.50000 wt:   0.01562
     -------------------------------------------------------------------
     Nesting function (q)=   0.305234E-02 [Adimensional]
     -------------------------------------------------------------------


     Number of (k,k+q) pairs on the Fermi surface:       64 out of       64


     iq =    52 coord.:   0.75000  0.00000  0.75000 wt:   0.01562
     -------------------------------------------------------------------
     Nesting function (q)=   0.750245E+00 [Adimensional]
     -------------------------------------------------------------------


     Number of (k,k+q) pairs on the Fermi surface:       64 out of       64


     iq =    53 coord.:   0.75000  0.25000  0.00000 wt:   0.01562
     -------------------------------------------------------------------
     Nesting function (q)=   0.381226E+00 [Adimensional]
     -------------------------------------------------------------------


     Number of (k,k+q) pairs on the Fermi surface:       64 out of       64


     iq =    54 coord.:   0.75000  0.25000  0.25000 wt:   0.01562
     -------------------------------------------------------------------
     Nesting function (q)=   0.305234E-02 [Adimensional]
     -------------------------------------------------------------------


     Number of (k,k+q) pairs on the Fermi surface:       64 out of       64


     iq =    55 coord.:   0.75000  0.25000  0.50000 wt:   0.01562
     -------------------------------------------------------------------
     Nesting function (q)=   0.728708E-05 [Adimensional]
     -------------------------------------------------------------------


     Number of (k,k+q) pairs on the Fermi surface:       64 out of       64


     iq =    56 coord.:   0.75000  0.25000  0.75000 wt:   0.01562
     -------------------------------------------------------------------
     Nesting function (q)=   0.305234E-02 [Adimensional]
     -------------------------------------------------------------------


     Number of (k,k+q) pairs on the Fermi surface:       64 out of       64


     iq =    57 coord.:   0.75000  0.50000  0.00000 wt:   0.01562
     -------------------------------------------------------------------
     Nesting function (q)=   0.305234E-02 [Adimensional]
     -------------------------------------------------------------------


     Number of (k,k+q) pairs on the Fermi surface:       64 out of       64


     iq =    58 coord.:   0.75000  0.50000  0.25000 wt:   0.01562
     -------------------------------------------------------------------
     Nesting function (q)=   0.728708E-05 [Adimensional]
     -------------------------------------------------------------------


     Number of (k,k+q) pairs on the Fermi surface:       64 out of       64


     iq =    59 coord.:   0.75000  0.50000  0.50000 wt:   0.01562
     -------------------------------------------------------------------
     Nesting function (q)=   0.305234E-02 [Adimensional]
     -------------------------------------------------------------------


     Number of (k,k+q) pairs on the Fermi surface:       64 out of       64


     iq =    60 coord.:   0.75000  0.50000  0.75000 wt:   0.01562
     -------------------------------------------------------------------
     Nesting function (q)=   0.381226E+00 [Adimensional]
     -------------------------------------------------------------------


     Number of (k,k+q) pairs on the Fermi surface:       64 out of       64


     iq =    61 coord.:   0.75000  0.75000  0.00000 wt:   0.01562
     -------------------------------------------------------------------
     Nesting function (q)=   0.750245E+00 [Adimensional]
     -------------------------------------------------------------------


     Number of (k,k+q) pairs on the Fermi surface:       64 out of       64


     iq =    62 coord.:   0.75000  0.75000  0.25000 wt:   0.01562
     -------------------------------------------------------------------
     Nesting function (q)=   0.305234E-02 [Adimensional]
     -------------------------------------------------------------------


     Number of (k,k+q) pairs on the Fermi surface:       64 out of       64


     iq =    63 coord.:   0.75000  0.75000  0.50000 wt:   0.01562
     -------------------------------------------------------------------
     Nesting function (q)=   0.381226E+00 [Adimensional]
     -------------------------------------------------------------------


     Number of (k,k+q) pairs on the Fermi surface:       64 out of       64


     iq =    64 coord.:   0.75000  0.75000  0.75000 wt:   0.01562
     -------------------------------------------------------------------
     Nesting function (q)=   0.350004E+01 [Adimensional]
     -------------------------------------------------------------------


     Number of (k,k+q) pairs on the Fermi surface:       64 out of       64

     WARNING: only the eigenstates within the Fermi window are meaningful

     ik =    64 coord.:    0.7500000   0.7500000   0.7500000
     -------------------------------------------------------------------
     ik =      64  w =   -4.0000 eV   A(k,w) =  0.15688E-04 meV^-1
     ik =      64  w =   -3.4444 eV   A(k,w) =  0.24868E-04 meV^-1
     ik =      64  w =   -2.8889 eV   A(k,w) =  0.43508E-04 meV^-1
     ik =      64  w =   -2.3333 eV   A(k,w) =  0.84212E-04 meV^-1
     ik =      64  w =   -1.7778 eV   A(k,w) =  0.36314E-03 meV^-1
     ik =      64  w =   -1.2222 eV   A(k,w) =  0.24250E-02 meV^-1
     ik =      64  w =   -0.6667 eV   A(k,w) =  0.90142E-04 meV^-1
     ik =      64  w =   -0.1111 eV   A(k,w) =  0.21844E-04 meV^-1
     ik =      64  w =    0.4444 eV   A(k,w) =  0.83379E-05 meV^-1
     ik =      64  w =    1.0000 eV   A(k,w) =  0.34367E-05 meV^-1
     -------------------------------------------------------------------

       64       -4.0000   0.15688E-04
       64       -3.4444   0.24868E-04
       64       -2.8889   0.43508E-04
       64       -2.3333   0.84212E-04
       64       -1.7778   0.36314E-03
       64       -1.2222   0.24250E-02
       64       -0.6667   0.90142E-04
       64       -0.1111   0.21844E-04
       64        0.4444   0.83379E-05
       64        1.0000   0.34367E-05
       64        1      -18.4283       -4.0000      -23.9750       88.6081
       64        1      -18.4283       -3.4444      -21.3080       90.7974
       64        1      -18.4283       -2.8889       -4.8606       88.6900
       64        1      -18.4283       -2.3333        5.7637       71.9747
       64        1      -18.4283       -1.7778        6.1419       59.6838
       64        1      -18.4283       -1.2222        9.2359       48.7499
       64        1      -18.4283       -0.6667        6.9161       35.0546
       64        1      -18.4283       -0.1111        0.9994       26.5050
       64        1      -18.4283        0.4444       -3.4264       20.5068
       64        1      -18.4283        1.0000       -8.2623       14.9665
  
       64        2       -7.0152       -4.0000      -34.1561       85.8353
       64        2       -7.0152       -3.4444      -29.3832       91.8469
       64        2       -7.0152       -2.8889       -9.8386       90.6414
       64        2       -7.0152       -2.3333        2.0959       73.6498
       64        2       -7.0152       -1.7778        3.3556       61.7991
       64        2       -7.0152       -1.2222        8.0512       50.9670
       64        2       -7.0152       -0.6667        6.7798       36.3313
       64        2       -7.0152       -0.1111        1.0186       26.9621
       64        2       -7.0152        0.4444       -3.5441       20.5854
       64        2       -7.0152        1.0000       -8.4575       14.9454
  
       64        3       -1.3549       -4.0000      -71.7961      129.5798
       64        3       -1.3549       -3.4444      -64.4925      143.1367
       64        3       -1.3549       -2.8889      -31.7131      146.8685
       64        3       -1.3549       -2.3333       -8.3467      122.8875
       64        3       -1.3549       -1.7778       -2.8150      105.4214
       64        3       -1.3549       -1.2222        7.9441       88.2942
       64        3       -1.3549       -0.6667        7.4020       65.1347
       64        3       -1.3549       -0.1111        0.7176       52.0659
       64        3       -1.3549        0.4444       -1.6288       41.4353
       64        3       -1.3549        1.0000       -6.9999       29.0853
  
       64        4       -1.3549       -4.0000      -74.7664      133.2815
       64        4       -1.3549       -3.4444      -66.9254      147.6983
       64        4       -1.3549       -2.8889      -32.7507      151.5546
       64        4       -1.3549       -2.3333       -8.4985      126.7073
       64        4       -1.3549       -1.7778       -2.7232      108.5783
       64        4       -1.3549       -1.2222        8.3830       90.7986
       64        4       -1.3549       -0.6667        7.8068       66.7933
       64        4       -1.3549       -0.1111        0.7900       53.1517
       64        4       -1.3549        0.4444       -1.9035       42.1942
       64        4       -1.3549        1.0000       -7.5686       29.6494
  

     Unfolding on the coarse grid
     elphon_wrap  :      0.00s CPU      0.00s WALL (       1 calls)

     INITIALIZATION: 



     Electron-Phonon interpolation
     ephwann      :      3.41s CPU      1.27s WALL (       1 calls)
     ep-interp    :      3.35s CPU      1.25s WALL (      64 calls)

     DynW2B       :      0.64s CPU      0.25s WALL (    4096 calls)
     HamW2B       :      0.54s CPU      0.20s WALL (    8320 calls)
     ephW2Bp      :      0.49s CPU      0.17s WALL (    4096 calls)


     Total program execution
     EPW          :     3.41s CPU         1.27s WALL

                                                                                          
 Please consider citing:                                                                  
 S. Ponce, E. R. Margine, C. Verdi and F. Giustino, Comput. Phys. Commun. 209, 116 (2016) 
                                                                                          
