                                                                                      
                                       ``:oss/                                        
                           `.+s+.     .+ys--yh+     `./ss+.                           
                          -sh//yy+`   +yy   +yy    -+h+-oyy                           
                          -yh- .oyy/.-sh.   .syo-.:sy-  /yh                           
                 `.-.`    `yh+   -oyyyo.     `/syys:    oys      `.`                  
               `/+ssys+-` `sh+      `                   oys`   .:osyo`                
               -yh- ./syyooyo`                          .sys+/oyo--yh/                
               `yy+    .-:-.                             `-/+/:`  -sh-                
                /yh.                                              oys                 
          ``..---hho---------`   .---------..`      `.-----.`    -hd+---.             
       `./osmNMMMMMMMMMMMMMMMs. +NNMMMMMMMMNNmh+.   yNMMMMMNm-  oNMMMMMNmo++:`        
       +sy--/sdMMMhyyyyyyyNMMh- .oyNMMmyyyyyhNMMm+` -yMMMdyyo:` .oyyNMMNhs+syy`       
       -yy/   /MMM+.`-+/``mMMy-   `mMMh:`````.dMMN:` `MMMy-`-dhhy```mMMy:``+hs        
        -yy+` /MMMo:-mMM+`-oo/.    mMMh:     `dMMN/`  dMMm:`dMMMMy..MMMo-.+yo`        
         .sys`/MMMMNNMMMs-         mMMmyooooymMMNo:   oMMM/sMMMMMM++MMN//oh:          
          `sh+/MMMhyyMMMs- `-`     mMMMMMMMMMNmy+-`   -MMMhMMMsmMMmdMMd/yy+           
    `-/+++oyy-/MMM+.`/hh/.`mNm:`   mMMd+/////:-.`      NMMMMMd/:NMMMMMy:/yyo/:.`      
   +os+//:-..-oMMMo:--:::-/MMMo. .-mMMd+---`           hMMMMN+. oMMMMMo. `-+osyso:`   
   syo     `mNMMMMMNNNNNNNNMMMo.oNNMMMMMNNNN:`         +MMMMs:`  dMMMN/`     ``:syo   
   /yh`     :syyyyyyyyyyyyyyyy+.`+syyyyyyyyo:`         .oyys:`   .oyys:`        +yh   
   -yh-        ````````````````    `````````              ``        ``          oys   
   -+h/------------------------::::::::://////++++++++++++++++++++++///////::::/yd:   
   shdddddddddddddddddddddddddddddhhhhhhhhyyyyyssssssssssssssssyyyyyyyhhhhhhhddddh`   
                                                                                      
  S. Ponce, E. R. Margine, C. Verdi, and F. Giustino,                                 
                                                Comput. Phys. Commun. 209, 116 (2016) 
                                                                                      

     Program EPW v.5.0.0 starts on 11Oct2018 at 14:46:34 

     This program is part of the open-source Quantum ESPRESSO suite
     for quantum simulation of materials; please cite
         "P. Giannozzi et al., J. Phys.:Condens. Matter 21 395502 (2009);
         "P. Giannozzi et al., J. Phys.:Condens. Matter 29 465901 (2017);
          URL http://www.quantum-espresso.org", 
     in publications or presentations arising from this work. More details at
     http://www.quantum-espresso.org/quote

     Parallel version (MPI), running on     1 processors

     MPI processes distributed on     1 nodes
                      
     ------------------------------------------------------------------------ 
                   RESTART - RESTART - RESTART - RESTART                         
     Restart is done without reading PWSCF save file.                  
     Be aware that some consistency checks are therefore not done.                  
     ------------------------------------------------------------------------ 
                      

     --                                                                         

     bravais-lattice index     =            0
     lattice parameter (a_0)   =       0.0000  a.u.
     unit-cell volume          =       0.0000 (a.u.)^3
     number of atoms/cell      =            0
     number of atomic types    =            0
     kinetic-energy cut-off    =       0.0000  Ry
     charge density cut-off    =       0.0000  Ry
     convergence threshold     =      0.0E+00
     beta                      =       0.0000
     number of iterations used =            0
     Exchange-correlation      = not set (-1 -1 -1 -1-1-1)


     celldm(1)=    0.00000  celldm(2)=    0.00000  celldm(3)=    0.00000
     celldm(4)=    0.00000  celldm(5)=    0.00000  celldm(6)=    0.00000

     crystal axes: (cart. coord. in units of a_0)
               a(1) = (  0.0000  0.0000  0.0000 )  
               a(2) = (  0.0000  0.0000  0.0000 )  
               a(3) = (  0.0000  0.0000  0.0000 )  

     reciprocal axes: (cart. coord. in units 2 pi/a_0)
               b(1) = (  0.0000  0.0000  0.0000 )  
               b(2) = (  0.0000  0.0000  0.0000 )  
               b(3) = (  0.0000  0.0000  0.0000 )  


     Atoms inside the unit cell: 

   Cartesian axes

     site n.  atom      mass           positions (a_0 units)


     No symmetry!

     G cutoff =    0.0000  (      0 G-vectors)     FFT grid: (  0,  0,  0)
     number of k points=    0
                       cart. coord. in units 2pi/a_0

     ====================================================================================================
     Performing the CUMULANT EXPANSION to obtain the electron spectral function
     There is no spin degeneracy factor, as in spectral_func.f90
     Warning: the time-ordered cumulant expansion is well-defined only for states below the Fermi energy
     Warning: the routine is sequential but very fast.
     ====================================================================================================

     Check: nk =  216, ibndmin =    1, ibndmax =    4 kbT (eV) =     0.025852

        k  Energy [eV]  A(k,w)[eV^-1]
        2    -4.00000   0.33677E-02
        2    -3.73680   0.34728E-02
        2    -3.47370   0.36777E-02
        2    -3.21050   0.42494E-02
        2    -2.94740   0.52422E-02
        2    -2.68420   0.69407E-02
        2    -2.42110   0.95981E-02
        2    -2.15790   0.13735E-01
        2    -1.89470   0.20644E-01
        2    -1.63160   0.34042E-01
        2    -1.36840   0.63651E-01
        2    -1.10530   0.19341E+00
        2    -0.84210   0.36340E+00
        2    -0.57890   0.37452E+01
        2    -0.31580   0.35531E+00
        2    -0.05260   0.84850E-01
        2     0.21050   0.12616E-04
        2     0.47370   0.27063E-09
        2     0.73680   0.65272E-14
        2     1.00000   0.17192E-18
 
        3    -4.00000   0.23076E-01
        3    -3.73680   0.18951E-01
        3    -3.47370   0.23833E-01
        3    -3.21050   0.35461E-01
        3    -2.94740   0.61337E-01
        3    -2.68420   0.13321E+00
        3    -2.42110   0.46108E+00
        3    -2.15790   0.26153E+01
        3    -1.89470   0.46095E+00
        3    -1.63160   0.13293E+00
        3    -1.36840   0.60841E-01
        3    -1.10530   0.34601E-01
        3    -0.84210   0.22189E-01
        3    -0.57890   0.15448E-01
        3    -0.31580   0.11368E-01
        3    -0.05260   0.77051E-02
        3     0.21050   0.20035E-05
        3     0.47370   0.61524E-10
        3     0.73680   0.19344E-14
        3     1.00000   0.61593E-19
 
        4    -4.00000   0.37326E-01
        4    -3.73680   0.65140E-01
        4    -3.47370   0.14133E+00
        4    -3.21050   0.48125E+00
        4    -2.94740   0.24446E+01
        4    -2.68420   0.48087E+00
        4    -2.42110   0.14115E+00
        4    -2.15790   0.64821E-01
        4    -1.89470   0.36841E-01
        4    -1.63160   0.23710E-01
        4    -1.36840   0.16513E-01
        4    -1.10530   0.12155E-01
        4    -0.84210   0.93165E-02
        4    -0.57890   0.73668E-02
        4    -0.31580   0.59708E-02
        4    -0.05260   0.43658E-02
        4     0.21050   0.12068E-05
        4     0.47370   0.38974E-10
        4     0.73680   0.12783E-14
        4     1.00000   0.42189E-19
 
        5    -4.00000   0.22830E-01
        5    -3.73680   0.18822E-01
        5    -3.47370   0.23707E-01
        5    -3.21050   0.35294E-01
        5    -2.94740   0.61069E-01
        5    -2.68420   0.13267E+00
        5    -2.42110   0.45974E+00
        5    -2.15790   0.26270E+01
        5    -1.89470   0.45961E+00
        5    -1.63160   0.13240E+00
        5    -1.36840   0.60581E-01
        5    -1.10530   0.34450E-01
        5    -0.84210   0.22092E-01
        5    -0.57890   0.15380E-01
        5    -0.31580   0.11318E-01
        5    -0.05260   0.76710E-02
        5     0.21050   0.19946E-05
        5     0.47370   0.61251E-10
        5     0.73680   0.19259E-14
        5     1.00000   0.61319E-19
 
        6    -4.00000   0.33601E-02
        6    -3.73680   0.34635E-02
        6    -3.47370   0.36664E-02
        6    -3.21050   0.42387E-02
        6    -2.94740   0.52289E-02
        6    -2.68420   0.69215E-02
        6    -2.42110   0.95765E-02
        6    -2.15790   0.13712E-01
        6    -1.89470   0.20619E-01
        6    -1.63160   0.34015E-01
        6    -1.36840   0.63599E-01
        6    -1.10530   0.19344E+00
        6    -0.84210   0.36252E+00
        6    -0.57890   0.37565E+01
        6    -0.31580   0.35444E+00
        6    -0.05260   0.84608E-01
        6     0.21050   0.12579E-04
        6     0.47370   0.26982E-09
        6     0.73680   0.65077E-14
        6     1.00000   0.17140E-18
 
        7    -4.00000   0.31973E-02
        7    -3.73680   0.32939E-02
        7    -3.47370   0.34909E-02
        7    -3.21050   0.42045E-02
        7    -2.94740   0.51618E-02
        7    -2.68420   0.67076E-02
        7    -2.42110   0.93385E-02
        7    -2.15790   0.13430E-01
        7    -1.89470   0.20221E-01
        7    -1.63160   0.33323E-01
        7    -1.36840   0.62222E-01
        7    -1.10530   0.19053E+00
        7    -0.84210   0.35483E+00
        7    -0.57890   0.38525E+01
        7    -0.31580   0.34717E+00
        7    -0.05260   0.82581E-01
        7     0.21050   0.12269E-04
        7     0.47370   0.26308E-09
        7     0.73680   0.63466E-14
        7     1.00000   0.16715E-18
 
        8    -4.00000   0.89911E-02
        8    -3.73680   0.13323E-01
        8    -3.47370   0.31828E-01
        8    -3.21050   0.14278E+00
        8    -2.94740   0.36859E-01
        8    -2.68420   0.34731E-01
        8    -2.42110   0.54748E-01
        8    -2.15790   0.11688E+00
        8    -1.89470   0.41603E+00
        8    -1.63160   0.30452E+01
        8    -1.36840   0.41535E+00
        8    -1.10530   0.11591E+00
        8    -0.84210   0.52728E-01
        8    -0.57890   0.29940E-01
        8    -0.31580   0.19101E-01
        8    -0.05260   0.11753E-01
        8     0.21050   0.28430E-05
        8     0.47370   0.82541E-10
        8     0.73680   0.24816E-14
        8     1.00000   0.76173E-19
 
        9    -4.00000   0.24535E-01
        9    -3.73680   0.37976E-01
        9    -3.47370   0.66557E-01
        9    -3.21050   0.14459E+00
        9    -2.94740   0.48881E+00
        9    -2.68420   0.23773E+01
        9    -2.42110   0.48909E+00
        9    -2.15790   0.14455E+00
        9    -1.89470   0.66491E-01
        9    -1.63160   0.37869E-01
        9    -1.36840   0.24365E-01
        9    -1.10530   0.16975E-01
        9    -0.84210   0.12494E-01
        9    -0.57890   0.95772E-02
        9    -0.31580   0.75740E-02
        9    -0.05260   0.54288E-02
        9     0.21050   0.14761E-05
        9     0.47370   0.47016E-10
        9     0.73680   0.15239E-14
        9     1.00000   0.49787E-19
 
       10    -4.00000   0.28157E+01
       10    -3.73680   0.43870E+00
       10    -3.47370   0.12431E+00
       10    -3.21050   0.56681E-01
       10    -2.94740   0.32205E-01
       10    -2.68420   0.20633E-01
       10    -2.42110   0.14362E-01
       10    -2.15790   0.10565E-01
       10    -1.89470   0.80958E-02
       10    -1.63160   0.64009E-02
       10    -1.36840   0.51868E-02
       10    -1.10530   0.42881E-02
       10    -0.84210   0.36040E-02
       10    -0.57890   0.30714E-02
       10    -0.31580   0.26488E-02
       10    -0.05260   0.20408E-02
       10     0.21050   0.58992E-06
       10     0.47370   0.19803E-10
       10     0.73680   0.67180E-15
       10     1.00000   0.22842E-19
 
       11    -4.00000   0.22946E-01
       11    -3.73680   0.35451E-01
       11    -3.47370   0.62154E-01
       11    -3.21050   0.13555E+00
       11    -2.94740   0.46743E+00
       11    -2.68420   0.25579E+01
       11    -2.42110   0.46770E+00
       11    -2.15790   0.13549E+00
       11    -1.89470   0.62051E-01
       11    -1.63160   0.35285E-01
       11    -1.36840   0.22677E-01
       11    -1.10530   0.15792E-01
       11    -0.84210   0.11621E-01
       11    -0.57890   0.89062E-02
       11    -0.31580   0.70425E-02
       11    -0.05260   0.50474E-02
       11     0.21050   0.13723E-05
       11     0.47370   0.43708E-10
       11     0.73680   0.14167E-14
       11     1.00000   0.46282E-19
 
       12    -4.00000   0.30862E-02
       12    -3.73680   0.34872E-02
       12    -3.47370   0.46314E-02
       12    -3.21050   0.58063E-02
       12    -2.94740   0.71462E-02
       12    -2.68420   0.87427E-02
       12    -2.42110   0.11704E-01
       12    -2.15790   0.19042E-01
       12    -1.89470   0.53590E-01
       12    -1.63160   0.43245E-01
       12    -1.36840   0.90914E-01
       12    -1.10530   0.33793E+00
       12    -0.84210   0.39635E+01
       12    -0.57890   0.33772E+00
       12    -0.31580   0.90274E-01
       12    -0.05260   0.35952E-01
       12     0.21050   0.66715E-05
       12     0.47370   0.16212E-09
       12     0.73680   0.42867E-14
       12     1.00000   0.11938E-18
 
       13    -4.00000   0.22303E-01
       13    -3.73680   0.18430E-01
       13    -3.47370   0.23255E-01
       13    -3.21050   0.34651E-01
       13    -2.94740   0.59994E-01
       13    -2.68420   0.13048E+00
       13    -2.42110   0.45422E+00
       13    -2.15790   0.26758E+01
       13    -1.89470   0.45410E+00
       13    -1.63160   0.13022E+00
       13    -1.36840   0.59524E-01
       13    -1.10530   0.33837E-01
       13    -0.84210   0.21696E-01
       13    -0.57890   0.15103E-01
       13    -0.31580   0.11113E-01
       13    -0.05260   0.75321E-02
       13     0.21050   0.19585E-05
       13     0.47370   0.60139E-10
       13     0.73680   0.18909E-14
       13     1.00000   0.60205E-19
 
       14    -4.00000   0.24071E-01
       14    -3.73680   0.37258E-01
       14    -3.47370   0.65323E-01
       14    -3.21050   0.14208E+00
       14    -2.94740   0.48306E+00
       14    -2.68420   0.24251E+01
       14    -2.42110   0.48334E+00
       14    -2.15790   0.14204E+00
       14    -1.89470   0.65254E-01
       14    -1.63160   0.37148E-01
       14    -1.36840   0.23895E-01
       14    -1.10530   0.16645E-01
       14    -0.84210   0.12251E-01
       14    -0.57890   0.93901E-02
       14    -0.31580   0.74257E-02
       14    -0.05260   0.53224E-02
       14     0.21050   0.14472E-05
       14     0.47370   0.46093E-10
       14     0.73680   0.14940E-14
       14     1.00000   0.48809E-19
 
       15    -4.00000   0.33054E+01
       15    -3.73680   0.39025E+00
       15    -3.47370   0.10708E+00
       15    -3.21050   0.48457E-01
       15    -2.94740   0.27436E-01
       15    -2.68420   0.17611E-01
       15    -2.42110   0.12250E-01
       15    -2.15790   0.90087E-02
       15    -1.89470   0.69014E-02
       15    -1.63160   0.54556E-02
       15    -1.36840   0.44203E-02
       15    -1.10530   0.36541E-02
       15    -0.84210   0.30709E-02
       15    -0.57890   0.26170E-02
       15    -0.31580   0.22568E-02
       15    -0.05260   0.17387E-02
       15     0.21050   0.50259E-06
       15     0.47370   0.16871E-10
       15     0.73680   0.57232E-15
       15     1.00000   0.19459E-19
 
       16    -4.00000   0.36582E+01
       16    -3.73680   0.36042E+00
       16    -3.47370   0.97331E-01
       16    -3.21050   0.43902E-01
       16    -2.94740   0.24828E-01
       16    -2.68420   0.15928E-01
       16    -2.42110   0.11076E-01
       16    -2.15790   0.81439E-02
       16    -1.89470   0.62382E-02
       16    -1.63160   0.49310E-02
       16    -1.36840   0.39950E-02
       16    -1.10530   0.33024E-02
       16    -0.84210   0.27752E-02
       16    -0.57890   0.23649E-02
       16    -0.31580   0.20394E-02
       16    -0.05260   0.15712E-02
       16     0.21050   0.45416E-06
       16     0.47370   0.15245E-10
       16     0.73680   0.51717E-15
       16     1.00000   0.17584E-19
 
       17    -4.00000   0.30490E+01
       17    -3.73680   0.41449E+00
       17    -3.47370   0.11543E+00
       17    -3.21050   0.52398E-01
       17    -2.94740   0.29701E-01
       17    -2.68420   0.19074E-01
       17    -2.42110   0.13272E-01
       17    -2.15790   0.97617E-02
       17    -1.89470   0.74791E-02
       17    -1.63160   0.59128E-02
       17    -1.36840   0.47909E-02
       17    -1.10530   0.39607E-02
       17    -0.84210   0.33287E-02
       17    -0.57890   0.28367E-02
       17    -0.31580   0.24463E-02
       17    -0.05260   0.18848E-02
       17     0.21050   0.54481E-06
       17     0.47370   0.18288E-10
       17     0.73680   0.62041E-15
       17     1.00000   0.21095E-19
 
       18    -4.00000   0.22933E-01
       18    -3.73680   0.35419E-01
       18    -3.47370   0.62089E-01
       18    -3.21050   0.13540E+00
       18    -2.94740   0.46707E+00
       18    -2.68420   0.25610E+01
       18    -2.42110   0.46733E+00
       18    -2.15790   0.13534E+00
       18    -1.89470   0.61980E-01
       18    -1.63160   0.35244E-01
       18    -1.36840   0.22650E-01
       18    -1.10530   0.15773E-01
       18    -0.84210   0.11606E-01
       18    -0.57890   0.88952E-02
       18    -0.31580   0.70338E-02
       18    -0.05260   0.50412E-02
       18     0.21050   0.13706E-05
       18     0.47370   0.43654E-10
       18     0.73680   0.14149E-14
       18     1.00000   0.46225E-19
 
       19    -4.00000   0.36656E-01
       19    -3.73680   0.63981E-01
       19    -3.47370   0.13896E+00
       19    -3.21050   0.47564E+00
       19    -2.94740   0.24919E+01
       19    -2.68420   0.47526E+00
       19    -2.42110   0.13877E+00
       19    -2.15790   0.63657E-01
       19    -1.89470   0.36162E-01
       19    -1.63160   0.23268E-01
       19    -1.36840   0.16204E-01
       19    -1.10530   0.11926E-01
       19    -0.84210   0.91408E-02
       19    -0.57890   0.72277E-02
       19    -0.31580   0.58579E-02
       19    -0.05260   0.42832E-02
       19     0.21050   0.11840E-05
       19     0.47370   0.38236E-10
       19     0.73680   0.12541E-14
       19     1.00000   0.41390E-19
 
       20    -4.00000   0.28328E+01
       20    -3.73680   0.43686E+00
       20    -3.47370   0.12362E+00
       20    -3.21050   0.56351E-01
       20    -2.94740   0.32014E-01
       20    -2.68420   0.20510E-01
       20    -2.42110   0.14276E-01
       20    -2.15790   0.10502E-01
       20    -1.89470   0.80471E-02
       20    -1.63160   0.63624E-02
       20    -1.36840   0.51555E-02
       20    -1.10530   0.42623E-02
       20    -0.84210   0.35823E-02
       20    -0.57890   0.30528E-02
       20    -0.31580   0.26328E-02
       20    -0.05260   0.20285E-02
       20     0.21050   0.58636E-06
       20     0.47370   0.19683E-10
       20     0.73680   0.66774E-15
       20     1.00000   0.22704E-19
 
       21    -4.00000   0.36767E+01
       21    -3.73680   0.35897E+00
       21    -3.47370   0.96868E-01
       21    -3.21050   0.43686E-01
       21    -2.94740   0.24705E-01
       21    -2.68420   0.15848E-01
       21    -2.42110   0.11021E-01
       21    -2.15790   0.81032E-02
       21    -1.89470   0.62070E-02
       21    -1.63160   0.49063E-02
       21    -1.36840   0.39750E-02
       21    -1.10530   0.32858E-02
       21    -0.84210   0.27613E-02
       21    -0.57890   0.23531E-02
       21    -0.31580   0.20291E-02
       21    -0.05260   0.15633E-02
       21     0.21050   0.45188E-06
       21     0.47370   0.15169E-10
       21     0.73680   0.51457E-15
       21     1.00000   0.17496E-19
 
       22    -4.00000   0.43437E+01
       22    -3.73680   0.31250E+00
       22    -3.47370   0.82610E-01
       22    -3.21050   0.37103E-01
       22    -2.94740   0.20951E-01
       22    -2.68420   0.13431E-01
       22    -2.42110   0.93368E-02
       22    -2.15790   0.68632E-02
       22    -1.89470   0.52564E-02
       22    -1.63160   0.41545E-02
       22    -1.36840   0.33656E-02
       22    -1.10530   0.27820E-02
       22    -0.84210   0.23378E-02
       22    -0.57890   0.19921E-02
       22    -0.31580   0.17178E-02
       22    -0.05260   0.13235E-02
       22     0.21050   0.38254E-06
       22     0.47370   0.12841E-10
       22     0.73680   0.43560E-15
       22     1.00000   0.14810E-19
 
       23    -4.00000   0.36767E+01
       23    -3.73680   0.35897E+00
       23    -3.47370   0.96868E-01
       23    -3.21050   0.43686E-01
       23    -2.94740   0.24705E-01
       23    -2.68420   0.15848E-01
       23    -2.42110   0.11021E-01
       23    -2.15790   0.81032E-02
       23    -1.89470   0.62070E-02
       23    -1.63160   0.49063E-02
       23    -1.36840   0.39749E-02
       23    -1.10530   0.32858E-02
       23    -0.84210   0.27613E-02
       23    -0.57890   0.23531E-02
       23    -0.31580   0.20291E-02
       23    -0.05260   0.15633E-02
       23     0.21050   0.45188E-06
       23     0.47370   0.15169E-10
       23     0.73680   0.51457E-15
       23     1.00000   0.17496E-19
 
       24    -4.00000   0.28328E+01
       24    -3.73680   0.43686E+00
       24    -3.47370   0.12362E+00
       24    -3.21050   0.56351E-01
       24    -2.94740   0.32014E-01
       24    -2.68420   0.20510E-01
       24    -2.42110   0.14276E-01
       24    -2.15790   0.10502E-01
       24    -1.89470   0.80471E-02
       24    -1.63160   0.63624E-02
       24    -1.36840   0.51555E-02
       24    -1.10530   0.42623E-02
       24    -0.84210   0.35823E-02
       24    -0.57890   0.30528E-02
       24    -0.31580   0.26328E-02
       24    -0.05260   0.20285E-02
       24     0.21050   0.58636E-06
       24     0.47370   0.19683E-10
       24     0.73680   0.66774E-15
       24     1.00000   0.22704E-19
 
       25    -4.00000   0.22303E-01
       25    -3.73680   0.18430E-01
       25    -3.47370   0.23255E-01
       25    -3.21050   0.34651E-01
       25    -2.94740   0.59994E-01
       25    -2.68420   0.13048E+00
       25    -2.42110   0.45422E+00
       25    -2.15790   0.26758E+01
       25    -1.89470   0.45410E+00
       25    -1.63160   0.13022E+00
       25    -1.36840   0.59524E-01
       25    -1.10530   0.33837E-01
       25    -0.84210   0.21696E-01
       25    -0.57890   0.15103E-01
       25    -0.31580   0.11113E-01
       25    -0.05260   0.75321E-02
       25     0.21050   0.19585E-05
       25     0.47370   0.60139E-10
       25     0.73680   0.18909E-14
       25     1.00000   0.60205E-19
 
       26    -4.00000   0.22933E-01
       26    -3.73680   0.35419E-01
       26    -3.47370   0.62089E-01
       26    -3.21050   0.13540E+00
       26    -2.94740   0.46707E+00
       26    -2.68420   0.25610E+01
       26    -2.42110   0.46733E+00
       26    -2.15790   0.13534E+00
       26    -1.89470   0.61980E-01
       26    -1.63160   0.35244E-01
       26    -1.36840   0.22650E-01
       26    -1.10530   0.15773E-01
       26    -0.84210   0.11606E-01
       26    -0.57890   0.88952E-02
       26    -0.31580   0.70338E-02
       26    -0.05260   0.50412E-02
       26     0.21050   0.13706E-05
       26     0.47370   0.43654E-10
       26     0.73680   0.14149E-14
       26     1.00000   0.46225E-19
 
       27    -4.00000   0.30490E+01
       27    -3.73680   0.41449E+00
       27    -3.47370   0.11543E+00
       27    -3.21050   0.52398E-01
       27    -2.94740   0.29701E-01
       27    -2.68420   0.19074E-01
       27    -2.42110   0.13272E-01
       27    -2.15790   0.97617E-02
       27    -1.89470   0.74791E-02
       27    -1.63160   0.59128E-02
       27    -1.36840   0.47909E-02
       27    -1.10530   0.39607E-02
       27    -0.84210   0.33287E-02
       27    -0.57890   0.28367E-02
       27    -0.31580   0.24463E-02
       27    -0.05260   0.18848E-02
       27     0.21050   0.54481E-06
       27     0.47370   0.18288E-10
       27     0.73680   0.62041E-15
       27     1.00000   0.21095E-19
 
       28    -4.00000   0.36582E+01
       28    -3.73680   0.36042E+00
       28    -3.47370   0.97331E-01
       28    -3.21050   0.43902E-01
       28    -2.94740   0.24828E-01
       28    -2.68420   0.15928E-01
       28    -2.42110   0.11076E-01
       28    -2.15790   0.81439E-02
       28    -1.89470   0.62382E-02
       28    -1.63160   0.49310E-02
       28    -1.36840   0.39950E-02
       28    -1.10530   0.33024E-02
       28    -0.84210   0.27752E-02
       28    -0.57890   0.23649E-02
       28    -0.31580   0.20394E-02
       28    -0.05260   0.15712E-02
       28     0.21050   0.45416E-06
       28     0.47370   0.15245E-10
       28     0.73680   0.51717E-15
       28     1.00000   0.17584E-19
 
       29    -4.00000   0.32930E+01
       29    -3.73680   0.39137E+00
       29    -3.47370   0.10746E+00
       29    -3.21050   0.48635E-01
       29    -2.94740   0.27538E-01
       29    -2.68420   0.17677E-01
       29    -2.42110   0.12296E-01
       29    -2.15790   0.90426E-02
       29    -1.89470   0.69274E-02
       29    -1.63160   0.54762E-02
       29    -1.36840   0.44370E-02
       29    -1.10530   0.36679E-02
       29    -0.84210   0.30826E-02
       29    -0.57890   0.26269E-02
       29    -0.31580   0.22653E-02
       29    -0.05260   0.17453E-02
       29     0.21050   0.50449E-06
       29     0.47370   0.16935E-10
       29     0.73680   0.57449E-15
       29     1.00000   0.19533E-19
 
       30    -4.00000   0.24071E-01
       30    -3.73680   0.37258E-01
       30    -3.47370   0.65323E-01
       30    -3.21050   0.14208E+00
       30    -2.94740   0.48306E+00
       30    -2.68420   0.24251E+01
       30    -2.42110   0.48334E+00
       30    -2.15790   0.14204E+00
       30    -1.89470   0.65254E-01
       30    -1.63160   0.37148E-01
       30    -1.36840   0.23895E-01
       30    -1.10530   0.16645E-01
       30    -0.84210   0.12251E-01
       30    -0.57890   0.93901E-02
       30    -0.31580   0.74257E-02
       30    -0.05260   0.53224E-02
       30     0.21050   0.14472E-05
       30     0.47370   0.46093E-10
       30     0.73680   0.14940E-14
       30     1.00000   0.48809E-19
 
       31    -4.00000   0.31973E-02
       31    -3.73680   0.32938E-02
       31    -3.47370   0.34909E-02
       31    -3.21050   0.42045E-02
       31    -2.94740   0.51618E-02
       31    -2.68420   0.67076E-02
       31    -2.42110   0.93385E-02
       31    -2.15790   0.13430E-01
       31    -1.89470   0.20221E-01
       31    -1.63160   0.33323E-01
       31    -1.36840   0.62222E-01
       31    -1.10530   0.19053E+00
       31    -0.84210   0.35483E+00
       31    -0.57890   0.38525E+01
       31    -0.31580   0.34717E+00
       31    -0.05260   0.82581E-01
       31     0.21050   0.12269E-04
       31     0.47370   0.26308E-09
       31     0.73680   0.63466E-14
       31     1.00000   0.16715E-18
 
       32    -4.00000   0.30862E-02
       32    -3.73680   0.34872E-02
       32    -3.47370   0.46314E-02
       32    -3.21050   0.58063E-02
       32    -2.94740   0.71462E-02
       32    -2.68420   0.87426E-02
       32    -2.42110   0.11704E-01
       32    -2.15790   0.19042E-01
       32    -1.89470   0.53590E-01
       32    -1.63160   0.43245E-01
       32    -1.36840   0.90914E-01
       32    -1.10530   0.33793E+00
       32    -0.84210   0.39635E+01
       32    -0.57890   0.33772E+00
       32    -0.31580   0.90274E-01
       32    -0.05260   0.35952E-01
       32     0.21050   0.66715E-05
       32     0.47370   0.16212E-09
       32     0.73680   0.42867E-14
       32     1.00000   0.11938E-18
 
       33    -4.00000   0.22946E-01
       33    -3.73680   0.35451E-01
       33    -3.47370   0.62154E-01
       33    -3.21050   0.13555E+00
       33    -2.94740   0.46743E+00
       33    -2.68420   0.25579E+01
       33    -2.42110   0.46769E+00
       33    -2.15790   0.13549E+00
       33    -1.89470   0.62051E-01
       33    -1.63160   0.35285E-01
       33    -1.36840   0.22677E-01
       33    -1.10530   0.15792E-01
       33    -0.84210   0.11621E-01
       33    -0.57890   0.89062E-02
       33    -0.31580   0.70425E-02
       33    -0.05260   0.50474E-02
       33     0.21050   0.13723E-05
       33     0.47370   0.43708E-10
       33     0.73680   0.14167E-14
       33     1.00000   0.46282E-19
 
       34    -4.00000   0.28157E+01
       34    -3.73680   0.43870E+00
       34    -3.47370   0.12431E+00
       34    -3.21050   0.56681E-01
       34    -2.94740   0.32205E-01
       34    -2.68420   0.20633E-01
       34    -2.42110   0.14362E-01
       34    -2.15790   0.10565E-01
       34    -1.89470   0.80958E-02
       34    -1.63160   0.64009E-02
       34    -1.36840   0.51868E-02
       34    -1.10530   0.42881E-02
       34    -0.84210   0.36040E-02
       34    -0.57890   0.30714E-02
       34    -0.31580   0.26488E-02
       34    -0.05260   0.20408E-02
       34     0.21050   0.58992E-06
       34     0.47370   0.19803E-10
       34     0.73680   0.67180E-15
       34     1.00000   0.22842E-19
 
       35    -4.00000   0.24535E-01
       35    -3.73680   0.37976E-01
       35    -3.47370   0.66557E-01
       35    -3.21050   0.14459E+00
       35    -2.94740   0.48881E+00
       35    -2.68420   0.23773E+01
       35    -2.42110   0.48909E+00
       35    -2.15790   0.14455E+00
       35    -1.89470   0.66491E-01
       35    -1.63160   0.37869E-01
       35    -1.36840   0.24365E-01
       35    -1.10530   0.16975E-01
       35    -0.84210   0.12494E-01
       35    -0.57890   0.95772E-02
       35    -0.31580   0.75740E-02
       35    -0.05260   0.54288E-02
       35     0.21050   0.14761E-05
       35     0.47370   0.47016E-10
       35     0.73680   0.15239E-14
       35     1.00000   0.49787E-19
 
       36    -4.00000   0.93301E-02
       36    -3.73680   0.13519E-01
       36    -3.47370   0.32400E-01
       36    -3.21050   0.14297E+00
       36    -2.94740   0.37964E-01
       36    -2.68420   0.35605E-01
       36    -2.42110   0.55996E-01
       36    -2.15790   0.11936E+00
       36    -1.89470   0.42285E+00
       36    -1.63160   0.29776E+01
       36    -1.36840   0.42216E+00
       36    -1.10530   0.11834E+00
       36    -0.84210   0.53889E-01
       36    -0.57890   0.30611E-01
       36    -0.31580   0.19529E-01
       36    -0.05260   0.12018E-01
       36     0.21050   0.29072E-05
       36     0.47370   0.84407E-10
       36     0.73680   0.25378E-14
       36     1.00000   0.77899E-19
 
       37    -4.00000   0.33641E-02
       37    -3.73680   0.34683E-02
       37    -3.47370   0.36723E-02
       37    -3.21050   0.42443E-02
       37    -2.94740   0.52358E-02
       37    -2.68420   0.69315E-02
       37    -2.42110   0.95877E-02
       37    -2.15790   0.13724E-01
       37    -1.89470   0.20632E-01
       37    -1.63160   0.34029E-01
       37    -1.36840   0.63626E-01
       37    -1.10530   0.19342E+00
       37    -0.84210   0.36298E+00
       37    -0.57890   0.37506E+01
       37    -0.31580   0.35490E+00
       37    -0.05260   0.84734E-01
       37     0.21050   0.12599E-04
       37     0.47370   0.27024E-09
       37     0.73680   0.65178E-14
       37     1.00000   0.17167E-18
 
       38    -4.00000   0.91803E-02
       38    -3.73680   0.13424E-01
       38    -3.47370   0.32144E-01
       38    -3.21050   0.14289E+00
       38    -2.94740   0.37477E-01
       38    -2.68420   0.35220E-01
       38    -2.42110   0.55447E-01
       38    -2.15790   0.11827E+00
       38    -1.89470   0.41986E+00
       38    -1.63160   0.30070E+01
       38    -1.36840   0.41918E+00
       38    -1.10530   0.11727E+00
       38    -0.84210   0.53378E-01
       38    -0.57890   0.30316E-01
       38    -0.31580   0.19341E-01
       38    -0.05260   0.11901E-01
       38     0.21050   0.28789E-05
       38     0.47370   0.83585E-10
       38     0.73680   0.25130E-14
       38     1.00000   0.77139E-19
 
       39    -4.00000   0.24167E-01
       39    -3.73680   0.37403E-01
       39    -3.47370   0.65568E-01
       39    -3.21050   0.14258E+00
       39    -2.94740   0.48421E+00
       39    -2.68420   0.24155E+01
       39    -2.42110   0.48448E+00
       39    -2.15790   0.14253E+00
       39    -1.89470   0.65498E-01
       39    -1.63160   0.37291E-01
       39    -1.36840   0.23987E-01
       39    -1.10530   0.16710E-01
       39    -0.84210   0.12298E-01
       39    -0.57890   0.94269E-02
       39    -0.31580   0.74549E-02
       39    -0.05260   0.53433E-02
       39     0.21050   0.14529E-05
       39     0.47370   0.46274E-10
       39     0.73680   0.14999E-14
       39     1.00000   0.49002E-19
 
       40    -4.00000   0.27747E+01
       40    -3.73680   0.44313E+00
       40    -3.47370   0.12598E+00
       40    -3.21050   0.57486E-01
       40    -2.94740   0.32671E-01
       40    -2.68420   0.20934E-01
       40    -2.42110   0.14572E-01
       40    -2.15790   0.10720E-01
       40    -1.89470   0.82148E-02
       40    -1.63160   0.64951E-02
       40    -1.36840   0.52632E-02
       40    -1.10530   0.43514E-02
       40    -0.84210   0.36572E-02
       40    -0.57890   0.31167E-02
       40    -0.31580   0.26878E-02
       40    -0.05260   0.20709E-02
       40     0.21050   0.59863E-06
       40     0.47370   0.20095E-10
       40     0.73680   0.68172E-15
       40     1.00000   0.23179E-19
 
       41    -4.00000   0.23394E-01
       41    -3.73680   0.36064E-01
       41    -3.47370   0.63146E-01
       41    -3.21050   0.13752E+00
       41    -2.94740   0.47217E+00
       41    -2.68420   0.25175E+01
       41    -2.42110   0.47242E+00
       41    -2.15790   0.13744E+00
       41    -1.89470   0.63009E-01
       41    -1.63160   0.35846E-01
       41    -1.36840   0.23034E-01
       41    -1.10530   0.16042E-01
       41    -0.84210   0.11805E-01
       41    -0.57890   0.90480E-02
       41    -0.31580   0.71548E-02
       41    -0.05260   0.51280E-02
       41     0.21050   0.13943E-05
       41     0.47370   0.44407E-10
       41     0.73680   0.14393E-14
       41     1.00000   0.47022E-19
 
       42    -4.00000   0.32417E-02
       42    -3.73680   0.34958E-02
       42    -3.47370   0.46818E-02
       42    -3.21050   0.59131E-02
       42    -2.94740   0.73042E-02
       42    -2.68420   0.89250E-02
       42    -2.42110   0.11923E-01
       42    -2.15790   0.19402E-01
       42    -1.89470   0.54616E-01
       42    -1.63160   0.44020E-01
       42    -1.36840   0.92335E-01
       42    -1.10530   0.34243E+00
       42    -0.84210   0.39008E+01
       42    -0.57890   0.34221E+00
       42    -0.31580   0.91661E-01
       42    -0.05260   0.36520E-01
       42     0.21050   0.67775E-05
       42     0.47370   0.16471E-09
       42     0.73680   0.43553E-14
       42     1.00000   0.12130E-18
 
       43    -4.00000   0.92691E-02
       43    -3.73680   0.13473E-01
       43    -3.47370   0.32296E-01
       43    -3.21050   0.14294E+00
       43    -2.94740   0.37769E-01
       43    -2.68420   0.35450E-01
       43    -2.42110   0.55776E-01
       43    -2.15790   0.11892E+00
       43    -1.89470   0.42166E+00
       43    -1.63160   0.29893E+01
       43    -1.36840   0.42097E+00
       43    -1.10530   0.11791E+00
       43    -0.84210   0.53684E-01
       43    -0.57890   0.30493E-01
       43    -0.31580   0.19454E-01
       43    -0.05260   0.11971E-01
       43     0.21050   0.28959E-05
       43     0.47370   0.84078E-10
       43     0.73680   0.25279E-14
       43     1.00000   0.77594E-19
 
       44    -4.00000   0.33600E-02
       44    -3.73680   0.34633E-02
       44    -3.47370   0.36662E-02
       44    -3.21050   0.42385E-02
       44    -2.94740   0.52286E-02
       44    -2.68420   0.69211E-02
       44    -2.42110   0.95761E-02
       44    -2.15790   0.13711E-01
       44    -1.89470   0.20619E-01
       44    -1.63160   0.34015E-01
       44    -1.36840   0.63598E-01
       44    -1.10530   0.19344E+00
       44    -0.84210   0.36250E+00
       44    -0.57890   0.37567E+01
       44    -0.31580   0.35443E+00
       44    -0.05260   0.84603E-01
       44     0.21050   0.12579E-04
       44     0.47370   0.26980E-09
       44     0.73680   0.65073E-14
       44     1.00000   0.17139E-18
 
       45    -4.00000   0.32417E-02
       45    -3.73680   0.34958E-02
       45    -3.47370   0.46818E-02
       45    -3.21050   0.59131E-02
       45    -2.94740   0.73042E-02
       45    -2.68420   0.89250E-02
       45    -2.42110   0.11923E-01
       45    -2.15790   0.19402E-01
       45    -1.89470   0.54616E-01
       45    -1.63160   0.44020E-01
       45    -1.36840   0.92335E-01
       45    -1.10530   0.34243E+00
       45    -0.84210   0.39008E+01
       45    -0.57890   0.34221E+00
       45    -0.31580   0.91661E-01
       45    -0.05260   0.36520E-01
       45     0.21050   0.67775E-05
       45     0.47370   0.16471E-09
       45     0.73680   0.43553E-14
       45     1.00000   0.12130E-18
 
       46    -4.00000   0.23394E-01
       46    -3.73680   0.36064E-01
       46    -3.47370   0.63146E-01
       46    -3.21050   0.13752E+00
       46    -2.94740   0.47217E+00
       46    -2.68420   0.25175E+01
       46    -2.42110   0.47242E+00
       46    -2.15790   0.13744E+00
       46    -1.89470   0.63009E-01
       46    -1.63160   0.35846E-01
       46    -1.36840   0.23034E-01
       46    -1.10530   0.16042E-01
       46    -0.84210   0.11805E-01
       46    -0.57890   0.90480E-02
       46    -0.31580   0.71548E-02
       46    -0.05260   0.51280E-02
       46     0.21050   0.13943E-05
       46     0.47370   0.44407E-10
       46     0.73680   0.14393E-14
       46     1.00000   0.47022E-19
 
       47    -4.00000   0.27747E+01
       47    -3.73680   0.44313E+00
       47    -3.47370   0.12598E+00
       47    -3.21050   0.57486E-01
       47    -2.94740   0.32671E-01
       47    -2.68420   0.20934E-01
       47    -2.42110   0.14572E-01
       47    -2.15790   0.10720E-01
       47    -1.89470   0.82148E-02
       47    -1.63160   0.64951E-02
       47    -1.36840   0.52632E-02
       47    -1.10530   0.43514E-02
       47    -0.84210   0.36572E-02
       47    -0.57890   0.31167E-02
       47    -0.31580   0.26878E-02
       47    -0.05260   0.20709E-02
       47     0.21050   0.59863E-06
       47     0.47370   0.20095E-10
       47     0.73680   0.68172E-15
       47     1.00000   0.23179E-19
 
       48    -4.00000   0.24167E-01
       48    -3.73680   0.37403E-01
       48    -3.47370   0.65568E-01
       48    -3.21050   0.14258E+00
       48    -2.94740   0.48421E+00
       48    -2.68420   0.24155E+01
       48    -2.42110   0.48448E+00
       48    -2.15790   0.14253E+00
       48    -1.89470   0.65498E-01
       48    -1.63160   0.37291E-01
       48    -1.36840   0.23987E-01
       48    -1.10530   0.16710E-01
       48    -0.84210   0.12298E-01
       48    -0.57890   0.94269E-02
       48    -0.31580   0.74549E-02
       48    -0.05260   0.53433E-02
       48     0.21050   0.14529E-05
       48     0.47370   0.46274E-10
       48     0.73680   0.14999E-14
       48     1.00000   0.49002E-19
 
       49    -4.00000   0.24071E-01
       49    -3.73680   0.37258E-01
       49    -3.47370   0.65323E-01
       49    -3.21050   0.14208E+00
       49    -2.94740   0.48306E+00
       49    -2.68420   0.24251E+01
       49    -2.42110   0.48334E+00
       49    -2.15790   0.14204E+00
       49    -1.89470   0.65254E-01
       49    -1.63160   0.37148E-01
       49    -1.36840   0.23895E-01
       49    -1.10530   0.16645E-01
       49    -0.84210   0.12251E-01
       49    -0.57890   0.93901E-02
       49    -0.31580   0.74257E-02
       49    -0.05260   0.53224E-02
       49     0.21050   0.14472E-05
       49     0.47370   0.46093E-10
       49     0.73680   0.14940E-14
       49     1.00000   0.48809E-19
 
       50    -4.00000   0.30862E-02
       50    -3.73680   0.34872E-02
       50    -3.47370   0.46314E-02
       50    -3.21050   0.58063E-02
       50    -2.94740   0.71462E-02
       50    -2.68420   0.87427E-02
       50    -2.42110   0.11704E-01
       50    -2.15790   0.19042E-01
       50    -1.89470   0.53590E-01
       50    -1.63160   0.43245E-01
       50    -1.36840   0.90914E-01
       50    -1.10530   0.33793E+00
       50    -0.84210   0.39635E+01
       50    -0.57890   0.33772E+00
       50    -0.31580   0.90274E-01
       50    -0.05260   0.35952E-01
       50     0.21050   0.66715E-05
       50     0.47370   0.16212E-09
       50     0.73680   0.42867E-14
       50     1.00000   0.11938E-18
 
       51    -4.00000   0.24167E-01
       51    -3.73680   0.37403E-01
       51    -3.47370   0.65568E-01
       51    -3.21050   0.14258E+00
       51    -2.94740   0.48421E+00
       51    -2.68420   0.24155E+01
       51    -2.42110   0.48448E+00
       51    -2.15790   0.14253E+00
       51    -1.89470   0.65498E-01
       51    -1.63160   0.37291E-01
       51    -1.36840   0.23987E-01
       51    -1.10530   0.16710E-01
       51    -0.84210   0.12298E-01
       51    -0.57890   0.94269E-02
       51    -0.31580   0.74549E-02
       51    -0.05260   0.53433E-02
       51     0.21050   0.14529E-05
       51     0.47370   0.46274E-10
       51     0.73680   0.14999E-14
       51     1.00000   0.49002E-19
 
       52    -4.00000   0.27337E+01
       52    -3.73680   0.44783E+00
       52    -3.47370   0.12788E+00
       52    -3.21050   0.58469E-01
       52    -2.94740   0.33290E-01
       52    -2.68420   0.21244E-01
       52    -2.42110   0.14789E-01
       52    -2.15790   0.10880E-01
       52    -1.89470   0.83377E-02
       52    -1.63160   0.65924E-02
       52    -1.36840   0.53421E-02
       52    -1.10530   0.44167E-02
       52    -0.84210   0.37121E-02
       52    -0.57890   0.31635E-02
       52    -0.31580   0.27282E-02
       52    -0.05260   0.21021E-02
       52     0.21050   0.60763E-06
       52     0.47370   0.20397E-10
       52     0.73680   0.69197E-15
       52     1.00000   0.23528E-19
 
       53    -4.00000   0.31751E+01
       53    -3.73680   0.40228E+00
       53    -3.47370   0.11117E+00
       53    -3.21050   0.50384E-01
       53    -2.94740   0.28543E-01
       53    -2.68420   0.18325E-01
       53    -2.42110   0.12749E-01
       53    -2.15790   0.93763E-02
       53    -1.89470   0.71834E-02
       53    -1.63160   0.56788E-02
       53    -1.36840   0.46012E-02
       53    -1.10530   0.38038E-02
       53    -0.84210   0.31967E-02
       53    -0.57890   0.27242E-02
       53    -0.31580   0.23493E-02
       53    -0.05260   0.18100E-02
       53     0.21050   0.52319E-06
       53     0.47370   0.17563E-10
       53     0.73680   0.59579E-15
       53     1.00000   0.20257E-19
 
       54    -4.00000   0.27559E+01
       54    -3.73680   0.44539E+00
       54    -3.47370   0.12694E+00
       54    -3.21050   0.58017E-01
       54    -2.94740   0.33027E-01
       54    -2.68420   0.21076E-01
       54    -2.42110   0.14671E-01
       54    -2.15790   0.10794E-01
       54    -1.89470   0.82712E-02
       54    -1.63160   0.65397E-02
       54    -1.36840   0.52994E-02
       54    -1.10530   0.43813E-02
       54    -0.84210   0.36823E-02
       54    -0.57890   0.31381E-02
       54    -0.31580   0.27064E-02
       54    -0.05260   0.20852E-02
       54     0.21050   0.60275E-06
       54     0.47370   0.20234E-10
       54     0.73680   0.68642E-15
       54     1.00000   0.23339E-19
 
       55    -4.00000   0.28328E+01
       55    -3.73680   0.43686E+00
       55    -3.47370   0.12362E+00
       55    -3.21050   0.56351E-01
       55    -2.94740   0.32014E-01
       55    -2.68420   0.20510E-01
       55    -2.42110   0.14276E-01
       55    -2.15790   0.10502E-01
       55    -1.89470   0.80471E-02
       55    -1.63160   0.63624E-02
       55    -1.36840   0.51555E-02
       55    -1.10530   0.42623E-02
       55    -0.84210   0.35823E-02
       55    -0.57890   0.30528E-02
       55    -0.31580   0.26328E-02
       55    -0.05260   0.20285E-02
       55     0.21050   0.58636E-06
       55     0.47370   0.19683E-10
       55     0.73680   0.66774E-15
       55     1.00000   0.22704E-19
 
       56    -4.00000   0.22933E-01
       56    -3.73680   0.35419E-01
       56    -3.47370   0.62089E-01
       56    -3.21050   0.13540E+00
       56    -2.94740   0.46707E+00
       56    -2.68420   0.25610E+01
       56    -2.42110   0.46733E+00
       56    -2.15790   0.13534E+00
       56    -1.89470   0.61980E-01
       56    -1.63160   0.35244E-01
       56    -1.36840   0.22650E-01
       56    -1.10530   0.15773E-01
       56    -0.84210   0.11606E-01
       56    -0.57890   0.88952E-02
       56    -0.31580   0.70338E-02
       56    -0.05260   0.50412E-02
       56     0.21050   0.13706E-05
       56     0.47370   0.43654E-10
       56     0.73680   0.14149E-14
       56     1.00000   0.46225E-19
 
       57    -4.00000   0.27559E+01
       57    -3.73680   0.44539E+00
       57    -3.47370   0.12694E+00
       57    -3.21050   0.58017E-01
       57    -2.94740   0.33027E-01
       57    -2.68420   0.21076E-01
       57    -2.42110   0.14671E-01
       57    -2.15790   0.10794E-01
       57    -1.89470   0.82712E-02
       57    -1.63160   0.65397E-02
       57    -1.36840   0.52994E-02
       57    -1.10530   0.43813E-02
       57    -0.84210   0.36823E-02
       57    -0.57890   0.31381E-02
       57    -0.31580   0.27064E-02
       57    -0.05260   0.20852E-02
       57     0.21050   0.60275E-06
       57     0.47370   0.20234E-10
       57     0.73680   0.68642E-15
       57     1.00000   0.23339E-19
 
       58    -4.00000   0.36057E+01
       58    -3.73680   0.36462E+00
       58    -3.47370   0.98671E-01
       58    -3.21050   0.44525E-01
       58    -2.94740   0.25185E-01
       58    -2.68420   0.16158E-01
       58    -2.42110   0.11237E-01
       58    -2.15790   0.82620E-02
       58    -1.89470   0.63287E-02
       58    -1.63160   0.50026E-02
       58    -1.36840   0.40530E-02
       58    -1.10530   0.33504E-02
       58    -0.84210   0.28156E-02
       58    -0.57890   0.23993E-02
       58    -0.31580   0.20690E-02
       58    -0.05260   0.15941E-02
       58     0.21050   0.46077E-06
       58     0.47370   0.15467E-10
       58     0.73680   0.52469E-15
       58     1.00000   0.17840E-19
 
       59    -4.00000   0.39851E+01
       59    -3.73680   0.33607E+00
       59    -3.47370   0.89723E-01
       59    -3.21050   0.40377E-01
       59    -2.94740   0.22816E-01
       59    -2.68420   0.14631E-01
       59    -2.42110   0.10173E-01
       59    -2.15790   0.74786E-02
       59    -1.89470   0.57281E-02
       59    -1.63160   0.45275E-02
       59    -1.36840   0.36679E-02
       59    -1.10530   0.30320E-02
       59    -0.84210   0.25479E-02
       59    -0.57890   0.21712E-02
       59    -0.31580   0.18723E-02
       59    -0.05260   0.14425E-02
       59     0.21050   0.41694E-06
       59     0.47370   0.13995E-10
       59     0.73680   0.47477E-15
       59     1.00000   0.16142E-19
 
       60    -4.00000   0.32170E+01
       60    -3.73680   0.39835E+00
       60    -3.47370   0.10982E+00
       60    -3.21050   0.49748E-01
       60    -2.94740   0.28177E-01
       60    -2.68420   0.18089E-01
       60    -2.42110   0.12585E-01
       60    -2.15790   0.92549E-02
       60    -1.89470   0.70902E-02
       60    -1.63160   0.56051E-02
       60    -1.36840   0.45414E-02
       60    -1.10530   0.37543E-02
       60    -0.84210   0.31552E-02
       60    -0.57890   0.26888E-02
       60    -0.31580   0.23187E-02
       60    -0.05260   0.17865E-02
       60     0.21050   0.51638E-06
       60     0.47370   0.17334E-10
       60     0.73680   0.58804E-15
       60     1.00000   0.19994E-19
 
       61    -4.00000   0.22933E-01
       61    -3.73680   0.35419E-01
       61    -3.47370   0.62089E-01
       61    -3.21050   0.13540E+00
       61    -2.94740   0.46707E+00
       61    -2.68420   0.25610E+01
       61    -2.42110   0.46733E+00
       61    -2.15790   0.13534E+00
       61    -1.89470   0.61980E-01
       61    -1.63160   0.35244E-01
       61    -1.36840   0.22650E-01
       61    -1.10530   0.15773E-01
       61    -0.84210   0.11606E-01
       61    -0.57890   0.88952E-02
       61    -0.31580   0.70338E-02
       61    -0.05260   0.50412E-02
       61     0.21050   0.13706E-05
       61     0.47370   0.43654E-10
       61     0.73680   0.14149E-14
       61     1.00000   0.46225E-19
 
       62    -4.00000   0.28328E+01
       62    -3.73680   0.43686E+00
       62    -3.47370   0.12362E+00
       62    -3.21050   0.56351E-01
       62    -2.94740   0.32014E-01
       62    -2.68420   0.20510E-01
       62    -2.42110   0.14276E-01
       62    -2.15790   0.10502E-01
       62    -1.89470   0.80471E-02
       62    -1.63160   0.63624E-02
       62    -1.36840   0.51555E-02
       62    -1.10530   0.42623E-02
       62    -0.84210   0.35823E-02
       62    -0.57890   0.30528E-02
       62    -0.31580   0.26328E-02
       62    -0.05260   0.20285E-02
       62     0.21050   0.58636E-06
       62     0.47370   0.19683E-10
       62     0.73680   0.66774E-15
       62     1.00000   0.22704E-19
 
       63    -4.00000   0.32170E+01
       63    -3.73680   0.39835E+00
       63    -3.47370   0.10982E+00
       63    -3.21050   0.49748E-01
       63    -2.94740   0.28177E-01
       63    -2.68420   0.18089E-01
       63    -2.42110   0.12585E-01
       63    -2.15790   0.92549E-02
       63    -1.89470   0.70902E-02
       63    -1.63160   0.56051E-02
       63    -1.36840   0.45414E-02
       63    -1.10530   0.37543E-02
       63    -0.84210   0.31552E-02
       63    -0.57890   0.26888E-02
       63    -0.31580   0.23187E-02
       63    -0.05260   0.17865E-02
       63     0.21050   0.51638E-06
       63     0.47370   0.17334E-10
       63     0.73680   0.58804E-15
       63     1.00000   0.19994E-19
 
       64    -4.00000   0.39851E+01
       64    -3.73680   0.33607E+00
       64    -3.47370   0.89723E-01
       64    -3.21050   0.40377E-01
       64    -2.94740   0.22816E-01
       64    -2.68420   0.14631E-01
       64    -2.42110   0.10173E-01
       64    -2.15790   0.74786E-02
       64    -1.89470   0.57281E-02
       64    -1.63160   0.45275E-02
       64    -1.36840   0.36679E-02
       64    -1.10530   0.30320E-02
       64    -0.84210   0.25479E-02
       64    -0.57890   0.21712E-02
       64    -0.31580   0.18723E-02
       64    -0.05260   0.14425E-02
       64     0.21050   0.41694E-06
       64     0.47370   0.13995E-10
       64     0.73680   0.47477E-15
       64     1.00000   0.16142E-19
 
       65    -4.00000   0.36057E+01
       65    -3.73680   0.36462E+00
       65    -3.47370   0.98671E-01
       65    -3.21050   0.44525E-01
       65    -2.94740   0.25185E-01
       65    -2.68420   0.16158E-01
       65    -2.42110   0.11237E-01
       65    -2.15790   0.82620E-02
       65    -1.89470   0.63287E-02
       65    -1.63160   0.50026E-02
       65    -1.36840   0.40530E-02
       65    -1.10530   0.33504E-02
       65    -0.84210   0.28156E-02
       65    -0.57890   0.23993E-02
       65    -0.31580   0.20690E-02
       65    -0.05260   0.15941E-02
       65     0.21050   0.46077E-06
       65     0.47370   0.15467E-10
       65     0.73680   0.52469E-15
       65     1.00000   0.17840E-19
 
       66    -4.00000   0.27559E+01
       66    -3.73680   0.44539E+00
       66    -3.47370   0.12694E+00
       66    -3.21050   0.58017E-01
       66    -2.94740   0.33026E-01
       66    -2.68420   0.21076E-01
       66    -2.42110   0.14671E-01
       66    -2.15790   0.10794E-01
       66    -1.89470   0.82712E-02
       66    -1.63160   0.65397E-02
       66    -1.36840   0.52994E-02
       66    -1.10530   0.43813E-02
       66    -0.84210   0.36823E-02
       66    -0.57890   0.31381E-02
       66    -0.31580   0.27064E-02
       66    -0.05260   0.20852E-02
       66     0.21050   0.60275E-06
       66     0.47370   0.20234E-10
       66     0.73680   0.68642E-15
       66     1.00000   0.23339E-19
 
       67    -4.00000   0.30862E-02
       67    -3.73680   0.34872E-02
       67    -3.47370   0.46314E-02
       67    -3.21050   0.58063E-02
       67    -2.94740   0.71462E-02
       67    -2.68420   0.87426E-02
       67    -2.42110   0.11704E-01
       67    -2.15790   0.19042E-01
       67    -1.89470   0.53590E-01
       67    -1.63160   0.43245E-01
       67    -1.36840   0.90914E-01
       67    -1.10530   0.33793E+00
       67    -0.84210   0.39635E+01
       67    -0.57890   0.33772E+00
       67    -0.31580   0.90274E-01
       67    -0.05260   0.35952E-01
       67     0.21050   0.66715E-05
       67     0.47370   0.16212E-09
       67     0.73680   0.42867E-14
       67     1.00000   0.11938E-18
 
       68    -4.00000   0.24071E-01
       68    -3.73680   0.37258E-01
       68    -3.47370   0.65323E-01
       68    -3.21050   0.14208E+00
       68    -2.94740   0.48306E+00
       68    -2.68420   0.24251E+01
       68    -2.42110   0.48334E+00
       68    -2.15790   0.14204E+00
       68    -1.89470   0.65254E-01
       68    -1.63160   0.37148E-01
       68    -1.36840   0.23895E-01
       68    -1.10530   0.16645E-01
       68    -0.84210   0.12251E-01
       68    -0.57890   0.93901E-02
       68    -0.31580   0.74257E-02
       68    -0.05260   0.53224E-02
       68     0.21050   0.14472E-05
       68     0.47370   0.46093E-10
       68     0.73680   0.14940E-14
       68     1.00000   0.48809E-19
 
       69    -4.00000   0.27559E+01
       69    -3.73680   0.44539E+00
       69    -3.47370   0.12694E+00
       69    -3.21050   0.58017E-01
       69    -2.94740   0.33027E-01
       69    -2.68420   0.21076E-01
       69    -2.42110   0.14671E-01
       69    -2.15790   0.10794E-01
       69    -1.89470   0.82712E-02
       69    -1.63160   0.65397E-02
       69    -1.36840   0.52994E-02
       69    -1.10530   0.43813E-02
       69    -0.84210   0.36823E-02
       69    -0.57890   0.31381E-02
       69    -0.31580   0.27064E-02
       69    -0.05260   0.20852E-02
       69     0.21050   0.60275E-06
       69     0.47370   0.20234E-10
       69     0.73680   0.68642E-15
       69     1.00000   0.23339E-19
 
       70    -4.00000   0.31751E+01
       70    -3.73680   0.40228E+00
       70    -3.47370   0.11117E+00
       70    -3.21050   0.50384E-01
       70    -2.94740   0.28543E-01
       70    -2.68420   0.18325E-01
       70    -2.42110   0.12749E-01
       70    -2.15790   0.93763E-02
       70    -1.89470   0.71834E-02
       70    -1.63160   0.56788E-02
       70    -1.36840   0.46012E-02
       70    -1.10530   0.38038E-02
       70    -0.84210   0.31967E-02
       70    -0.57890   0.27242E-02
       70    -0.31580   0.23493E-02
       70    -0.05260   0.18100E-02
       70     0.21050   0.52319E-06
       70     0.47370   0.17563E-10
       70     0.73680   0.59579E-15
       70     1.00000   0.20257E-19
 
       71    -4.00000   0.27337E+01
       71    -3.73680   0.44783E+00
       71    -3.47370   0.12788E+00
       71    -3.21050   0.58469E-01
       71    -2.94740   0.33290E-01
       71    -2.68420   0.21244E-01
       71    -2.42110   0.14789E-01
       71    -2.15790   0.10880E-01
       71    -1.89470   0.83377E-02
       71    -1.63160   0.65924E-02
       71    -1.36840   0.53421E-02
       71    -1.10530   0.44167E-02
       71    -0.84210   0.37121E-02
       71    -0.57890   0.31635E-02
       71    -0.31580   0.27282E-02
       71    -0.05260   0.21021E-02
       71     0.21050   0.60763E-06
       71     0.47370   0.20397E-10
       71     0.73680   0.69197E-15
       71     1.00000   0.23528E-19
 
       72    -4.00000   0.24167E-01
       72    -3.73680   0.37403E-01
       72    -3.47370   0.65568E-01
       72    -3.21050   0.14258E+00
       72    -2.94740   0.48421E+00
       72    -2.68420   0.24155E+01
       72    -2.42110   0.48448E+00
       72    -2.15790   0.14254E+00
       72    -1.89470   0.65498E-01
       72    -1.63160   0.37291E-01
       72    -1.36840   0.23987E-01
       72    -1.10530   0.16710E-01
       72    -0.84210   0.12298E-01
       72    -0.57890   0.94269E-02
       72    -0.31580   0.74549E-02
       72    -0.05260   0.53433E-02
       72     0.21050   0.14529E-05
       72     0.47370   0.46275E-10
       72     0.73680   0.14999E-14
       72     1.00000   0.49002E-19
 
       73    -4.00000   0.22731E-01
       73    -3.73680   0.18770E-01
       73    -3.47370   0.23657E-01
       73    -3.21050   0.35228E-01
       73    -2.94740   0.60961E-01
       73    -2.68420   0.13246E+00
       73    -2.42110   0.45920E+00
       73    -2.15790   0.26318E+01
       73    -1.89470   0.45907E+00
       73    -1.63160   0.13218E+00
       73    -1.36840   0.60476E-01
       73    -1.10530   0.34389E-01
       73    -0.84210   0.22052E-01
       73    -0.57890   0.15353E-01
       73    -0.31580   0.11298E-01
       73    -0.05260   0.76573E-02
       73     0.21050   0.19911E-05
       73     0.47370   0.61141E-10
       73     0.73680   0.19224E-14
       73     1.00000   0.61209E-19
 
       74    -4.00000   0.24167E-01
       74    -3.73680   0.37403E-01
       74    -3.47370   0.65568E-01
       74    -3.21050   0.14258E+00
       74    -2.94740   0.48421E+00
       74    -2.68420   0.24155E+01
       74    -2.42110   0.48448E+00
       74    -2.15790   0.14253E+00
       74    -1.89470   0.65498E-01
       74    -1.63160   0.37291E-01
       74    -1.36840   0.23987E-01
       74    -1.10530   0.16710E-01
       74    -0.84210   0.12298E-01
       74    -0.57890   0.94269E-02
       74    -0.31580   0.74549E-02
       74    -0.05260   0.53433E-02
       74     0.21050   0.14529E-05
       74     0.47370   0.46274E-10
       74     0.73680   0.14999E-14
       74     1.00000   0.49002E-19
 
       75    -4.00000   0.32807E+01
       75    -3.73680   0.39248E+00
       75    -3.47370   0.10783E+00
       75    -3.21050   0.48811E-01
       75    -2.94740   0.27639E-01
       75    -2.68420   0.17742E-01
       75    -2.42110   0.12342E-01
       75    -2.15790   0.90761E-02
       75    -1.89470   0.69531E-02
       75    -1.63160   0.54966E-02
       75    -1.36840   0.44535E-02
       75    -1.10530   0.36816E-02
       75    -0.84210   0.30940E-02
       75    -0.57890   0.26366E-02
       75    -0.31580   0.22737E-02
       75    -0.05260   0.17518E-02
       75     0.21050   0.50637E-06
       75     0.47370   0.16998E-10
       75     0.73680   0.57663E-15
       75     1.00000   0.19606E-19
 
       76    -4.00000   0.36057E+01
       76    -3.73680   0.36462E+00
       76    -3.47370   0.98671E-01
       76    -3.21050   0.44525E-01
       76    -2.94740   0.25185E-01
       76    -2.68420   0.16158E-01
       76    -2.42110   0.11237E-01
       76    -2.15790   0.82619E-02
       76    -1.89470   0.63287E-02
       76    -1.63160   0.50026E-02
       76    -1.36840   0.40530E-02
       76    -1.10530   0.33504E-02
       76    -0.84210   0.28156E-02
       76    -0.57890   0.23993E-02
       76    -0.31580   0.20690E-02
       76    -0.05260   0.15941E-02
       76     0.21050   0.46077E-06
       76     0.47370   0.15467E-10
       76     0.73680   0.52469E-15
       76     1.00000   0.17840E-19
 
       77    -4.00000   0.29963E+01
       77    -3.73680   0.41975E+00
       77    -3.47370   0.11730E+00
       77    -3.21050   0.53286E-01
       77    -2.94740   0.30212E-01
       77    -2.68420   0.19405E-01
       77    -2.42110   0.13503E-01
       77    -2.15790   0.99321E-02
       77    -1.89470   0.76098E-02
       77    -1.63160   0.60162E-02
       77    -1.36840   0.48749E-02
       77    -1.10530   0.40301E-02
       77    -0.84210   0.33870E-02
       77    -0.57890   0.28864E-02
       77    -0.31580   0.24892E-02
       77    -0.05260   0.19178E-02
       77     0.21050   0.55437E-06
       77     0.47370   0.18609E-10
       77     0.73680   0.63130E-15
       77     1.00000   0.21465E-19
 
       78    -4.00000   0.23394E-01
       78    -3.73680   0.36064E-01
       78    -3.47370   0.63146E-01
       78    -3.21050   0.13752E+00
       78    -2.94740   0.47217E+00
       78    -2.68420   0.25175E+01
       78    -2.42110   0.47242E+00
       78    -2.15790   0.13744E+00
       78    -1.89470   0.63009E-01
       78    -1.63160   0.35846E-01
       78    -1.36840   0.23034E-01
       78    -1.10530   0.16042E-01
       78    -0.84210   0.11805E-01
       78    -0.57890   0.90480E-02
       78    -0.31580   0.71548E-02
       78    -0.05260   0.51280E-02
       78     0.21050   0.13943E-05
       78     0.47370   0.44407E-10
       78     0.73680   0.14393E-14
       78     1.00000   0.47022E-19
 
       79    -4.00000   0.24535E-01
       79    -3.73680   0.37976E-01
       79    -3.47370   0.66557E-01
       79    -3.21050   0.14459E+00
       79    -2.94740   0.48881E+00
       79    -2.68420   0.23773E+01
       79    -2.42110   0.48909E+00
       79    -2.15790   0.14455E+00
       79    -1.89470   0.66491E-01
       79    -1.63160   0.37869E-01
       79    -1.36840   0.24365E-01
       79    -1.10530   0.16975E-01
       79    -0.84210   0.12494E-01
       79    -0.57890   0.95772E-02
       79    -0.31580   0.75740E-02
       79    -0.05260   0.54288E-02
       79     0.21050   0.14761E-05
       79     0.47370   0.47016E-10
       79     0.73680   0.15239E-14
       79     1.00000   0.49787E-19
 
       80    -4.00000   0.32417E-02
       80    -3.73680   0.34958E-02
       80    -3.47370   0.46818E-02
       80    -3.21050   0.59132E-02
       80    -2.94740   0.73042E-02
       80    -2.68420   0.89250E-02
       80    -2.42110   0.11923E-01
       80    -2.15790   0.19403E-01
       80    -1.89470   0.54617E-01
       80    -1.63160   0.44020E-01
       80    -1.36840   0.92335E-01
       80    -1.10530   0.34243E+00
       80    -0.84210   0.39008E+01
       80    -0.57890   0.34221E+00
       80    -0.31580   0.91661E-01
       80    -0.05260   0.36520E-01
       80     0.21050   0.67775E-05
       80     0.47370   0.16471E-09
       80     0.73680   0.43553E-14
       80     1.00000   0.12130E-18
 
       81    -4.00000   0.24535E-01
       81    -3.73680   0.37976E-01
       81    -3.47370   0.66557E-01
       81    -3.21050   0.14459E+00
       81    -2.94740   0.48881E+00
       81    -2.68420   0.23773E+01
       81    -2.42110   0.48909E+00
       81    -2.15790   0.14455E+00
       81    -1.89470   0.66491E-01
       81    -1.63160   0.37869E-01
       81    -1.36840   0.24365E-01
       81    -1.10530   0.16975E-01
       81    -0.84210   0.12494E-01
       81    -0.57890   0.95772E-02
       81    -0.31580   0.75740E-02
       81    -0.05260   0.54288E-02
       81     0.21050   0.14761E-05
       81     0.47370   0.47016E-10
       81     0.73680   0.15239E-14
       81     1.00000   0.49787E-19
 
       82    -4.00000   0.27337E+01
       82    -3.73680   0.44783E+00
       82    -3.47370   0.12788E+00
       82    -3.21050   0.58469E-01
       82    -2.94740   0.33290E-01
       82    -2.68420   0.21244E-01
       82    -2.42110   0.14789E-01
       82    -2.15790   0.10880E-01
       82    -1.89470   0.83377E-02
       82    -1.63160   0.65924E-02
       82    -1.36840   0.53421E-02
       82    -1.10530   0.44167E-02
       82    -0.84210   0.37121E-02
       82    -0.57890   0.31635E-02
       82    -0.31580   0.27282E-02
       82    -0.05260   0.21021E-02
       82     0.21050   0.60763E-06
       82     0.47370   0.20397E-10
       82     0.73680   0.69197E-15
       82     1.00000   0.23528E-19
 
       83    -4.00000   0.31511E+01
       83    -3.73680   0.40457E+00
       83    -3.47370   0.11196E+00
       83    -3.21050   0.50756E-01
       83    -2.94740   0.28756E-01
       83    -2.68420   0.18463E-01
       83    -2.42110   0.12846E-01
       83    -2.15790   0.94474E-02
       83    -1.89470   0.72379E-02
       83    -1.63160   0.57219E-02
       83    -1.36840   0.46362E-02
       83    -1.10530   0.38327E-02
       83    -0.84210   0.32211E-02
       83    -0.57890   0.27449E-02
       83    -0.31580   0.23672E-02
       83    -0.05260   0.18238E-02
       83     0.21050   0.52718E-06
       83     0.47370   0.17696E-10
       83     0.73680   0.60033E-15
       83     1.00000   0.20412E-19
 
       84    -4.00000   0.27337E+01
       84    -3.73680   0.44783E+00
       84    -3.47370   0.12788E+00
       84    -3.21050   0.58469E-01
       84    -2.94740   0.33289E-01
       84    -2.68420   0.21244E-01
       84    -2.42110   0.14789E-01
       84    -2.15790   0.10880E-01
       84    -1.89470   0.83377E-02
       84    -1.63160   0.65924E-02
       84    -1.36840   0.53421E-02
       84    -1.10530   0.44167E-02
       84    -0.84210   0.37121E-02
       84    -0.57890   0.31635E-02
       84    -0.31580   0.27282E-02
       84    -0.05260   0.21021E-02
       84     0.21050   0.60763E-06
       84     0.47370   0.20397E-10
       84     0.73680   0.69197E-15
       84     1.00000   0.23528E-19
 
       85    -4.00000   0.33068E+01
       85    -3.73680   0.39012E+00
       85    -3.47370   0.10704E+00
       85    -3.21050   0.48437E-01
       85    -2.94740   0.27425E-01
       85    -2.68420   0.17603E-01
       85    -2.42110   0.12245E-01
       85    -2.15790   0.90050E-02
       85    -1.89470   0.68986E-02
       85    -1.63160   0.54534E-02
       85    -1.36840   0.44185E-02
       85    -1.10530   0.36526E-02
       85    -0.84210   0.30697E-02
       85    -0.57890   0.26159E-02
       85    -0.31580   0.22558E-02
       85    -0.05260   0.17380E-02
       85     0.21050   0.50238E-06
       85     0.47370   0.16864E-10
       85     0.73680   0.57209E-15
       85     1.00000   0.19451E-19
 
       86    -4.00000   0.24167E-01
       86    -3.73680   0.37403E-01
       86    -3.47370   0.65568E-01
       86    -3.21050   0.14258E+00
       86    -2.94740   0.48421E+00
       86    -2.68420   0.24155E+01
       86    -2.42110   0.48448E+00
       86    -2.15790   0.14253E+00
       86    -1.89470   0.65498E-01
       86    -1.63160   0.37291E-01
       86    -1.36840   0.23987E-01
       86    -1.10530   0.16710E-01
       86    -0.84210   0.12298E-01
       86    -0.57890   0.94269E-02
       86    -0.31580   0.74549E-02
       86    -0.05260   0.53433E-02
       86     0.21050   0.14529E-05
       86     0.47370   0.46274E-10
       86     0.73680   0.14999E-14
       86     1.00000   0.49002E-19
 
       87    -4.00000   0.23045E-01
       87    -3.73680   0.18935E-01
       87    -3.47370   0.23817E-01
       87    -3.21050   0.35440E-01
       87    -2.94740   0.61304E-01
       87    -2.68420   0.13314E+00
       87    -2.42110   0.46091E+00
       87    -2.15790   0.26168E+01
       87    -1.89470   0.46078E+00
       87    -1.63160   0.13287E+00
       87    -1.36840   0.60808E-01
       87    -1.10530   0.34582E-01
       87    -0.84210   0.22176E-01
       87    -0.57890   0.15440E-01
       87    -0.31580   0.11362E-01
       87    -0.05260   0.77008E-02
       87     0.21050   0.20024E-05
       87     0.47370   0.61490E-10
       87     0.73680   0.19334E-14
       87     1.00000   0.61558E-19
 
       88    -4.00000   0.23394E-01
       88    -3.73680   0.36064E-01
       88    -3.47370   0.63146E-01
       88    -3.21050   0.13752E+00
       88    -2.94740   0.47217E+00
       88    -2.68420   0.25175E+01
       88    -2.42110   0.47242E+00
       88    -2.15790   0.13744E+00
       88    -1.89470   0.63009E-01
       88    -1.63160   0.35846E-01
       88    -1.36840   0.23034E-01
       88    -1.10530   0.16042E-01
       88    -0.84210   0.11805E-01
       88    -0.57890   0.90480E-02
       88    -0.31580   0.71548E-02
       88    -0.05260   0.51280E-02
       88     0.21050   0.13943E-05
       88     0.47370   0.44407E-10
       88     0.73680   0.14393E-14
       88     1.00000   0.47022E-19
 
       89    -4.00000   0.29963E+01
       89    -3.73680   0.41975E+00
       89    -3.47370   0.11730E+00
       89    -3.21050   0.53286E-01
       89    -2.94740   0.30212E-01
       89    -2.68420   0.19405E-01
       89    -2.42110   0.13503E-01
       89    -2.15790   0.99321E-02
       89    -1.89470   0.76098E-02
       89    -1.63160   0.60162E-02
       89    -1.36840   0.48749E-02
       89    -1.10530   0.40301E-02
       89    -0.84210   0.33870E-02
       89    -0.57890   0.28864E-02
       89    -0.31580   0.24892E-02
       89    -0.05260   0.19178E-02
       89     0.21050   0.55437E-06
       89     0.47370   0.18609E-10
       89     0.73680   0.63130E-15
       89     1.00000   0.21465E-19
 
       90    -4.00000   0.36057E+01
       90    -3.73680   0.36462E+00
       90    -3.47370   0.98671E-01
       90    -3.21050   0.44525E-01
       90    -2.94740   0.25185E-01
       90    -2.68420   0.16158E-01
       90    -2.42110   0.11237E-01
       90    -2.15790   0.82619E-02
       90    -1.89470   0.63287E-02
       90    -1.63160   0.50026E-02
       90    -1.36840   0.40530E-02
       90    -1.10530   0.33504E-02
       90    -0.84210   0.28156E-02
       90    -0.57890   0.23993E-02
       90    -0.31580   0.20690E-02
       90    -0.05260   0.15941E-02
       90     0.21050   0.46077E-06
       90     0.47370   0.15467E-10
       90     0.73680   0.52469E-15
       90     1.00000   0.17840E-19
 
       91    -4.00000   0.36767E+01
       91    -3.73680   0.35897E+00
       91    -3.47370   0.96868E-01
       91    -3.21050   0.43686E-01
       91    -2.94740   0.24705E-01
       91    -2.68420   0.15848E-01
       91    -2.42110   0.11021E-01
       91    -2.15790   0.81032E-02
       91    -1.89470   0.62070E-02
       91    -1.63160   0.49063E-02
       91    -1.36840   0.39750E-02
       91    -1.10530   0.32858E-02
       91    -0.84210   0.27613E-02
       91    -0.57890   0.23531E-02
       91    -0.31580   0.20291E-02
       91    -0.05260   0.15633E-02
       91     0.21050   0.45188E-06
       91     0.47370   0.15169E-10
       91     0.73680   0.51457E-15
       91     1.00000   0.17496E-19
 
       92    -4.00000   0.27559E+01
       92    -3.73680   0.44539E+00
       92    -3.47370   0.12694E+00
       92    -3.21050   0.58017E-01
       92    -2.94740   0.33027E-01
       92    -2.68420   0.21076E-01
       92    -2.42110   0.14671E-01
       92    -2.15790   0.10794E-01
       92    -1.89470   0.82712E-02
       92    -1.63160   0.65397E-02
       92    -1.36840   0.52994E-02
       92    -1.10530   0.43813E-02
       92    -0.84210   0.36823E-02
       92    -0.57890   0.31381E-02
       92    -0.31580   0.27064E-02
       92    -0.05260   0.20852E-02
       92     0.21050   0.60275E-06
       92     0.47370   0.20234E-10
       92     0.73680   0.68642E-15
       92     1.00000   0.23339E-19
 
       93    -4.00000   0.22946E-01
       93    -3.73680   0.35451E-01
       93    -3.47370   0.62154E-01
       93    -3.21050   0.13555E+00
       93    -2.94740   0.46743E+00
       93    -2.68420   0.25579E+01
       93    -2.42110   0.46770E+00
       93    -2.15790   0.13549E+00
       93    -1.89470   0.62051E-01
       93    -1.63160   0.35285E-01
       93    -1.36840   0.22677E-01
       93    -1.10530   0.15792E-01
       93    -0.84210   0.11621E-01
       93    -0.57890   0.89062E-02
       93    -0.31580   0.70425E-02
       93    -0.05260   0.50474E-02
       93     0.21050   0.13723E-05
       93     0.47370   0.43708E-10
       93     0.73680   0.14167E-14
       93     1.00000   0.46282E-19
 
       94    -4.00000   0.27747E+01
       94    -3.73680   0.44313E+00
       94    -3.47370   0.12598E+00
       94    -3.21050   0.57486E-01
       94    -2.94740   0.32671E-01
       94    -2.68420   0.20934E-01
       94    -2.42110   0.14572E-01
       94    -2.15790   0.10720E-01
       94    -1.89470   0.82148E-02
       94    -1.63160   0.64951E-02
       94    -1.36840   0.52632E-02
       94    -1.10530   0.43514E-02
       94    -0.84210   0.36572E-02
       94    -0.57890   0.31167E-02
       94    -0.31580   0.26878E-02
       94    -0.05260   0.20709E-02
       94     0.21050   0.59863E-06
       94     0.47370   0.20095E-10
       94     0.73680   0.68172E-15
       94     1.00000   0.23179E-19
 
       95    -4.00000   0.31511E+01
       95    -3.73680   0.40457E+00
       95    -3.47370   0.11196E+00
       95    -3.21050   0.50756E-01
       95    -2.94740   0.28756E-01
       95    -2.68420   0.18463E-01
       95    -2.42110   0.12846E-01
       95    -2.15790   0.94474E-02
       95    -1.89470   0.72379E-02
       95    -1.63160   0.57219E-02
       95    -1.36840   0.46362E-02
       95    -1.10530   0.38327E-02
       95    -0.84210   0.32211E-02
       95    -0.57890   0.27449E-02
       95    -0.31580   0.23672E-02
       95    -0.05260   0.18238E-02
       95     0.21050   0.52718E-06
       95     0.47370   0.17696E-10
       95     0.73680   0.60033E-15
       95     1.00000   0.20412E-19
 
       96    -4.00000   0.39851E+01
       96    -3.73680   0.33607E+00
       96    -3.47370   0.89723E-01
       96    -3.21050   0.40377E-01
       96    -2.94740   0.22816E-01
       96    -2.68420   0.14631E-01
       96    -2.42110   0.10173E-01
       96    -2.15790   0.74786E-02
       96    -1.89470   0.57281E-02
       96    -1.63160   0.45275E-02
       96    -1.36840   0.36679E-02
       96    -1.10530   0.30320E-02
       96    -0.84210   0.25479E-02
       96    -0.57890   0.21712E-02
       96    -0.31580   0.18723E-02
       96    -0.05260   0.14425E-02
       96     0.21050   0.41694E-06
       96     0.47370   0.13995E-10
       96     0.73680   0.47477E-15
       96     1.00000   0.16142E-19
 
       97    -4.00000   0.30490E+01
       97    -3.73680   0.41449E+00
       97    -3.47370   0.11543E+00
       97    -3.21050   0.52398E-01
       97    -2.94740   0.29701E-01
       97    -2.68420   0.19074E-01
       97    -2.42110   0.13272E-01
       97    -2.15790   0.97617E-02
       97    -1.89470   0.74791E-02
       97    -1.63160   0.59128E-02
       97    -1.36840   0.47909E-02
       97    -1.10530   0.39607E-02
       97    -0.84210   0.33287E-02
       97    -0.57890   0.28367E-02
       97    -0.31580   0.24463E-02
       97    -0.05260   0.18848E-02
       97     0.21050   0.54481E-06
       97     0.47370   0.18288E-10
       97     0.73680   0.62041E-15
       97     1.00000   0.21095E-19
 
       98    -4.00000   0.32170E+01
       98    -3.73680   0.39835E+00
       98    -3.47370   0.10982E+00
       98    -3.21050   0.49748E-01
       98    -2.94740   0.28177E-01
       98    -2.68420   0.18089E-01
       98    -2.42110   0.12585E-01
       98    -2.15790   0.92549E-02
       98    -1.89470   0.70902E-02
       98    -1.63160   0.56051E-02
       98    -1.36840   0.45414E-02
       98    -1.10530   0.37543E-02
       98    -0.84210   0.31552E-02
       98    -0.57890   0.26888E-02
       98    -0.31580   0.23187E-02
       98    -0.05260   0.17865E-02
       98     0.21050   0.51638E-06
       98     0.47370   0.17334E-10
       98     0.73680   0.58804E-15
       98     1.00000   0.19994E-19
 
       99    -4.00000   0.30490E+01
       99    -3.73680   0.41449E+00
       99    -3.47370   0.11543E+00
       99    -3.21050   0.52398E-01
       99    -2.94740   0.29701E-01
       99    -2.68420   0.19074E-01
       99    -2.42110   0.13272E-01
       99    -2.15790   0.97617E-02
       99    -1.89470   0.74791E-02
       99    -1.63160   0.59128E-02
       99    -1.36840   0.47909E-02
       99    -1.10530   0.39607E-02
       99    -0.84210   0.33287E-02
       99    -0.57890   0.28367E-02
       99    -0.31580   0.24463E-02
       99    -0.05260   0.18848E-02
       99     0.21050   0.54481E-06
       99     0.47370   0.18288E-10
       99     0.73680   0.62041E-15
       99     1.00000   0.21095E-19
 
      100    -4.00000   0.31751E+01
      100    -3.73680   0.40228E+00
      100    -3.47370   0.11117E+00
      100    -3.21050   0.50384E-01
      100    -2.94740   0.28543E-01
      100    -2.68420   0.18325E-01
      100    -2.42110   0.12749E-01
      100    -2.15790   0.93763E-02
      100    -1.89470   0.71834E-02
      100    -1.63160   0.56788E-02
      100    -1.36840   0.46012E-02
      100    -1.10530   0.38038E-02
      100    -0.84210   0.31967E-02
      100    -0.57890   0.27242E-02
      100    -0.31580   0.23493E-02
      100    -0.05260   0.18100E-02
      100     0.21050   0.52319E-06
      100     0.47370   0.17563E-10
      100     0.73680   0.59579E-15
      100     1.00000   0.20257E-19
 
      101    -4.00000   0.29963E+01
      101    -3.73680   0.41975E+00
      101    -3.47370   0.11730E+00
      101    -3.21050   0.53286E-01
      101    -2.94740   0.30212E-01
      101    -2.68420   0.19405E-01
      101    -2.42110   0.13503E-01
      101    -2.15790   0.99321E-02
      101    -1.89470   0.76098E-02
      101    -1.63160   0.60162E-02
      101    -1.36840   0.48749E-02
      101    -1.10530   0.40301E-02
      101    -0.84210   0.33870E-02
      101    -0.57890   0.28864E-02
      101    -0.31580   0.24892E-02
      101    -0.05260   0.19178E-02
      101     0.21050   0.55437E-06
      101     0.47370   0.18609E-10
      101     0.73680   0.63130E-15
      101     1.00000   0.21465E-19
 
      102    -4.00000   0.31751E+01
      102    -3.73680   0.40228E+00
      102    -3.47370   0.11117E+00
      102    -3.21050   0.50384E-01
      102    -2.94740   0.28543E-01
      102    -2.68420   0.18325E-01
      102    -2.42110   0.12749E-01
      102    -2.15790   0.93763E-02
      102    -1.89470   0.71834E-02
      102    -1.63160   0.56788E-02
      102    -1.36840   0.46012E-02
      102    -1.10530   0.38038E-02
      102    -0.84210   0.31967E-02
      102    -0.57890   0.27242E-02
      102    -0.31580   0.23493E-02
      102    -0.05260   0.18100E-02
      102     0.21050   0.52319E-06
      102     0.47370   0.17563E-10
      102     0.73680   0.59579E-15
      102     1.00000   0.20257E-19
 
      103    -4.00000   0.22946E-01
      103    -3.73680   0.35451E-01
      103    -3.47370   0.62154E-01
      103    -3.21050   0.13555E+00
      103    -2.94740   0.46743E+00
      103    -2.68420   0.25579E+01
      103    -2.42110   0.46769E+00
      103    -2.15790   0.13549E+00
      103    -1.89470   0.62051E-01
      103    -1.63160   0.35285E-01
      103    -1.36840   0.22677E-01
      103    -1.10530   0.15792E-01
      103    -0.84210   0.11621E-01
      103    -0.57890   0.89062E-02
      103    -0.31580   0.70425E-02
      103    -0.05260   0.50474E-02
      103     0.21050   0.13723E-05
      103     0.47370   0.43708E-10
      103     0.73680   0.14167E-14
      103     1.00000   0.46282E-19
 
      104    -4.00000   0.27559E+01
      104    -3.73680   0.44539E+00
      104    -3.47370   0.12694E+00
      104    -3.21050   0.58017E-01
      104    -2.94740   0.33027E-01
      104    -2.68420   0.21076E-01
      104    -2.42110   0.14671E-01
      104    -2.15790   0.10794E-01
      104    -1.89470   0.82712E-02
      104    -1.63160   0.65397E-02
      104    -1.36840   0.52994E-02
      104    -1.10530   0.43813E-02
      104    -0.84210   0.36823E-02
      104    -0.57890   0.31381E-02
      104    -0.31580   0.27064E-02
      104    -0.05260   0.20852E-02
      104     0.21050   0.60275E-06
      104     0.47370   0.20234E-10
      104     0.73680   0.68642E-15
      104     1.00000   0.23339E-19
 
[...]
      190    -0.84210   0.31967E-02
      190    -0.57890   0.27242E-02
      190    -0.31580   0.23493E-02
      190    -0.05260   0.18100E-02
      190     0.21050   0.52319E-06
      190     0.47370   0.17563E-10
      190     0.73680   0.59579E-15
      190     1.00000   0.20257E-19
 
      191    -4.00000   0.27559E+01
      191    -3.73680   0.44539E+00
      191    -3.47370   0.12694E+00
      191    -3.21050   0.58017E-01
      191    -2.94740   0.33027E-01
      191    -2.68420   0.21076E-01
      191    -2.42110   0.14671E-01
      191    -2.15790   0.10794E-01
      191    -1.89470   0.82712E-02
      191    -1.63160   0.65397E-02
      191    -1.36840   0.52994E-02
      191    -1.10530   0.43813E-02
      191    -0.84210   0.36823E-02
      191    -0.57890   0.31381E-02
      191    -0.31580   0.27064E-02
      191    -0.05260   0.20852E-02
      191     0.21050   0.60275E-06
      191     0.47370   0.20234E-10
      191     0.73680   0.68642E-15
      191     1.00000   0.23339E-19
 
      192    -4.00000   0.24071E-01
      192    -3.73680   0.37258E-01
      192    -3.47370   0.65323E-01
      192    -3.21050   0.14208E+00
      192    -2.94740   0.48306E+00
      192    -2.68420   0.24251E+01
      192    -2.42110   0.48334E+00
      192    -2.15790   0.14204E+00
      192    -1.89470   0.65254E-01
      192    -1.63160   0.37148E-01
      192    -1.36840   0.23895E-01
      192    -1.10530   0.16645E-01
      192    -0.84210   0.12251E-01
      192    -0.57890   0.93901E-02
      192    -0.31580   0.74257E-02
      192    -0.05260   0.53224E-02
      192     0.21050   0.14472E-05
      192     0.47370   0.46093E-10
      192     0.73680   0.14940E-14
      192     1.00000   0.48809E-19
 
      193    -4.00000   0.22933E-01
      193    -3.73680   0.35419E-01
      193    -3.47370   0.62089E-01
      193    -3.21050   0.13540E+00
      193    -2.94740   0.46707E+00
      193    -2.68420   0.25610E+01
      193    -2.42110   0.46733E+00
      193    -2.15790   0.13534E+00
      193    -1.89470   0.61980E-01
      193    -1.63160   0.35244E-01
      193    -1.36840   0.22650E-01
      193    -1.10530   0.15773E-01
      193    -0.84210   0.11606E-01
      193    -0.57890   0.88952E-02
      193    -0.31580   0.70338E-02
      193    -0.05260   0.50412E-02
      193     0.21050   0.13706E-05
      193     0.47370   0.43654E-10
      193     0.73680   0.14149E-14
      193     1.00000   0.46225E-19
 
      194    -4.00000   0.27559E+01
      194    -3.73680   0.44539E+00
      194    -3.47370   0.12694E+00
      194    -3.21050   0.58017E-01
      194    -2.94740   0.33027E-01
      194    -2.68420   0.21076E-01
      194    -2.42110   0.14671E-01
      194    -2.15790   0.10794E-01
      194    -1.89470   0.82712E-02
      194    -1.63160   0.65397E-02
      194    -1.36840   0.52994E-02
      194    -1.10530   0.43813E-02
      194    -0.84210   0.36823E-02
      194    -0.57890   0.31381E-02
      194    -0.31580   0.27064E-02
      194    -0.05260   0.20852E-02
      194     0.21050   0.60275E-06
      194     0.47370   0.20234E-10
      194     0.73680   0.68642E-15
      194     1.00000   0.23339E-19
 
      195    -4.00000   0.36057E+01
      195    -3.73680   0.36462E+00
      195    -3.47370   0.98671E-01
      195    -3.21050   0.44525E-01
      195    -2.94740   0.25185E-01
      195    -2.68420   0.16158E-01
      195    -2.42110   0.11237E-01
      195    -2.15790   0.82620E-02
      195    -1.89470   0.63287E-02
      195    -1.63160   0.50026E-02
      195    -1.36840   0.40530E-02
      195    -1.10530   0.33504E-02
      195    -0.84210   0.28156E-02
      195    -0.57890   0.23993E-02
      195    -0.31580   0.20690E-02
      195    -0.05260   0.15941E-02
      195     0.21050   0.46077E-06
      195     0.47370   0.15467E-10
      195     0.73680   0.52469E-15
      195     1.00000   0.17840E-19
 
      196    -4.00000   0.39851E+01
      196    -3.73680   0.33607E+00
      196    -3.47370   0.89723E-01
      196    -3.21050   0.40377E-01
      196    -2.94740   0.22816E-01
      196    -2.68420   0.14631E-01
      196    -2.42110   0.10173E-01
      196    -2.15790   0.74786E-02
      196    -1.89470   0.57281E-02
      196    -1.63160   0.45275E-02
      196    -1.36840   0.36679E-02
      196    -1.10530   0.30320E-02
      196    -0.84210   0.25479E-02
      196    -0.57890   0.21712E-02
      196    -0.31580   0.18723E-02
      196    -0.05260   0.14425E-02
      196     0.21050   0.41694E-06
      196     0.47370   0.13995E-10
      196     0.73680   0.47477E-15
      196     1.00000   0.16142E-19
 
      197    -4.00000   0.32170E+01
      197    -3.73680   0.39835E+00
      197    -3.47370   0.10982E+00
      197    -3.21050   0.49748E-01
      197    -2.94740   0.28177E-01
      197    -2.68420   0.18089E-01
      197    -2.42110   0.12585E-01
      197    -2.15790   0.92549E-02
      197    -1.89470   0.70903E-02
      197    -1.63160   0.56051E-02
      197    -1.36840   0.45415E-02
      197    -1.10530   0.37543E-02
      197    -0.84210   0.31552E-02
      197    -0.57890   0.26888E-02
      197    -0.31580   0.23187E-02
      197    -0.05260   0.17865E-02
      197     0.21050   0.51639E-06
      197     0.47370   0.17334E-10
      197     0.73680   0.58804E-15
      197     1.00000   0.19994E-19
 
      198    -4.00000   0.28328E+01
      198    -3.73680   0.43686E+00
      198    -3.47370   0.12362E+00
      198    -3.21050   0.56351E-01
      198    -2.94740   0.32014E-01
      198    -2.68420   0.20510E-01
      198    -2.42110   0.14276E-01
      198    -2.15790   0.10502E-01
      198    -1.89470   0.80471E-02
      198    -1.63160   0.63624E-02
      198    -1.36840   0.51555E-02
      198    -1.10530   0.42623E-02
      198    -0.84210   0.35823E-02
      198    -0.57890   0.30528E-02
      198    -0.31580   0.26328E-02
      198    -0.05260   0.20285E-02
      198     0.21050   0.58636E-06
      198     0.47370   0.19683E-10
      198     0.73680   0.66774E-15
      198     1.00000   0.22704E-19
 
      199    -4.00000   0.28328E+01
      199    -3.73680   0.43686E+00
      199    -3.47370   0.12362E+00
      199    -3.21050   0.56351E-01
      199    -2.94740   0.32014E-01
      199    -2.68420   0.20510E-01
      199    -2.42110   0.14276E-01
      199    -2.15790   0.10502E-01
      199    -1.89470   0.80471E-02
      199    -1.63160   0.63624E-02
      199    -1.36840   0.51555E-02
      199    -1.10530   0.42623E-02
      199    -0.84210   0.35823E-02
      199    -0.57890   0.30528E-02
      199    -0.31580   0.26328E-02
      199    -0.05260   0.20285E-02
      199     0.21050   0.58636E-06
      199     0.47370   0.19683E-10
      199     0.73680   0.66774E-15
      199     1.00000   0.22704E-19
 
      200    -4.00000   0.32170E+01
      200    -3.73680   0.39835E+00
      200    -3.47370   0.10982E+00
      200    -3.21050   0.49748E-01
      200    -2.94740   0.28177E-01
      200    -2.68420   0.18089E-01
      200    -2.42110   0.12585E-01
      200    -2.15790   0.92549E-02
      200    -1.89470   0.70903E-02
      200    -1.63160   0.56051E-02
      200    -1.36840   0.45415E-02
      200    -1.10530   0.37543E-02
      200    -0.84210   0.31552E-02
      200    -0.57890   0.26888E-02
      200    -0.31580   0.23187E-02
      200    -0.05260   0.17865E-02
      200     0.21050   0.51639E-06
      200     0.47370   0.17334E-10
      200     0.73680   0.58804E-15
      200     1.00000   0.19994E-19
 
      201    -4.00000   0.39851E+01
      201    -3.73680   0.33607E+00
      201    -3.47370   0.89723E-01
      201    -3.21050   0.40377E-01
      201    -2.94740   0.22816E-01
      201    -2.68420   0.14631E-01
      201    -2.42110   0.10173E-01
      201    -2.15790   0.74786E-02
      201    -1.89470   0.57281E-02
      201    -1.63160   0.45275E-02
      201    -1.36840   0.36679E-02
      201    -1.10530   0.30320E-02
      201    -0.84210   0.25479E-02
      201    -0.57890   0.21712E-02
      201    -0.31580   0.18723E-02
      201    -0.05260   0.14425E-02
      201     0.21050   0.41694E-06
      201     0.47370   0.13995E-10
      201     0.73680   0.47477E-15
      201     1.00000   0.16142E-19
 
      202    -4.00000   0.36057E+01
      202    -3.73680   0.36462E+00
      202    -3.47370   0.98671E-01
      202    -3.21050   0.44525E-01
      202    -2.94740   0.25185E-01
      202    -2.68420   0.16158E-01
      202    -2.42110   0.11237E-01
      202    -2.15790   0.82620E-02
      202    -1.89470   0.63287E-02
      202    -1.63160   0.50026E-02
      202    -1.36840   0.40530E-02
      202    -1.10530   0.33504E-02
      202    -0.84210   0.28156E-02
      202    -0.57890   0.23993E-02
      202    -0.31580   0.20690E-02
      202    -0.05260   0.15941E-02
      202     0.21050   0.46077E-06
      202     0.47370   0.15467E-10
      202     0.73680   0.52469E-15
      202     1.00000   0.17840E-19
 
      203    -4.00000   0.27559E+01
      203    -3.73680   0.44539E+00
      203    -3.47370   0.12694E+00
      203    -3.21050   0.58017E-01
      203    -2.94740   0.33026E-01
      203    -2.68420   0.21076E-01
      203    -2.42110   0.14671E-01
      203    -2.15790   0.10794E-01
      203    -1.89470   0.82712E-02
      203    -1.63160   0.65397E-02
      203    -1.36840   0.52994E-02
      203    -1.10530   0.43813E-02
      203    -0.84210   0.36823E-02
      203    -0.57890   0.31381E-02
      203    -0.31580   0.27064E-02
      203    -0.05260   0.20852E-02
      203     0.21050   0.60275E-06
      203     0.47370   0.20234E-10
      203     0.73680   0.68642E-15
      203     1.00000   0.23339E-19
 
      204    -4.00000   0.22933E-01
      204    -3.73680   0.35419E-01
      204    -3.47370   0.62089E-01
      204    -3.21050   0.13540E+00
      204    -2.94740   0.46707E+00
      204    -2.68420   0.25610E+01
      204    -2.42110   0.46733E+00
      204    -2.15790   0.13534E+00
      204    -1.89470   0.61980E-01
      204    -1.63160   0.35244E-01
      204    -1.36840   0.22650E-01
      204    -1.10530   0.15773E-01
      204    -0.84210   0.11606E-01
      204    -0.57890   0.88952E-02
      204    -0.31580   0.70338E-02
      204    -0.05260   0.50412E-02
      204     0.21050   0.13706E-05
      204     0.47370   0.43654E-10
      204     0.73680   0.14149E-14
      204     1.00000   0.46225E-19
 
      205    -4.00000   0.24071E-01
      205    -3.73680   0.37258E-01
      205    -3.47370   0.65323E-01
      205    -3.21050   0.14208E+00
      205    -2.94740   0.48306E+00
      205    -2.68420   0.24251E+01
      205    -2.42110   0.48334E+00
      205    -2.15790   0.14204E+00
      205    -1.89470   0.65254E-01
      205    -1.63160   0.37148E-01
      205    -1.36840   0.23895E-01
      205    -1.10530   0.16645E-01
      205    -0.84210   0.12251E-01
      205    -0.57890   0.93901E-02
      205    -0.31580   0.74257E-02
      205    -0.05260   0.53224E-02
      205     0.21050   0.14472E-05
      205     0.47370   0.46093E-10
      205     0.73680   0.14940E-14
      205     1.00000   0.48809E-19
 
      206    -4.00000   0.27559E+01
      206    -3.73680   0.44539E+00
      206    -3.47370   0.12694E+00
      206    -3.21050   0.58017E-01
      206    -2.94740   0.33027E-01
      206    -2.68420   0.21076E-01
      206    -2.42110   0.14671E-01
      206    -2.15790   0.10794E-01
      206    -1.89470   0.82712E-02
      206    -1.63160   0.65397E-02
      206    -1.36840   0.52994E-02
      206    -1.10530   0.43813E-02
      206    -0.84210   0.36823E-02
      206    -0.57890   0.31381E-02
      206    -0.31580   0.27064E-02
      206    -0.05260   0.20852E-02
      206     0.21050   0.60275E-06
      206     0.47370   0.20234E-10
      206     0.73680   0.68642E-15
      206     1.00000   0.23339E-19
 
      207    -4.00000   0.31751E+01
      207    -3.73680   0.40228E+00
      207    -3.47370   0.11117E+00
      207    -3.21050   0.50384E-01
      207    -2.94740   0.28543E-01
      207    -2.68420   0.18325E-01
      207    -2.42110   0.12749E-01
      207    -2.15790   0.93763E-02
      207    -1.89470   0.71834E-02
      207    -1.63160   0.56788E-02
      207    -1.36840   0.46012E-02
      207    -1.10530   0.38038E-02
      207    -0.84210   0.31967E-02
      207    -0.57890   0.27242E-02
      207    -0.31580   0.23493E-02
      207    -0.05260   0.18100E-02
      207     0.21050   0.52319E-06
      207     0.47370   0.17563E-10
      207     0.73680   0.59579E-15
      207     1.00000   0.20257E-19
 
      208    -4.00000   0.27337E+01
      208    -3.73680   0.44783E+00
      208    -3.47370   0.12788E+00
      208    -3.21050   0.58469E-01
      208    -2.94740   0.33289E-01
      208    -2.68420   0.21244E-01
      208    -2.42110   0.14789E-01
      208    -2.15790   0.10880E-01
      208    -1.89470   0.83377E-02
      208    -1.63160   0.65924E-02
      208    -1.36840   0.53421E-02
      208    -1.10530   0.44167E-02
      208    -0.84210   0.37121E-02
      208    -0.57890   0.31635E-02
      208    -0.31580   0.27282E-02
      208    -0.05260   0.21021E-02
      208     0.21050   0.60763E-06
      208     0.47370   0.20397E-10
      208     0.73680   0.69197E-15
      208     1.00000   0.23528E-19
 
      209    -4.00000   0.24167E-01
      209    -3.73680   0.37403E-01
      209    -3.47370   0.65568E-01
      209    -3.21050   0.14258E+00
      209    -2.94740   0.48421E+00
      209    -2.68420   0.24155E+01
      209    -2.42110   0.48448E+00
      209    -2.15790   0.14254E+00
      209    -1.89470   0.65498E-01
      209    -1.63160   0.37291E-01
      209    -1.36840   0.23987E-01
      209    -1.10530   0.16710E-01
      209    -0.84210   0.12298E-01
      209    -0.57890   0.94269E-02
      209    -0.31580   0.74549E-02
      209    -0.05260   0.53433E-02
      209     0.21050   0.14529E-05
      209     0.47370   0.46275E-10
      209     0.73680   0.14999E-14
      209     1.00000   0.49002E-19
 
      210    -4.00000   0.30862E-02
      210    -3.73680   0.34872E-02
      210    -3.47370   0.46314E-02
      210    -3.21050   0.58063E-02
      210    -2.94740   0.71462E-02
      210    -2.68420   0.87426E-02
      210    -2.42110   0.11704E-01
      210    -2.15790   0.19042E-01
      210    -1.89470   0.53590E-01
      210    -1.63160   0.43245E-01
      210    -1.36840   0.90914E-01
      210    -1.10530   0.33793E+00
      210    -0.84210   0.39635E+01
      210    -0.57890   0.33772E+00
      210    -0.31580   0.90274E-01
      210    -0.05260   0.35952E-01
      210     0.21050   0.66715E-05
      210     0.47370   0.16212E-09
      210     0.73680   0.42867E-14
      210     1.00000   0.11938E-18
 
      211    -4.00000   0.90763E-02
      211    -3.73680   0.13368E-01
      211    -3.47370   0.31969E-01
      211    -3.21050   0.14283E+00
      211    -2.94740   0.37136E-01
      211    -2.68420   0.34951E-01
      211    -2.42110   0.55062E-01
      211    -2.15790   0.11750E+00
      211    -1.89470   0.41776E+00
      211    -1.63160   0.30279E+01
      211    -1.36840   0.41707E+00
      211    -1.10530   0.11652E+00
      211    -0.84210   0.53020E-01
      211    -0.57890   0.30109E-01
      211    -0.31580   0.19209E-01
      211    -0.05260   0.11820E-01
      211     0.21050   0.28592E-05
      211     0.47370   0.83010E-10
      211     0.73680   0.24957E-14
      211     1.00000   0.76607E-19
 
      212    -4.00000   0.24167E-01
      212    -3.73680   0.37403E-01
      212    -3.47370   0.65568E-01
      212    -3.21050   0.14258E+00
      212    -2.94740   0.48421E+00
      212    -2.68420   0.24155E+01
      212    -2.42110   0.48448E+00
      212    -2.15790   0.14254E+00
      212    -1.89470   0.65498E-01
      212    -1.63160   0.37291E-01
      212    -1.36840   0.23987E-01
      212    -1.10530   0.16710E-01
      212    -0.84210   0.12298E-01
      212    -0.57890   0.94269E-02
      212    -0.31580   0.74549E-02
      212    -0.05260   0.53433E-02
      212     0.21050   0.14529E-05
      212     0.47370   0.46275E-10
      212     0.73680   0.14999E-14
      212     1.00000   0.49002E-19
 
      213    -4.00000   0.27747E+01
      213    -3.73680   0.44313E+00
      213    -3.47370   0.12598E+00
      213    -3.21050   0.57486E-01
      213    -2.94740   0.32671E-01
      213    -2.68420   0.20934E-01
      213    -2.42110   0.14572E-01
      213    -2.15790   0.10720E-01
      213    -1.89470   0.82148E-02
      213    -1.63160   0.64951E-02
      213    -1.36840   0.52632E-02
      213    -1.10530   0.43514E-02
      213    -0.84210   0.36572E-02
      213    -0.57890   0.31167E-02
      213    -0.31580   0.26878E-02
      213    -0.05260   0.20709E-02
      213     0.21050   0.59863E-06
      213     0.47370   0.20095E-10
      213     0.73680   0.68172E-15
      213     1.00000   0.23179E-19
 
      214    -4.00000   0.23394E-01
      214    -3.73680   0.36064E-01
      214    -3.47370   0.63146E-01
      214    -3.21050   0.13752E+00
      214    -2.94740   0.47217E+00
      214    -2.68420   0.25175E+01
      214    -2.42110   0.47242E+00
      214    -2.15790   0.13744E+00
      214    -1.89470   0.63009E-01
      214    -1.63160   0.35846E-01
      214    -1.36840   0.23034E-01
      214    -1.10530   0.16042E-01
      214    -0.84210   0.11805E-01
      214    -0.57890   0.90480E-02
      214    -0.31580   0.71548E-02
      214    -0.05260   0.51280E-02
      214     0.21050   0.13943E-05
      214     0.47370   0.44407E-10
      214     0.73680   0.14393E-14
      214     1.00000   0.47022E-19
 
      215    -4.00000   0.32417E-02
      215    -3.73680   0.34959E-02
      215    -3.47370   0.46818E-02
      215    -3.21050   0.59132E-02
      215    -2.94740   0.73042E-02
      215    -2.68420   0.89250E-02
      215    -2.42110   0.11923E-01
      215    -2.15790   0.19403E-01
      215    -1.89470   0.54616E-01
      215    -1.63160   0.44020E-01
      215    -1.36840   0.92335E-01
      215    -1.10530   0.34243E+00
      215    -0.84210   0.39008E+01
      215    -0.57890   0.34221E+00
      215    -0.31580   0.91661E-01
      215    -0.05260   0.36520E-01
      215     0.21050   0.67775E-05
      215     0.47370   0.16471E-09
      215     0.73680   0.43553E-14
      215     1.00000   0.12130E-18
 
      216    -4.00000   0.33620E-02
      216    -3.73680   0.34658E-02
      216    -3.47370   0.36692E-02
      216    -3.21050   0.42414E-02
      216    -2.94740   0.52322E-02
      216    -2.68420   0.69263E-02
      216    -2.42110   0.95819E-02
      216    -2.15790   0.13717E-01
      216    -1.89470   0.20625E-01
      216    -1.63160   0.34022E-01
      216    -1.36840   0.63612E-01
      216    -1.10530   0.19343E+00
      216    -0.84210   0.36274E+00
      216    -0.57890   0.37537E+01
      216    -0.31580   0.35466E+00
      216    -0.05260   0.84668E-01
      216     0.21050   0.12588E-04
      216     0.47370   0.27002E-09
      216     0.73680   0.65125E-14
      216     1.00000   0.17153E-18
 

     Unfolding on the coarse grid

     INITIALIZATION: 



     Electron-Phonon interpolation



     Total program execution
     EPW          :      0.06s CPU      0.06s WALL

                                                                                          
 Please consider citing:                                                                  
 S. Ponce, E. R. Margine, C. Verdi and F. Giustino, Comput. Phys. Commun. 209, 116 (2016) 
                                                                                          
 In addition, if you used anisotropic Eliashberg superconductivity please cite:           
              E. R. Margine and F. Giustino, Phys. Rev. B 87, 024505 (2013)               
              if you used transport properties (scattering rates, mobility) please cite:  
              S. Ponce, E. R. Margine and F. Giustino, Phys. Rev. B 97, 121201 (2018)     
