                                                                                      
                                       ``:oss/                                        
                           `.+s+.     .+ys--yh+     `./ss+.                           
                          -sh//yy+`   +yy   +yy    -+h+-oyy                           
                          -yh- .oyy/.-sh.   .syo-.:sy-  /yh                           
                 `.-.`    `yh+   -oyyyo.     `/syys:    oys      `.`                  
               `/+ssys+-` `sh+      `                   oys`   .:osyo`                
               -yh- ./syyooyo`                          .sys+/oyo--yh/                
               `yy+    .-:-.                             `-/+/:`  -sh-                
                /yh.                                              oys                 
          ``..---hho---------`   .---------..`      `.-----.`    -hd+---.             
       `./osmNMMMMMMMMMMMMMMMs. +NNMMMMMMMMNNmh+.   yNMMMMMNm-  oNMMMMMNmo++:`        
       +sy--/sdMMMhyyyyyyyNMMh- .oyNMMmyyyyyhNMMm+` -yMMMdyyo:` .oyyNMMNhs+syy`       
       -yy/   /MMM+.`-+/``mMMy-   `mMMh:`````.dMMN:` `MMMy-`-dhhy```mMMy:``+hs        
        -yy+` /MMMo:-mMM+`-oo/.    mMMh:     `dMMN/`  dMMm:`dMMMMy..MMMo-.+yo`        
         .sys`/MMMMNNMMMs-         mMMmyooooymMMNo:   oMMM/sMMMMMM++MMN//oh:          
          `sh+/MMMhyyMMMs- `-`     mMMMMMMMMMNmy+-`   -MMMhMMMsmMMmdMMd/yy+           
    `-/+++oyy-/MMM+.`/hh/.`mNm:`   mMMd+/////:-.`      NMMMMMd/:NMMMMMy:/yyo/:.`      
   +os+//:-..-oMMMo:--:::-/MMMo. .-mMMd+---`           hMMMMN+. oMMMMMo. `-+osyso:`   
   syo     `mNMMMMMNNNNNNNNMMMo.oNNMMMMMNNNN:`         +MMMMs:`  dMMMN/`     ``:syo   
   /yh`     :syyyyyyyyyyyyyyyy+.`+syyyyyyyyo:`         .oyys:`   .oyys:`        +yh   
   -yh-        ````````````````    `````````              ``        ``          oys   
   -+h/------------------------::::::::://////++++++++++++++++++++++///////::::/yd:   
   shdddddddddddddddddddddddddddddhhhhhhhhyyyyyssssssssssssssssyyyyyyyhhhhhhhddddh`   
                                                                                      
  S. Ponce, E. R. Margine, C. Verdi, and F. Giustino,                                 
                                                Comput. Phys. Commun. 209, 116 (2016) 
                                                                                      

     Program EPW v.4.2.0 (svn rev. 13680) starts on  3Aug2017 at 15:49:14 

     This program is part of the open-source Quantum ESPRESSO suite
     for quantum simulation of materials; please cite
         "P. Giannozzi et al., J. Phys.:Condens. Matter 21 395502 (2009);
          URL http://www.quantum-espresso.org", 
     in publications or presentations arising from this work. More details at
     http://www.quantum-espresso.org/quote

     Parallel version (MPI), running on     1 processors
                      
     ------------------------------------------------------------------------ 
                   RESTART - RESTART - RESTART - RESTART                         
     Restart is done without reading PWSCF save file.                  
     Be aware that some consistency checks are therefore not done.                  
     ------------------------------------------------------------------------ 
                      

     --                                                                         

     bravais-lattice index     =            0
     lattice parameter (a_0)   =       0.0000  a.u.
     unit-cell volume          =       0.0000 (a.u.)^3
     number of atoms/cell      =            0
     number of atomic types    =            0
     kinetic-energy cut-off    =       0.0000  Ry
     charge density cut-off    =       0.0000  Ry
     convergence threshold     =      0.0E+00
     beta                      =       0.0000
     number of iterations used =            0
     Exchange-correlation      = not set (-1 -1 -1 -1-1-1)


     celldm(1)=    0.00000  celldm(2)=    0.00000  celldm(3)=    0.00000
     celldm(4)=    0.00000  celldm(5)=    0.00000  celldm(6)=    0.00000

     crystal axes: (cart. coord. in units of a_0)
               a(1) = (  0.0000  0.0000  0.0000 )  
               a(2) = (  0.0000  0.0000  0.0000 )  
               a(3) = (  0.0000  0.0000  0.0000 )  

     reciprocal axes: (cart. coord. in units 2 pi/a_0)
               b(1) = (  0.0000  0.0000  0.0000 )  
               b(2) = (  0.0000  0.0000  0.0000 )  
               b(3) = (  0.0000  0.0000  0.0000 )  


     Atoms inside the unit cell: 

   Cartesian axes

     site n.  atom      mass           positions (a_0 units)


     No symmetry!

     G cutoff =    0.0000  (      0 G-vectors)     FFT grid: (  0,  0,  0)
     number of k points=    0
                       cart. coord. in units 2pi/a_0
     EPW          :     0.00s CPU         0.00s WALL

     EPW          :     0.00s CPU         0.00s WALL

     No wavefunction gauge setting applied

     -------------------------------------------------------------------
     Using ./diam.ukk from disk
     -------------------------------------------------------------------


     Using kmap and kgmap from disk

     Do not need to read .epb files; read .fmt files


              band disentanglement is used:  nbndsub =    4

     Reading Hamiltonian, Dynamical matrix and EP vertex in Wann rep from file


     Finished reading Wann rep data from file

     ===================================================================
     Memory usage:  VmHWM =        18Mb
                   VmPeak =       230Mb
     ===================================================================
     
     Using uniform k-mesh:    6   6   6
     Size of k point mesh for interpolation:        432
     Using uniform q-mesh:    6   6   6
     Size of q point mesh for interpolation:        216
     Max number of q points per pool:              216

     Fermi energy coarse grid =  14.009584 eV

     Fermi energy is calculated from the fine k-mesh: Ef =  13.576273 eV

     Warning: check if difference with Fermi level fine grid makes sense

     ===================================================================

              ibndmin =     1  ebndmin =    -0.074
              ibndmax =     4  ebndmax =     1.021


     Number of ep-matrix elements per pool :        20736 ~=  162.00 Kb (@ 8 bytes/ DP)

     ===================================================================
     Electron (Imaginary) Self-Energy in the Migdal Approximation
     ===================================================================


     Fermi Surface thickness =  15.000000 eV

     Golden Rule strictly enforced with T =   0.025852 eV
     WARNING: only the eigenstates within the Fermi window are meaningful
     Gaussian Broadening:   1.000000 eV, ngauss=   1
 
     Average over degenerate eigenstates is performed

     ik =       1 coord.:    0.0000000   0.0000000   0.0000000
     -------------------------------------------------------------------
     E(   1 )= -21.5330 eV   Re[Sigma]=     -64.673576 meV Im[Sigma]=       6.812247 meV     Z=       0.993360 lam=       0.006685
     E(   2 )=   0.3145 eV   Re[Sigma]=     144.080954 meV Im[Sigma]=      42.025480 meV     Z=       0.982766 lam=       0.017536
     E(   3 )=   0.3145 eV   Re[Sigma]=     144.080954 meV Im[Sigma]=      42.025480 meV     Z=       0.982766 lam=       0.017536
     E(   4 )=   0.3145 eV   Re[Sigma]=     144.080954 meV Im[Sigma]=      42.025480 meV     Z=       0.982766 lam=       0.017536
     -------------------------------------------------------------------


     ===================================================================
     Nesting Function in the double delta approx
     ===================================================================


     Fermi Surface thickness =  15.000000 eV

     Golden Rule strictly enforced with T =   0.025852 eV
     Gaussian Broadening:   1.000 eV, ngauss=   1
     DOS =  0.055485 states/spin/eV/Unit Cell at Ef= 13.576273 eV

     ===================================================================
     Electron Spectral Function in the Migdal Approximation
     ===================================================================


     Fermi Surface thickness =  15.000000 eV

     Golden Rule strictly enforced with T =   0.025852 eV
     Gaussian Broadening:   1.000000 eV, ngauss=   1
 
     The sum rule to conserve the number of electron is enforced.
     The self energy is rescaled so that its real part is zero at the Fermi level.
     The sum rule replace the explicit calculation of the Debye-Waller term.
 
     WARNING: only the eigenstates within the Fermi window are meaningful

     ik =     1 coord.:    0.0000000   0.0000000   0.0000000
     -------------------------------------------------------------------
     ik =       1  w =   -4.0000 eV   A(k,w) =  0.11217E-04 meV^-1
     ik =       1  w =   -3.7368 eV   A(k,w) =  0.12782E-04 meV^-1
     ik =       1  w =   -3.4737 eV   A(k,w) =  0.14631E-04 meV^-1
     ik =       1  w =   -3.2105 eV   A(k,w) =  0.16821E-04 meV^-1
     ik =       1  w =   -2.9474 eV   A(k,w) =  0.19303E-04 meV^-1
     ik =       1  w =   -2.6842 eV   A(k,w) =  0.21866E-04 meV^-1
     ik =       1  w =   -2.4211 eV   A(k,w) =  0.24422E-04 meV^-1
     ik =       1  w =   -2.1579 eV   A(k,w) =  0.27305E-04 meV^-1
     ik =       1  w =   -1.8947 eV   A(k,w) =  0.31080E-04 meV^-1
     ik =       1  w =   -1.6316 eV   A(k,w) =  0.36439E-04 meV^-1
     ik =       1  w =   -1.3684 eV   A(k,w) =  0.44522E-04 meV^-1
     ik =       1  w =   -1.1053 eV   A(k,w) =  0.57416E-04 meV^-1
     ik =       1  w =   -0.8421 eV   A(k,w) =  0.78994E-04 meV^-1
     ik =       1  w =   -0.5789 eV   A(k,w) =  0.11828E-03 meV^-1
     ik =       1  w =   -0.3158 eV   A(k,w) =  0.20554E-03 meV^-1
     ik =       1  w =   -0.0526 eV   A(k,w) =  0.50798E-03 meV^-1
     ik =       1  w =    0.2105 eV   A(k,w) =  0.42612E-02 meV^-1
     ik =       1  w =    0.4737 eV   A(k,w) =  0.16714E-02 meV^-1
     ik =       1  w =    0.7368 eV   A(k,w) =  0.22666E-03 meV^-1
     ik =       1  w =    1.0000 eV   A(k,w) =  0.73763E-04 meV^-1
     -------------------------------------------------------------------

        1       -4.0000   0.11217E-04
        1       -3.7368   0.12782E-04
        1       -3.4737   0.14631E-04
        1       -3.2105   0.16821E-04
        1       -2.9474   0.19303E-04
        1       -2.6842   0.21866E-04
        1       -2.4211   0.24422E-04
        1       -2.1579   0.27305E-04
        1       -1.8947   0.31080E-04
        1       -1.6316   0.36439E-04
        1       -1.3684   0.44522E-04
        1       -1.1053   0.57416E-04
        1       -0.8421   0.78994E-04
        1       -0.5789   0.11828E-03
        1       -0.3158   0.20554E-03
        1       -0.0526   0.50798E-03
        1        0.2105   0.42612E-02
        1        0.4737   0.16714E-02
        1        0.7368   0.22666E-03
        1        1.0000   0.73763E-04
        1        1      -21.5330       -4.0000      -36.0838      141.3312
        1        1      -21.5330       -3.7368      -28.8923      138.2373
        1        1      -21.5330       -3.4737      -21.5174      134.4396
        1        1      -21.5330       -3.2105      -13.8598      129.7763
        1        1      -21.5330       -2.9474       -5.9568      123.7647
        1        1      -21.5330       -2.6842        1.5618      115.6863
        1        1      -21.5330       -2.4211        7.2249      105.6594
        1        1      -21.5330       -2.1579       10.2726       95.1077
        1        1      -21.5330       -1.8947       11.2618       85.2347
        1        1      -21.5330       -1.6316       11.0108       76.3424
        1        1      -21.5330       -1.3684        9.9661       68.3650
        1        1      -21.5330       -1.1053        8.4638       61.2865
        1        1      -21.5330       -0.8421        6.8902       54.8954
        1        1      -21.5330       -0.5789        5.3411       48.7149
        1        1      -21.5330       -0.3158        3.4105       42.4337
        1        1      -21.5330       -0.0526        0.6512       36.3543
        1        1      -21.5330        0.2105       -2.8325       30.9932
        1        1      -21.5330        0.4737       -6.6380       26.5075
        1        1      -21.5330        0.7368      -10.5038       22.7864
        1        1      -21.5330        1.0000      -14.3175       19.7187
  
        1        2        0.3145       -4.0000     -122.7360      203.8488
        1        2        0.3145       -3.7368     -110.7048      205.8081
        1        2        0.3145       -3.4737      -97.8172      207.0815
        1        2        0.3145       -3.2105      -83.2535      207.5387
        1        2        0.3145       -2.9474      -66.2066      205.7376
        1        2        0.3145       -2.6842      -47.7528      199.0512
        1        2        0.3145       -2.4211      -31.5943      186.8446
        1        2        0.3145       -2.1579      -20.1923      171.8847
        1        2        0.3145       -1.8947      -13.0438      156.9434
        1        2        0.3145       -1.6316       -8.7983      143.1670
        1        2        0.3145       -1.3684       -6.3453      131.0135
        1        2        0.3145       -1.1053       -4.3676      120.4654
        1        2        0.3145       -0.8421       -1.8695      110.4422
        1        2        0.3145       -0.5789        0.8089       99.4361
        1        2        0.3145       -0.3158        2.0412       86.9528
        1        2        0.3145       -0.0526        0.5906       74.2984
        1        2        0.3145        0.2105       -3.0376       63.0137
        1        2        0.3145        0.4737       -7.7186       53.4079
        1        2        0.3145        0.7368      -12.9474       45.1591
        1        2        0.3145        1.0000      -18.5902       38.1686
  
        1        3        0.3145       -4.0000     -122.6647      203.8216
        1        3        0.3145       -3.7368     -110.6379      205.7788
        1        3        0.3145       -3.4737      -97.7547      207.0519
        1        3        0.3145       -3.2105      -83.1944      207.5107
        1        3        0.3145       -2.9474      -66.1482      205.7126
        1        3        0.3145       -2.6842      -47.6917      199.0285
        1        3        0.3145       -2.4211      -31.5279      186.8209
        1        3        0.3145       -2.1579      -20.1209      171.8554
        1        3        0.3145       -1.8947      -12.9702      156.9051
        1        3        0.3145       -1.6316       -8.7265      143.1185
        1        3        0.3145       -1.3684       -6.2790      130.9550
        1        3        0.3145       -1.1053       -4.3100      120.3982
        1        3        0.3145       -0.8421       -1.8242      110.3682
        1        3        0.3145       -0.5789        0.8385       99.3598
        1        3        0.3145       -0.3158        2.0547       86.8813
        1        3        0.3145       -0.0526        0.5922       74.2374
        1        3        0.3145        0.2105       -3.0418       62.9649
        1        3        0.3145        0.4737       -7.7240       53.3701
        1        3        0.3145        0.7368      -12.9514       45.1297
        1        3        0.3145        1.0000      -18.5919       38.1455
  
        1        4        0.3145       -4.0000     -124.9457      204.6861
        1        4        0.3145       -3.7368     -112.7761      206.7108
        1        4        0.3145       -3.4737      -99.7532      207.9945
        1        4        0.3145       -3.2105      -85.0869      208.4011
        1        4        0.3145       -2.9474      -68.0161      206.5081
        1        4        0.3145       -2.6842      -49.6471      199.7509
        1        4        0.3145       -2.4211      -33.6534      187.5773
        1        4        0.3145       -2.1579      -22.4072      172.7909
        1        4        0.3145       -1.8947      -15.3249      158.1278
        1        4        0.3145       -1.6316      -11.0243      144.6700
        1        4        0.3145       -1.3684       -8.4032      132.8242
        1        4        0.3145       -1.1053       -6.1554      122.5499
        1        4        0.3145       -0.8421       -3.2747      112.7358
        1        4        0.3145       -0.5789       -0.1087      101.7998
        1        4        0.3145       -0.3158        1.6230       89.1715
        1        4        0.3145       -0.0526        0.5401       76.1900
        1        4        0.3145        0.2105       -2.9086       64.5240
        1        4        0.3145        0.4737       -7.5532       54.5809
        1        4        0.3145        0.7368      -12.8225       46.0685
        1        4        0.3145        1.0000      -18.5378       38.8813
  
     Average over degenerate eigenstates is performed

     ik =       2 coord.:    0.0000000   0.0000000   0.1666667
     -------------------------------------------------------------------
     E(   1 )= -20.7958 eV   Re[Sigma]=     -65.523582 meV Im[Sigma]=      15.299622 meV     Z=       0.997612 lam=       0.002394
     E(   2 )=  -2.5926 eV   Re[Sigma]=      91.317597 meV Im[Sigma]=     184.016828 meV     Z=       1.046154 lam=      -0.044118
     E(   3 )=  -0.4527 eV   Re[Sigma]=     133.607550 meV Im[Sigma]=      76.855926 meV     Z=       1.002107 lam=      -0.002102
     E(   4 )=  -0.4527 eV   Re[Sigma]=     133.607550 meV Im[Sigma]=      76.855926 meV     Z=       1.002107 lam=      -0.002102
     -------------------------------------------------------------------

     WARNING: only the eigenstates within the Fermi window are meaningful

     ik =     2 coord.:    0.0000000   0.0000000   0.1666667
     -------------------------------------------------------------------
     ik =       2  w =   -4.0000 eV   A(k,w) =  0.37429E-04 meV^-1
     ik =       2  w =   -3.7368 eV   A(k,w) =  0.53568E-04 meV^-1
     ik =       2  w =   -3.4737 eV   A(k,w) =  0.84685E-04 meV^-1
     ik =       2  w =   -3.2105 eV   A(k,w) =  0.15901E-03 meV^-1
     ik =       2  w =   -2.9474 eV   A(k,w) =  0.41560E-03 meV^-1
     ik =       2  w =   -2.6842 eV   A(k,w) =  0.18475E-02 meV^-1
     ik =       2  w =   -2.4211 eV   A(k,w) =  0.83351E-03 meV^-1
     ik =       2  w =   -2.1579 eV   A(k,w) =  0.22070E-03 meV^-1
     ik =       2  w =   -1.8947 eV   A(k,w) =  0.11365E-03 meV^-1
     ik =       2  w =   -1.6316 eV   A(k,w) =  0.92133E-04 meV^-1
     ik =       2  w =   -1.3684 eV   A(k,w) =  0.10561E-03 meV^-1
     ik =       2  w =   -1.1053 eV   A(k,w) =  0.16507E-03 meV^-1
     ik =       2  w =   -0.8421 eV   A(k,w) =  0.38420E-03 meV^-1
     ik =       2  w =   -0.5789 eV   A(k,w) =  0.22926E-02 meV^-1
     ik =       2  w =   -0.3158 eV   A(k,w) =  0.20001E-02 meV^-1
     ik =       2  w =   -0.0526 eV   A(k,w) =  0.24752E-03 meV^-1
     ik =       2  w =    0.2105 eV   A(k,w) =  0.77799E-04 meV^-1
     ik =       2  w =    0.4737 eV   A(k,w) =  0.34229E-04 meV^-1
     ik =       2  w =    0.7368 eV   A(k,w) =  0.17802E-04 meV^-1
     ik =       2  w =    1.0000 eV   A(k,w) =  0.10241E-04 meV^-1
     -------------------------------------------------------------------

        2       -4.0000   0.37429E-04
        2       -3.7368   0.53568E-04
        2       -3.4737   0.84685E-04
        2       -3.2105   0.15901E-03
        2       -2.9474   0.41560E-03
        2       -2.6842   0.18475E-02
        2       -2.4211   0.83351E-03
        2       -2.1579   0.22070E-03
        2       -1.8947   0.11365E-03
        2       -1.6316   0.92133E-04
        2       -1.3684   0.10561E-03
        2       -1.1053   0.16507E-03
        2       -0.8421   0.38420E-03
        2       -0.5789   0.22926E-02
        2       -0.3158   0.20001E-02
        2       -0.0526   0.24752E-03
        2        0.2105   0.77799E-04
        2        0.4737   0.34229E-04
        2        0.7368   0.17802E-04
        2        1.0000   0.10241E-04
        2        1      -20.7958       -4.0000      -34.2005      134.0741
        2        1      -20.7958       -3.7368      -27.1882      131.3728
        2        1      -20.7958       -3.4737      -19.9347      127.9154
        2        1      -20.7958       -3.2105      -12.4001      123.5416
        2        1      -20.7958       -2.9474       -4.6369      117.8217
        2        1      -20.7958       -2.6842        2.7695      110.0658
        2        1      -20.7958       -2.4211        8.3936      100.3512
        2        1      -20.7958       -2.1579       11.4484       90.0329
        2        1      -20.7958       -1.8947       12.4087       80.3048
        2        1      -20.7958       -1.6316       12.0354       71.5393
        2        1      -20.7958       -1.3684       10.8159       63.7561
        2        1      -20.7958       -1.1053        9.1673       56.9220
        2        1      -20.7958       -0.8421        7.4575       50.7589
        2        1      -20.7958       -0.5789        5.7067       44.8248
        2        1      -20.7958       -0.3158        3.5413       38.9212
        2        1      -20.7958       -0.0526        0.6550       33.3603
        2        1      -20.7958        0.2105       -2.7769       28.5420
        2        1      -20.7958        0.4737       -6.3946       24.5220
        2        1      -20.7958        0.7368      -10.0104       21.1600
        2        1      -20.7958        1.0000      -13.5633       18.3596
  
        2        2       -2.5926       -4.0000      -81.0511      155.1423
        2        2       -2.5926       -3.7368      -72.0915      155.4785
        2        2       -2.5926       -3.4737      -62.6837      155.2562
        2        2       -2.5926       -3.2105      -52.2441      154.4400
        2        2       -2.5926       -2.9474      -40.1870      152.0214
        2        2       -2.5926       -2.6842      -27.3006      146.1524
        2        2       -2.5926       -2.4211      -16.2258      136.4611
        2        2       -2.5926       -2.1579       -8.6266      124.9872
        2        2       -2.5926       -1.8947       -4.0365      113.6695
        2        2       -2.5926       -1.6316       -1.4583      103.2316
        2        2       -2.5926       -1.3684       -0.1407       93.9138
        2        2       -2.5926       -1.1053        0.7526       85.6693
        2        2       -2.5926       -0.8421        1.8119       77.7937
        2        2       -2.5926       -0.5789        2.7557       69.3863
        2        2       -2.5926       -0.3158        2.5672       60.2620
        2        2       -2.5926       -0.0526        0.5861       51.3236
        2        2       -2.5926        0.2105       -2.7486       43.5176
        2        2       -2.5926        0.4737       -6.6613       36.9764
        2        2       -2.5926        0.7368      -10.8036       31.4281
        2        2       -2.5926        1.0000      -15.0985       26.7484
  
        2        3       -0.4527       -4.0000     -104.6339      178.8220
        2        3       -0.4527       -3.7368      -94.0240      180.4271
        2        3       -0.4527       -3.4737      -82.6112      181.3205
        2        3       -0.4527       -3.2105      -69.7961      181.3347
        2        3       -0.4527       -2.9474      -55.0201      179.2883
        2        3       -0.4527       -2.6842      -39.2509      173.0840
        2        3       -0.4527       -2.4211      -25.5612      162.3186
        2        3       -0.4527       -2.1579      -15.8798      149.3618
        2        3       -0.4527       -1.8947       -9.6816      136.4444
        2        3       -0.4527       -1.6316       -5.8608      124.4046
        2        3       -0.4527       -1.3684       -3.5866      113.5791
        2        3       -0.4527       -1.1053       -1.8452      103.9775
        2        3       -0.4527       -0.8421        0.1231       94.7511
        2        3       -0.4527       -0.5789        1.9811       84.7574
        2        3       -0.4527       -0.3158        2.4319       73.7400
        2        3       -0.4527       -0.0526        0.6080       62.8382
        2        3       -0.4527        0.2105       -2.9562       53.2628
        2        3       -0.4527        0.4737       -7.2973       45.1902
        2        3       -0.4527        0.7368      -11.9990       38.2970
        2        3       -0.4527        1.0000      -16.9702       32.4628
  
        2        4       -0.4527       -4.0000     -105.0492      179.0034
        2        4       -0.4527       -3.7368      -94.4204      180.6289
        2        4       -0.4527       -3.4737      -82.9886      181.5401
        2        4       -0.4527       -3.2105      -70.1531      181.5704
        2        4       -0.4527       -2.9474      -55.3546      179.5367
        2        4       -0.4527       -2.6842      -39.5635      173.3402
        2        4       -0.4527       -2.4211      -25.8562      162.5802
        2        4       -0.4527       -2.1579      -16.1614      149.6322
        2        4       -0.4527       -1.8947       -9.9478      136.7311
        2        4       -0.4527       -1.6316       -6.1024      124.7121
        2        4       -0.4527       -1.3684       -3.7907      113.9055
        2        4       -0.4527       -1.1053       -1.9988      104.3124
        2        4       -0.4527       -0.8421        0.0262       95.0748
        2        4       -0.4527       -0.5789        1.9339       85.0487
        2        4       -0.4527       -0.3158        2.4171       73.9860
        2        4       -0.4527       -0.0526        0.6070       63.0372
        2        4       -0.4527        0.2105       -2.9570       53.4208
        2        4       -0.4527        0.4737       -7.3055       45.3156
        2        4       -0.4527        0.7368      -12.0178       38.3973
        2        4       -0.4527        1.0000      -17.0006       32.5438
  
     Average over degenerate eigenstates is performed

     ik =       3 coord.:    0.0000000   0.0000000   0.3333333
     -------------------------------------------------------------------
     E(   1 )= -18.3978 eV   Re[Sigma]=     -56.338545 meV Im[Sigma]=      40.534040 meV     Z=       1.002330 lam=      -0.002325
     E(   2 )=  -9.2191 eV   Re[Sigma]=     -13.643144 meV Im[Sigma]=      49.627967 meV     Z=       0.997292 lam=       0.002716
     E(   3 )=  -2.0907 eV   Re[Sigma]=      96.624756 meV Im[Sigma]=     145.978425 meV     Z=       1.021935 lam=      -0.021464
     E(   4 )=  -2.0907 eV   Re[Sigma]=      96.624756 meV Im[Sigma]=     145.978425 meV     Z=       1.021935 lam=      -0.021464
     -------------------------------------------------------------------

     WARNING: only the eigenstates within the Fermi window are meaningful

     ik =     3 coord.:    0.0000000   0.0000000   0.3333333
     -------------------------------------------------------------------
     ik =       3  w =   -4.0000 eV   A(k,w) =  0.28701E-04 meV^-1
     ik =       3  w =   -3.7368 eV   A(k,w) =  0.38558E-04 meV^-1
     ik =       3  w =   -3.4737 eV   A(k,w) =  0.54480E-04 meV^-1
     ik =       3  w =   -3.2105 eV   A(k,w) =  0.82470E-04 meV^-1
     ik =       3  w =   -2.9474 eV   A(k,w) =  0.13749E-03 meV^-1
     ik =       3  w =   -2.6842 eV   A(k,w) =  0.26837E-03 meV^-1
     ik =       3  w =   -2.4211 eV   A(k,w) =  0.74050E-03 meV^-1
     ik =       3  w =   -2.1579 eV   A(k,w) =  0.43451E-02 meV^-1
     ik =       3  w =   -1.8947 eV   A(k,w) =  0.13187E-02 meV^-1
     ik =       3  w =   -1.6316 eV   A(k,w) =  0.28516E-03 meV^-1
     ik =       3  w =   -1.3684 eV   A(k,w) =  0.10958E-03 meV^-1
     ik =       3  w =   -1.1053 eV   A(k,w) =  0.54701E-04 meV^-1
     ik =       3  w =   -0.8421 eV   A(k,w) =  0.31342E-04 meV^-1
     ik =       3  w =   -0.5789 eV   A(k,w) =  0.19251E-04 meV^-1
     ik =       3  w =   -0.3158 eV   A(k,w) =  0.12195E-04 meV^-1
     ik =       3  w =   -0.0526 eV   A(k,w) =  0.78948E-05 meV^-1
     ik =       3  w =    0.2105 eV   A(k,w) =  0.52560E-05 meV^-1
     ik =       3  w =    0.4737 eV   A(k,w) =  0.35998E-05 meV^-1
     ik =       3  w =    0.7368 eV   A(k,w) =  0.25178E-05 meV^-1
     ik =       3  w =    1.0000 eV   A(k,w) =  0.17928E-05 meV^-1
     -------------------------------------------------------------------

        3       -4.0000   0.28701E-04
        3       -3.7368   0.38558E-04
        3       -3.4737   0.54480E-04
        3       -3.2105   0.82470E-04
        3       -2.9474   0.13749E-03
        3       -2.6842   0.26837E-03
        3       -2.4211   0.74050E-03
        3       -2.1579   0.43451E-02
        3       -1.8947   0.13187E-02
        3       -1.6316   0.28516E-03
        3       -1.3684   0.10958E-03
        3       -1.1053   0.54701E-04
        3       -0.8421   0.31342E-04
        3       -0.5789   0.19251E-04
        3       -0.3158   0.12195E-04
        3       -0.0526   0.78948E-05
        3        0.2105   0.52560E-05
        3        0.4737   0.35998E-05
        3        0.7368   0.25178E-05
        3        1.0000   0.17928E-05
        3        1      -18.3978       -4.0000      -31.6291      115.3534
        3        1      -18.3978       -3.7368      -25.4155      113.2760
        3        1      -18.3978       -3.4737      -19.0570      110.5209
        3        1      -18.3978       -3.2105      -12.4421      107.0398
        3        1      -18.3978       -2.9474       -5.4920      102.4027
        3        1      -18.3978       -2.6842        1.2708       95.8593
        3        1      -18.3978       -2.4211        6.4642       87.4220
        3        1      -18.3978       -2.1579        9.2915       78.3469
        3        1      -18.3978       -1.8947       10.1437       69.7825
        3        1      -18.3978       -1.6316        9.7210       62.1534
        3        1      -18.3978       -1.3684        8.5621       55.5413
        3        1      -18.3978       -1.1053        7.1714       49.8542
        3        1      -18.3978       -0.8421        5.8890       44.6949
        3        1      -18.3978       -0.5789        4.6255       39.5895
        3        1      -18.3978       -0.3158        2.9454       34.3967
        3        1      -18.3978       -0.0526        0.5535       29.4702
        3        1      -18.3978        0.2105       -2.3642       25.2054
        3        1      -18.3978        0.4737       -5.4606       21.6516
        3        1      -18.3978        0.7368       -8.5642       18.6721
        3        1      -18.3978        1.0000      -11.6282       16.1801
  
        3        2       -9.2191       -4.0000      -40.7386       91.0198
        3        2       -9.2191       -3.7368      -35.7763       90.8004
        3        2       -9.2191       -3.4737      -30.5958       90.2455
        3        2       -9.2191       -3.2105      -24.8812       89.3677
        3        2       -9.2191       -2.9474      -18.2718       87.6211
        3        2       -9.2191       -2.6842      -11.1706       83.9318
        3        2       -9.2191       -2.4211       -5.0955       78.0193
        3        2       -9.2191       -2.1579       -1.0805       71.0344
        3        2       -9.2191       -1.8947        1.0841       64.1549
        3        2       -9.2191       -1.6316        1.9849       57.8830
        3        2       -9.2191       -1.3684        2.1242       52.4045
        3        2       -9.2191       -1.1053        2.0530       47.6778
        3        2       -9.2191       -0.8421        2.1419       43.2600
        3        2       -9.2191       -0.5789        2.2376       38.6080
        3        2       -9.2191       -0.3158        1.7708       33.5986
        3        2       -9.2191       -0.0526        0.3765       28.7147
        3        2       -9.2191        0.2105       -1.7082       24.4589
        3        2       -9.2191        0.4737       -4.0680       20.8916
        3        2       -9.2191        0.7368       -6.5237       17.8561
        3        2       -9.2191        1.0000       -9.0458       15.2829
  
        3        3       -2.0907       -4.0000      -84.9876      143.9978
        3        3       -2.0907       -3.7368      -76.4937      145.5588
        3        3       -2.0907       -3.4737      -67.2843      146.5666
        3        3       -2.0907       -3.2105      -56.8459      146.8972
        3        3       -2.0907       -2.9474      -44.6578      145.5387
        3        3       -2.0907       -2.6842      -31.5133      140.6587
        3        3       -2.0907       -2.4211      -20.0364      131.8397
        3        3       -2.0907       -2.1579      -11.9535      121.0478
        3        3       -2.0907       -1.8947       -6.9159      110.2288
        3        3       -2.0907       -1.6316       -3.9996      100.2070
        3        3       -2.0907       -1.3684       -2.4139       91.3399
        3        3       -2.0907       -1.1053       -1.2113       83.6045
        3        3       -2.0907       -0.8421        0.2688       76.2218
        3        3       -2.0907       -0.5789        1.7231       68.1947
        3        3       -2.0907       -0.3158        2.0430       59.3060
        3        3       -2.0907       -0.0526        0.5053       50.5120
        3        3       -2.0907        0.2105       -2.4423       42.8148
        3        3       -2.0907        0.4737       -5.9955       36.3563
        3        3       -2.0907        0.7368       -9.8050       30.8512
        3        3       -2.0907        1.0000      -13.8115       26.1807
  
        3        4       -2.0907       -4.0000      -85.9632      144.9481
        3        4       -2.0907       -3.7368      -77.3090      146.6098
        3        4       -2.0907       -3.4737      -67.9156      147.6739
        3        4       -2.0907       -3.2105      -57.2791      148.0080
        3        4       -2.0907       -2.9474      -44.9008      146.5901
        3        4       -2.0907       -2.6842      -31.6046      141.5945
        3        4       -2.0907       -2.4211      -20.0390      132.6310
        3        4       -2.0907       -2.1579      -11.9289      121.7054
        3        4       -2.0907       -1.8947       -6.8993      110.7873
        3        4       -2.0907       -1.6316       -3.9990      100.7004
        3        4       -2.0907       -1.3684       -2.4219       91.7898
        3        4       -2.0907       -1.1053       -1.2158       84.0186
        3        4       -2.0907       -0.8421        0.2757       76.5957
        3        4       -2.0907       -0.5789        1.7386       68.5203
        3        4       -2.0907       -0.3158        2.0576       59.5800
        3        4       -2.0907       -0.0526        0.5085       50.7374
        3        4       -2.0907        0.2105       -2.4577       42.9990
        3        4       -2.0907        0.4737       -6.0330       36.5077
        3        4       -2.0907        0.7368       -9.8649       30.9770
        3        4       -2.0907        1.0000      -13.8929       26.2866
  
     Average over degenerate eigenstates is performed

     ik =       4 coord.:    0.0000000   0.0000000   0.5000000
     -------------------------------------------------------------------
     E(   1 )= -15.6077 eV   Re[Sigma]=     -40.965481 meV Im[Sigma]=      59.574815 meV     Z=       1.004765 lam=      -0.004742
     E(   2 )= -14.0678 eV   Re[Sigma]=     -10.055146 meV Im[Sigma]=      62.458631 meV     Z=       1.003648 lam=      -0.003634
     E(   3 )=  -2.9614 eV   Re[Sigma]=      54.148868 meV Im[Sigma]=     173.019286 meV     Z=       1.045794 lam=      -0.043788
     E(   4 )=  -2.9614 eV   Re[Sigma]=      54.148868 meV Im[Sigma]=     173.019286 meV     Z=       1.045794 lam=      -0.043788
     -------------------------------------------------------------------

     WARNING: only the eigenstates within the Fermi window are meaningful

     ik =     4 coord.:    0.0000000   0.0000000   0.5000000
     -------------------------------------------------------------------
     ik =       4  w =   -4.0000 eV   A(k,w) =  0.87587E-04 meV^-1
     ik =       4  w =   -3.7368 eV   A(k,w) =  0.16138E-03 meV^-1
     ik =       4  w =   -3.4737 eV   A(k,w) =  0.37912E-03 meV^-1
     ik =       4  w =   -3.2105 eV   A(k,w) =  0.14923E-02 meV^-1
     ik =       4  w =   -2.9474 eV   A(k,w) =  0.41415E-02 meV^-1
     ik =       4  w =   -2.6842 eV   A(k,w) =  0.73009E-03 meV^-1
     ik =       4  w =   -2.4211 eV   A(k,w) =  0.23068E-03 meV^-1
     ik =       4  w =   -2.1579 eV   A(k,w) =  0.10278E-03 meV^-1
     ik =       4  w =   -1.8947 eV   A(k,w) =  0.54665E-04 meV^-1
     ik =       4  w =   -1.6316 eV   A(k,w) =  0.32422E-04 meV^-1
     ik =       4  w =   -1.3684 eV   A(k,w) =  0.20752E-04 meV^-1
     ik =       4  w =   -1.1053 eV   A(k,w) =  0.14061E-04 meV^-1
     ik =       4  w =   -0.8421 eV   A(k,w) =  0.98751E-05 meV^-1
     ik =       4  w =   -0.5789 eV   A(k,w) =  0.70153E-05 meV^-1
     ik =       4  w =   -0.3158 eV   A(k,w) =  0.49593E-05 meV^-1
     ik =       4  w =   -0.0526 eV   A(k,w) =  0.34993E-05 meV^-1
     ik =       4  w =    0.2105 eV   A(k,w) =  0.24975E-05 meV^-1
     ik =       4  w =    0.4737 eV   A(k,w) =  0.18113E-05 meV^-1
     ik =       4  w =    0.7368 eV   A(k,w) =  0.13287E-05 meV^-1
     ik =       4  w =    1.0000 eV   A(k,w) =  0.98491E-06 meV^-1
     -------------------------------------------------------------------

        4       -4.0000   0.87587E-04
        4       -3.7368   0.16138E-03
        4       -3.4737   0.37912E-03
        4       -3.2105   0.14923E-02
        4       -2.9474   0.41415E-02
        4       -2.6842   0.73009E-03
        4       -2.4211   0.23068E-03
        4       -2.1579   0.10278E-03
        4       -1.8947   0.54665E-04
        4       -1.6316   0.32422E-04
        4       -1.3684   0.20752E-04
        4       -1.1053   0.14061E-04
        4       -0.8421   0.98751E-05
        4       -0.5789   0.70153E-05
        4       -0.3158   0.49593E-05
        4       -0.0526   0.34993E-05
        4        0.2105   0.24975E-05
        4        0.4737   0.18113E-05
        4        0.7368   0.13287E-05
        4        1.0000   0.98491E-06
        4        1      -15.6077       -4.0000      -33.9352      105.1040
        4        1      -15.6077       -3.7368      -27.9309      103.3869
        4        1      -15.6077       -3.4737      -22.0287      101.0254
        4        1      -15.6077       -3.2105      -16.0292       98.2210
        4        1      -15.6077       -2.9474       -9.5607       94.6192
        4        1      -15.6077       -2.6842       -2.9250       89.2784
        4        1      -15.6077       -2.4211        2.4838       81.9613
        4        1      -15.6077       -2.1579        5.7221       73.8046
        4        1      -15.6077       -1.8947        7.0519       65.9600
        4        1      -15.6077       -1.6316        7.1013       58.9058
        4        1      -15.6077       -1.3684        6.3980       52.7831
        4        1      -15.6077       -1.1053        5.4698       47.5173
        4        1      -15.6077       -0.8421        4.6568       42.6928
        4        1      -15.6077       -0.5789        3.8360       37.8308
        4        1      -15.6077       -0.3158        2.5429       32.8207
        4        1      -15.6077       -0.0526        0.4894       28.0547
        4        1      -15.6077        0.2105       -2.1143       23.9408
        4        1      -15.6077        0.4737       -4.9072       20.5210
        4        1      -15.6077        0.7368       -7.7195       17.6494
        4        1      -15.6077        1.0000      -10.5135       15.2405
  
        4        2      -14.0678       -4.0000      -26.4823       69.6957
        4        2      -14.0678       -3.7368      -22.8589       69.2859
        4        2      -14.0678       -3.4737      -19.0937       68.4625
        4        2      -14.0678       -3.2105      -15.1024       67.2999
        4        2      -14.0678       -2.9474      -10.6629       65.5555
        4        2      -14.0678       -2.6842       -5.9769       62.5719
        4        2      -14.0678       -2.4211       -2.0152       58.1540
        4        2      -14.0678       -2.1579        0.5531       53.0715
        4        2      -14.0678       -1.8947        1.9032       48.0915
        4        2      -14.0678       -1.6316        2.4222       43.5017
        4        2      -14.0678       -1.3684        2.3969       39.4174
        4        2      -14.0678       -1.1053        2.1765       35.8553
        4        2      -14.0678       -0.8421        2.0441       32.5473
        4        2      -14.0678       -0.5789        1.9313       29.1067
        4        2      -14.0678       -0.3158        1.4446       25.4128
        4        2      -14.0678       -0.0526        0.3002       21.7916
        4        2      -14.0678        0.2105       -1.3523       18.6130
        4        2      -14.0678        0.4737       -3.2179       15.9350
        4        2      -14.0678        0.7368       -5.1627       13.6557
        4        2      -14.0678        1.0000       -7.1557       11.7290
  
        4        3       -2.9614       -4.0000      -77.6538      128.7095
        4        3       -2.9614       -3.7368      -69.8936      130.2040
        4        3       -2.9614       -3.4737      -61.5342      131.1586
        4        3       -2.9614       -3.2105      -52.1394      131.4779
        4        3       -2.9614       -2.9474      -41.2549      130.3169
        4        3       -2.9614       -2.6842      -29.5345      126.0950
        4        3       -2.9614       -2.4211      -19.2404      118.4298
        4        3       -2.9614       -2.1579      -11.8638      109.0094
        4        3       -2.9614       -1.8947       -7.1144       99.4830
        4        3       -2.9614       -1.6316       -4.2486       90.5553
        4        3       -2.9614       -1.3684       -2.6162       82.5852
        4        3       -2.9614       -1.1053       -1.3713       75.5941
        4        3       -2.9614       -0.8421        0.0891       68.8959
        4        3       -2.9614       -0.5789        1.4884       61.5987
        4        3       -2.9614       -0.3158        1.8231       53.5246
        4        3       -2.9614       -0.0526        0.4537       45.5556
        4        3       -2.9614        0.2105       -2.1952       38.5984
        4        3       -2.9614        0.4737       -5.3859       32.7719
        4        3       -2.9614        0.7368       -8.8014       27.8073
        4        3       -2.9614        1.0000      -12.3935       23.5925
  
        4        4       -2.9614       -4.0000      -77.5596      128.5903
        4        4       -2.9614       -3.7368      -69.8321      130.0765
        4        4       -2.9614       -3.4737      -61.5019      131.0388
        4        4       -2.9614       -3.2105      -52.1265      131.3738
        4        4       -2.9614       -2.9474      -41.2525      130.2296
        4        4       -2.9614       -2.6842      -29.5364      126.0228
        4        4       -2.9614       -2.4211      -19.2425      118.3698
        4        4       -2.9614       -2.1579      -11.8639      108.9585
        4        4       -2.9614       -1.8947       -7.1118       99.4380
        4        4       -2.9614       -1.6316       -4.2438       90.5137
        4        4       -2.9614       -1.3684       -2.6107       82.5454
        4        4       -2.9614       -1.1053       -1.3667       75.5560
        4        4       -2.9614       -0.8421        0.0916       68.8603
        4        4       -2.9614       -0.5789        1.4889       61.5670
        4        4       -2.9614       -0.3158        1.8226       53.4977
        4        4       -2.9614       -0.0526        0.4535       45.5337
        4        4       -2.9614        0.2105       -2.1940       38.5809
        4        4       -2.9614        0.4737       -5.3826       32.7578
        4        4       -2.9614        0.7368       -8.7958       27.7959
        4        4       -2.9614        1.0000      -12.3858       23.5829
  
     Average over degenerate eigenstates is performed

     ik =       5 coord.:    0.0000000   0.0000000   0.6666667
     -------------------------------------------------------------------
     E(   1 )= -18.3978 eV   Re[Sigma]=     -56.338442 meV Im[Sigma]=      40.534079 meV     Z=       1.002330 lam=      -0.002325
     E(   2 )=  -9.2191 eV   Re[Sigma]=     -13.643205 meV Im[Sigma]=      49.627992 meV     Z=       0.997292 lam=       0.002716
     E(   3 )=  -2.0907 eV   Re[Sigma]=      96.624750 meV Im[Sigma]=     145.978295 meV     Z=       1.021935 lam=      -0.021464
     E(   4 )=  -2.0907 eV   Re[Sigma]=      96.624750 meV Im[Sigma]=     145.978295 meV     Z=       1.021935 lam=      -0.021464
     -------------------------------------------------------------------

     WARNING: only the eigenstates within the Fermi window are meaningful

     ik =     5 coord.:    0.0000000   0.0000000   0.6666667
     -------------------------------------------------------------------
     ik =       5  w =   -4.0000 eV   A(k,w) =  0.28701E-04 meV^-1
     ik =       5  w =   -3.7368 eV   A(k,w) =  0.38558E-04 meV^-1
     ik =       5  w =   -3.4737 eV   A(k,w) =  0.54480E-04 meV^-1
     ik =       5  w =   -3.2105 eV   A(k,w) =  0.82469E-04 meV^-1
     ik =       5  w =   -2.9474 eV   A(k,w) =  0.13749E-03 meV^-1
     ik =       5  w =   -2.6842 eV   A(k,w) =  0.26837E-03 meV^-1
     ik =       5  w =   -2.4211 eV   A(k,w) =  0.74050E-03 meV^-1
     ik =       5  w =   -2.1579 eV   A(k,w) =  0.43451E-02 meV^-1
     ik =       5  w =   -1.8947 eV   A(k,w) =  0.13187E-02 meV^-1
     ik =       5  w =   -1.6316 eV   A(k,w) =  0.28516E-03 meV^-1
     ik =       5  w =   -1.3684 eV   A(k,w) =  0.10958E-03 meV^-1
     ik =       5  w =   -1.1053 eV   A(k,w) =  0.54701E-04 meV^-1
     ik =       5  w =   -0.8421 eV   A(k,w) =  0.31342E-04 meV^-1
     ik =       5  w =   -0.5789 eV   A(k,w) =  0.19251E-04 meV^-1
     ik =       5  w =   -0.3158 eV   A(k,w) =  0.12195E-04 meV^-1
     ik =       5  w =   -0.0526 eV   A(k,w) =  0.78948E-05 meV^-1
     ik =       5  w =    0.2105 eV   A(k,w) =  0.52560E-05 meV^-1
     ik =       5  w =    0.4737 eV   A(k,w) =  0.35998E-05 meV^-1
     ik =       5  w =    0.7368 eV   A(k,w) =  0.25178E-05 meV^-1
     ik =       5  w =    1.0000 eV   A(k,w) =  0.17928E-05 meV^-1
     -------------------------------------------------------------------

        5       -4.0000   0.28701E-04
        5       -3.7368   0.38558E-04
        5       -3.4737   0.54480E-04
        5       -3.2105   0.82469E-04
        5       -2.9474   0.13749E-03
        5       -2.6842   0.26837E-03
        5       -2.4211   0.74050E-03
        5       -2.1579   0.43451E-02
        5       -1.8947   0.13187E-02
        5       -1.6316   0.28516E-03
        5       -1.3684   0.10958E-03
        5       -1.1053   0.54701E-04
        5       -0.8421   0.31342E-04
        5       -0.5789   0.19251E-04
        5       -0.3158   0.12195E-04
        5       -0.0526   0.78948E-05
        5        0.2105   0.52560E-05
        5        0.4737   0.35998E-05
        5        0.7368   0.25178E-05
        5        1.0000   0.17928E-05
        5        1      -18.3978       -4.0000      -31.6289      115.3533
        5        1      -18.3978       -3.7368      -25.4154      113.2759
        5        1      -18.3978       -3.4737      -19.0569      110.5208
        5        1      -18.3978       -3.2105      -12.4421      107.0397
        5        1      -18.3978       -2.9474       -5.4920      102.4026
        5        1      -18.3978       -2.6842        1.2708       95.8592
        5        1      -18.3978       -2.4211        6.4642       87.4219
        5        1      -18.3978       -2.1579        9.2914       78.3469
        5        1      -18.3978       -1.8947       10.1437       69.7825
        5        1      -18.3978       -1.6316        9.7210       62.1534
        5        1      -18.3978       -1.3684        8.5621       55.5413
        5        1      -18.3978       -1.1053        7.1713       49.8542
        5        1      -18.3978       -0.8421        5.8890       44.6949
        5        1      -18.3978       -0.5789        4.6255       39.5895
        5        1      -18.3978       -0.3158        2.9453       34.3967
        5        1      -18.3978       -0.0526        0.5535       29.4702
        5        1      -18.3978        0.2105       -2.3642       25.2054
        5        1      -18.3978        0.4737       -5.4606       21.6516
        5        1      -18.3978        0.7368       -8.5641       18.6721
        5        1      -18.3978        1.0000      -11.6282       16.1801
  
        5        2       -9.2191       -4.0000      -40.7386       91.0198
        5        2       -9.2191       -3.7368      -35.7763       90.8003
        5        2       -9.2191       -3.4737      -30.5958       90.2455
        5        2       -9.2191       -3.2105      -24.8813       89.3677
        5        2       -9.2191       -2.9474      -18.2719       87.6211
        5        2       -9.2191       -2.6842      -11.1707       83.9319
        5        2       -9.2191       -2.4211       -5.0956       78.0193
        5        2       -9.2191       -2.1579       -1.0806       71.0344
        5        2       -9.2191       -1.8947        1.0841       64.1549
        5        2       -9.2191       -1.6316        1.9848       57.8830
        5        2       -9.2191       -1.3684        2.1241       52.4046
        5        2       -9.2191       -1.1053        2.0530       47.6778
        5        2       -9.2191       -0.8421        2.1419       43.2600
        5        2       -9.2191       -0.5789        2.2376       38.6081
        5        2       -9.2191       -0.3158        1.7708       33.5987
        5        2       -9.2191       -0.0526        0.3765       28.7147
        5        2       -9.2191        0.2105       -1.7082       24.4589
        5        2       -9.2191        0.4737       -4.0680       20.8916
        5        2       -9.2191        0.7368       -6.5237       17.8561
        5        2       -9.2191        1.0000       -9.0458       15.2829
  
        5        3       -2.0907       -4.0000      -85.7136      144.7050
        5        3       -2.0907       -3.7368      -77.1003      146.3409
        5        3       -2.0907       -3.4737      -67.7541      147.3906
        5        3       -2.0907       -3.2105      -57.1682      147.7238
        5        3       -2.0907       -2.9474      -44.8385      146.3210
        5        3       -2.0907       -2.6842      -31.5812      141.3550
        5        3       -2.0907       -2.4211      -20.0383      132.4285
        5        3       -2.0907       -2.1579      -11.9351      121.5371
        5        3       -2.0907       -1.8947       -6.9035      110.6444
        5        3       -2.0907       -1.6316       -3.9991      100.5741
        5        3       -2.0907       -1.3684       -2.4198       91.6747
        5        3       -2.0907       -1.1053       -1.2146       83.9126
        5        3       -2.0907       -0.8421        0.2739       76.5000
        5        3       -2.0907       -0.5789        1.7346       68.4369
        5        3       -2.0907       -0.3158        2.0539       59.5099
        5        3       -2.0907       -0.0526        0.5077       50.6797
        5        3       -2.0907        0.2105       -2.4537       42.9519
        5        3       -2.0907        0.4737       -6.0234       36.4689
        5        3       -2.0907        0.7368       -9.8496       30.9448
        5        3       -2.0907        1.0000      -13.8721       26.2595
  
        5        4       -2.0907       -4.0000      -85.2371      144.2409
        5        4       -2.0907       -3.7368      -76.7021      145.8276
        5        4       -2.0907       -3.4737      -67.4457      146.8498
        5        4       -2.0907       -3.2105      -56.9566      147.1813
        5        4       -2.0907       -2.9474      -44.7199      145.8076
        5        4       -2.0907       -2.6842      -31.5366      140.8980
        5        4       -2.0907       -2.4211      -20.0370      132.0420
        5        4       -2.0907       -2.1579      -11.9472      121.2160
        5        4       -2.0907       -1.8947       -6.9116      110.3716
        5        4       -2.0907       -1.6316       -3.9994      100.3332
        5        4       -2.0907       -1.3684       -2.4159       91.4550
        5        4       -2.0907       -1.1053       -1.2125       83.7104
        5        4       -2.0907       -0.8421        0.2706       76.3174
        5        4       -2.0907       -0.5789        1.7270       68.2779
        5        4       -2.0907       -0.3158        2.0467       59.3761
        5        4       -2.0907       -0.0526        0.5061       50.5696
        5        4       -2.0907        0.2105       -2.4462       42.8619
        5        4       -2.0907        0.4737       -6.0051       36.3950
        5        4       -2.0907        0.7368       -9.8203       30.8833
        5        4       -2.0907        1.0000      -13.8323       26.2078
  
     Average over degenerate eigenstates is performed

     ik =       6 coord.:    0.0000000   0.0000000   0.8333333
     -------------------------------------------------------------------
     E(   1 )= -20.7958 eV   Re[Sigma]=     -65.523568 meV Im[Sigma]=      15.299666 meV     Z=       0.997612 lam=       0.002394
     E(   2 )=  -2.5926 eV   Re[Sigma]=      91.317627 meV Im[Sigma]=     184.017236 meV     Z=       1.046154 lam=      -0.044118
     E(   3 )=  -0.4527 eV   Re[Sigma]=     133.607482 meV Im[Sigma]=      76.855868 meV     Z=       1.002107 lam=      -0.002102
     E(   4 )=  -0.4527 eV   Re[Sigma]=     133.607482 meV Im[Sigma]=      76.855868 meV     Z=       1.002107 lam=      -0.002102
     -------------------------------------------------------------------

     WARNING: only the eigenstates within the Fermi window are meaningful

     ik =     6 coord.:    0.0000000   0.0000000   0.8333333
     -------------------------------------------------------------------
     ik =       6  w =   -4.0000 eV   A(k,w) =  0.37429E-04 meV^-1
     ik =       6  w =   -3.7368 eV   A(k,w) =  0.53568E-04 meV^-1
     ik =       6  w =   -3.4737 eV   A(k,w) =  0.84685E-04 meV^-1
     ik =       6  w =   -3.2105 eV   A(k,w) =  0.15901E-03 meV^-1
     ik =       6  w =   -2.9474 eV   A(k,w) =  0.41560E-03 meV^-1
     ik =       6  w =   -2.6842 eV   A(k,w) =  0.18475E-02 meV^-1
     ik =       6  w =   -2.4211 eV   A(k,w) =  0.83351E-03 meV^-1
     ik =       6  w =   -2.1579 eV   A(k,w) =  0.22070E-03 meV^-1
     ik =       6  w =   -1.8947 eV   A(k,w) =  0.11365E-03 meV^-1
     ik =       6  w =   -1.6316 eV   A(k,w) =  0.92133E-04 meV^-1
     ik =       6  w =   -1.3684 eV   A(k,w) =  0.10561E-03 meV^-1
     ik =       6  w =   -1.1053 eV   A(k,w) =  0.16507E-03 meV^-1
     ik =       6  w =   -0.8421 eV   A(k,w) =  0.38420E-03 meV^-1
     ik =       6  w =   -0.5789 eV   A(k,w) =  0.22926E-02 meV^-1
     ik =       6  w =   -0.3158 eV   A(k,w) =  0.20001E-02 meV^-1
     ik =       6  w =   -0.0526 eV   A(k,w) =  0.24752E-03 meV^-1
     ik =       6  w =    0.2105 eV   A(k,w) =  0.77799E-04 meV^-1
     ik =       6  w =    0.4737 eV   A(k,w) =  0.34229E-04 meV^-1
     ik =       6  w =    0.7368 eV   A(k,w) =  0.17802E-04 meV^-1
     ik =       6  w =    1.0000 eV   A(k,w) =  0.10241E-04 meV^-1
     -------------------------------------------------------------------

        6       -4.0000   0.37429E-04
        6       -3.7368   0.53568E-04
        6       -3.4737   0.84685E-04
        6       -3.2105   0.15901E-03
        6       -2.9474   0.41560E-03
        6       -2.6842   0.18475E-02
        6       -2.4211   0.83351E-03
        6       -2.1579   0.22070E-03
        6       -1.8947   0.11365E-03
        6       -1.6316   0.92133E-04
        6       -1.3684   0.10561E-03
        6       -1.1053   0.16507E-03
        6       -0.8421   0.38420E-03
        6       -0.5789   0.22926E-02
        6       -0.3158   0.20001E-02
        6       -0.0526   0.24752E-03
        6        0.2105   0.77799E-04
        6        0.4737   0.34229E-04
        6        0.7368   0.17802E-04
        6        1.0000   0.10241E-04
        6        1      -20.7958       -4.0000      -34.2004      134.0740
        6        1      -20.7958       -3.7368      -27.1881      131.3727
        6        1      -20.7958       -3.4737      -19.9347      127.9153
        6        1      -20.7958       -3.2105      -12.4001      123.5415
        6        1      -20.7958       -2.9474       -4.6369      117.8216
        6        1      -20.7958       -2.6842        2.7694      110.0657
        6        1      -20.7958       -2.4211        8.3936      100.3511
        6        1      -20.7958       -2.1579       11.4483       90.0329
        6        1      -20.7958       -1.8947       12.4086       80.3047
        6        1      -20.7958       -1.6316       12.0354       71.5393
        6        1      -20.7958       -1.3684       10.8159       63.7561
        6        1      -20.7958       -1.1053        9.1673       56.9220
        6        1      -20.7958       -0.8421        7.4575       50.7589
        6        1      -20.7958       -0.5789        5.7067       44.8248
        6        1      -20.7958       -0.3158        3.5413       38.9212
        6        1      -20.7958       -0.0526        0.6550       33.3603
        6        1      -20.7958        0.2105       -2.7769       28.5420
        6        1      -20.7958        0.4737       -6.3946       24.5220
        6        1      -20.7958        0.7368      -10.0104       21.1600
        6        1      -20.7958        1.0000      -13.5633       18.3596
  
        6        2       -2.5926       -4.0000      -81.0513      155.1426
        6        2       -2.5926       -3.7368      -72.0917      155.4788
        6        2       -2.5926       -3.4737      -62.6838      155.2565
        6        2       -2.5926       -3.2105      -52.2443      154.4403
        6        2       -2.5926       -2.9474      -40.1871      152.0216
        6        2       -2.5926       -2.6842      -27.3007      146.1527
        6        2       -2.5926       -2.4211      -16.2259      136.4613
        6        2       -2.5926       -2.1579       -8.6266      124.9874
        6        2       -2.5926       -1.8947       -4.0365      113.6697
        6        2       -2.5926       -1.6316       -1.4583      103.2317
        6        2       -2.5926       -1.3684       -0.1407       93.9139
        6        2       -2.5926       -1.1053        0.7526       85.6695
        6        2       -2.5926       -0.8421        1.8119       77.7939
        6        2       -2.5926       -0.5789        2.7557       69.3864
        6        2       -2.5926       -0.3158        2.5672       60.2621
        6        2       -2.5926       -0.0526        0.5861       51.3237
        6        2       -2.5926        0.2105       -2.7486       43.5176
        6        2       -2.5926        0.4737       -6.6613       36.9765
        6        2       -2.5926        0.7368      -10.8036       31.4282
        6        2       -2.5926        1.0000      -15.0985       26.7485
  
        6        3       -0.4527       -4.0000     -104.9978      178.9809
        6        3       -0.4527       -3.7368      -94.3713      180.6039
        6        3       -0.4527       -3.4737      -82.9419      181.5128
        6        3       -0.4527       -3.2105      -70.1089      181.5411
        6        3       -0.4527       -2.9474      -55.3132      179.5059
        6        3       -0.4527       -2.6842      -39.5248      173.3084
        6        3       -0.4527       -2.4211      -25.8197      162.5477
        6        3       -0.4527       -2.1579      -16.1266      149.5987
        6        3       -0.4527       -1.8947       -9.9149      136.6956
        6        3       -0.4527       -1.6316       -6.0725      124.6740
        6        3       -0.4527       -1.3684       -3.7655      113.8651
        6        3       -0.4527       -1.1053       -1.9798      104.2709
        6        3       -0.4527       -0.8421        0.0382       95.0348
        6        3       -0.4527       -0.5789        1.9397       85.0127
        6        3       -0.4527       -0.3158        2.4190       73.9555
        6        3       -0.4527       -0.0526        0.6072       63.0126
        6        3       -0.4527        0.2105       -2.9569       53.4013
        6        3       -0.4527        0.4737       -7.3045       45.3001
        6        3       -0.4527        0.7368      -12.0155       38.3849
        6        3       -0.4527        1.0000      -16.9968       32.5338
  
        6        4       -0.4527       -4.0000     -104.6851      178.8443
        6        4       -0.4527       -3.7368      -94.0729      180.4519
        6        4       -0.4527       -3.4737      -82.6578      181.3475
        6        4       -0.4527       -3.2105      -69.8402      181.3637
        6        4       -0.4527       -2.9474      -55.0613      179.3189
        6        4       -0.4527       -2.6842      -39.2895      173.1155
        6        4       -0.4527       -2.4211      -25.5976      162.3508
        6        4       -0.4527       -2.1579      -15.9146      149.3951
        6        4       -0.4527       -1.8947       -9.7145      136.4798
        6        4       -0.4527       -1.6316       -5.8906      124.4425
        6        4       -0.4527       -1.3684       -3.6118      113.6193
        6        4       -0.4527       -1.1053       -1.8641      104.0188
        6        4       -0.4527       -0.8421        0.1111       94.7910
        6        4       -0.4527       -0.5789        1.9753       84.7934
        6        4       -0.4527       -0.3158        2.4301       73.7704
        6        4       -0.4527       -0.0526        0.6078       62.8628
        6        4       -0.4527        0.2105       -2.9563       53.2823
        6        4       -0.4527        0.4737       -7.2983       45.2056
        6        4       -0.4527        0.7368      -12.0013       38.3094
        6        4       -0.4527        1.0000      -16.9739       32.4728
  
     Average over degenerate eigenstates is performed

     ik =       7 coord.:    0.0000000   0.1666667   0.0000000
     -------------------------------------------------------------------
     E(   1 )= -20.7958 eV   Re[Sigma]=     -65.485552 meV Im[Sigma]=      15.407584 meV     Z=       0.997690 lam=       0.002315
     E(   2 )=  -2.5926 eV   Re[Sigma]=      90.770794 meV Im[Sigma]=     187.316465 meV     Z=       1.047554 lam=      -0.045396
     E(   3 )=  -0.4527 eV   Re[Sigma]=     131.286719 meV Im[Sigma]=      74.633097 meV     Z=       1.001742 lam=      -0.001739
     E(   4 )=  -0.4527 eV   Re[Sigma]=     131.286719 meV Im[Sigma]=      74.633097 meV     Z=       1.001742 lam=      -0.001739
     -------------------------------------------------------------------

     WARNING: only the eigenstates within the Fermi window are meaningful

     ik =     7 coord.:    0.0000000   0.1666667   0.0000000
     -------------------------------------------------------------------
     ik =       7  w =   -4.0000 eV   A(k,w) =  0.37540E-04 meV^-1
     ik =       7  w =   -3.7368 eV   A(k,w) =  0.53840E-04 meV^-1
     ik =       7  w =   -3.4737 eV   A(k,w) =  0.85340E-04 meV^-1
     ik =       7  w =   -3.2105 eV   A(k,w) =  0.16072E-03 meV^-1
     ik =       7  w =   -2.9474 eV   A(k,w) =  0.42078E-03 meV^-1
     ik =       7  w =   -2.6842 eV   A(k,w) =  0.18388E-02 meV^-1
     ik =       7  w =   -2.4211 eV   A(k,w) =  0.83293E-03 meV^-1
     ik =       7  w =   -2.1579 eV   A(k,w) =  0.22210E-03 meV^-1
     ik =       7  w =   -1.8947 eV   A(k,w) =  0.11342E-03 meV^-1
     ik =       7  w =   -1.6316 eV   A(k,w) =  0.90835E-04 meV^-1
     ik =       7  w =   -1.3684 eV   A(k,w) =  0.10322E-03 meV^-1
     ik =       7  w =   -1.1053 eV   A(k,w) =  0.16077E-03 meV^-1
     ik =       7  w =   -0.8421 eV   A(k,w) =  0.37457E-03 meV^-1
     ik =       7  w =   -0.5789 eV   A(k,w) =  0.22681E-02 meV^-1
     ik =       7  w =   -0.3158 eV   A(k,w) =  0.19724E-02 meV^-1
     ik =       7  w =   -0.0526 eV   A(k,w) =  0.24276E-03 meV^-1
     ik =       7  w =    0.2105 eV   A(k,w) =  0.76602E-04 meV^-1
     ik =       7  w =    0.4737 eV   A(k,w) =  0.33819E-04 meV^-1
     ik =       7  w =    0.7368 eV   A(k,w) =  0.17623E-04 meV^-1
     ik =       7  w =    1.0000 eV   A(k,w) =  0.10145E-04 meV^-1
     -------------------------------------------------------------------

        7       -4.0000   0.37540E-04
        7       -3.7368   0.53840E-04
        7       -3.4737   0.85340E-04
        7       -3.2105   0.16072E-03
        7       -2.9474   0.42078E-03
        7       -2.6842   0.18388E-02
        7       -2.4211   0.83293E-03
        7       -2.1579   0.22210E-03
        7       -1.8947   0.11342E-03
        7       -1.6316   0.90835E-04
        7       -1.3684   0.10322E-03
        7       -1.1053   0.16077E-03
        7       -0.8421   0.37457E-03
        7       -0.5789   0.22681E-02
        7       -0.3158   0.19724E-02
        7       -0.0526   0.24276E-03
        7        0.2105   0.76602E-04
        7        0.4737   0.33819E-04
        7        0.7368   0.17623E-04
        7        1.0000   0.10145E-04
        7        1      -20.7958       -4.0000      -34.2747      134.2151
        7        1      -20.7958       -3.7368      -27.2515      131.4832
        7        1      -20.7958       -3.4737      -20.0239      128.0076
        7        1      -20.7958       -3.2105      -12.5286      123.6633
        7        1      -20.7958       -2.9474       -4.7652      118.0198
        7        1      -20.7958       -2.6842        2.7115      110.3351
        7        1      -20.7958       -2.4211        8.4498      100.6313
        7        1      -20.7958       -2.1579       11.6065       90.2495
        7        1      -20.7958       -1.8947       12.6094       80.4111
        7        1      -20.7958       -1.6316       12.2043       71.5430
        7        1      -20.7958       -1.3684       10.9118       63.7119
        7        1      -20.7958       -1.1053        9.2016       56.8836
        7        1      -20.7958       -0.8421        7.4622       50.7453
        7        1      -20.7958       -0.5789        5.7024       44.8320
        7        1      -20.7958       -0.3158        3.5361       38.9430
        7        1      -20.7958       -0.0526        0.6536       33.3932
        7        1      -20.7958        0.2105       -2.7699       28.5814
        7        1      -20.7958        0.4737       -6.3781       24.5614
        7        1      -20.7958        0.7368       -9.9871       21.1944
        7        1      -20.7958        1.0000      -13.5372       18.3874
  
        7        2       -2.5926       -4.0000      -82.9090      156.2824
        7        2       -2.5926       -3.7368      -73.8490      156.8187
        7        2       -2.5926       -3.4737      -64.3102      156.7875
        7        2       -2.5926       -3.2105      -53.7064      156.1507
        7        2       -2.5926       -2.9474      -41.4440      153.9002
        7        2       -2.5926       -2.6842      -28.2871      148.1724
        7        2       -2.5926       -2.4211      -16.8672      138.5414
        7        2       -2.5926       -2.1579       -8.8952      126.9755
        7        2       -2.5926       -1.8947       -4.0302      115.3937
        7        2       -2.5926       -1.6316       -1.3879      104.6354
        7        2       -2.5926       -1.3684       -0.1802       95.1057
        7        2       -2.5926       -1.1053        0.5630       86.8132
        7        2       -2.5926       -0.8421        1.5249       79.0076
        7        2       -2.5926       -0.5789        2.4544       70.7314
        7        2       -2.5926       -0.3158        2.3425       61.7590
        7        2       -2.5926       -0.0526        0.5380       52.9563
        7        2       -2.5926        0.2105       -2.5206       45.2062
        7        2       -2.5926        0.4737       -6.1259       38.5722
        7        2       -2.5926        0.7368      -10.0411       32.7991
        7        2       -2.5926        1.0000      -14.2347       27.8544
  
        7        3       -0.4527       -4.0000     -100.0814      176.3247
        7        3       -0.4527       -3.7368      -89.6766      177.5874
        7        3       -0.4527       -3.4737      -78.5857      178.1777
        7        3       -0.4527       -3.2105      -66.1547      177.9944
        7        3       -0.4527       -2.9474      -51.7443      175.8392
        7        3       -0.4527       -2.6842      -36.3096      169.5464
        7        3       -0.4527       -2.4211      -22.9750      158.6830
        7        3       -0.4527       -2.1579      -13.7181      145.6542
        7        3       -0.4527       -1.8947       -8.0109      132.7569
        7        3       -0.4527       -1.6316       -4.6937      120.8762
        7        3       -0.4527       -1.3684       -2.8560      110.3434
        7        3       -0.4527       -1.1053       -1.4414      101.1039
        7        3       -0.4527       -0.8421        0.2867       92.2611
        7        3       -0.4527       -0.5789        1.9726       82.6795
        7        3       -0.4527       -0.3158        2.3484       72.1085
        7        3       -0.4527       -0.0526        0.5811       61.6417
        7        3       -0.4527        0.2105       -2.8108       52.4190
        7        3       -0.4527        0.4737       -6.9309       44.5772
        7        3       -0.4527        0.7368      -11.4301       37.8131
        7        3       -0.4527        1.0000      -16.2419       32.0520
  
        7        4       -0.4527       -4.0000     -100.0814      176.3247
        7        4       -0.4527       -3.7368      -89.6767      177.5874
        7        4       -0.4527       -3.4737      -78.5857      178.1777
        7        4       -0.4527       -3.2105      -66.1547      177.9945
        7        4       -0.4527       -2.9474      -51.7443      175.8392
        7        4       -0.4527       -2.6842      -36.3096      169.5464
        7        4       -0.4527       -2.4211      -22.9750      158.6830
        7        4       -0.4527       -2.1579      -13.7181      145.6542
        7        4       -0.4527       -1.8947       -8.0109      132.7569
        7        4       -0.4527       -1.6316       -4.6937      120.8762
        7        4       -0.4527       -1.3684       -2.8559      110.3434
        7        4       -0.4527       -1.1053       -1.4414      101.1039
        7        4       -0.4527       -0.8421        0.2867       92.2611
        7        4       -0.4527       -0.5789        1.9726       82.6796
        7        4       -0.4527       -0.3158        2.3484       72.1085
        7        4       -0.4527       -0.0526        0.5811       61.6417
        7        4       -0.4527        0.2105       -2.8108       52.4190
        7        4       -0.4527        0.4737       -6.9309       44.5772
        7        4       -0.4527        0.7368      -11.4301       37.8131
        7        4       -0.4527        1.0000      -16.2419       32.0520
  
     Average over degenerate eigenstates is performed

     ik =       8 coord.:    0.0000000   0.1666667   0.1666667
     -------------------------------------------------------------------
     E(   1 )= -20.5714 eV   Re[Sigma]=     -65.354546 meV Im[Sigma]=      17.272573 meV     Z=       0.996894 lam=       0.003115
     E(   2 )=  -1.7294 eV   Re[Sigma]=     116.919411 meV Im[Sigma]=     132.882766 meV     Z=       1.010075 lam=      -0.009975
     E(   3 )=  -1.5590 eV   Re[Sigma]=     114.247005 meV Im[Sigma]=     113.310855 meV     Z=       1.005604 lam=      -0.005573
     E(   4 )=  -1.5590 eV   Re[Sigma]=     114.247005 meV Im[Sigma]=     113.310855 meV     Z=       1.005604 lam=      -0.005573
     -------------------------------------------------------------------

     WARNING: only the eigenstates within the Fermi window are meaningful

     ik =     8 coord.:    0.0000000   0.1666667   0.1666667
     -------------------------------------------------------------------
     ik =       8  w =   -4.0000 eV   A(k,w) =  0.29217E-04 meV^-1
     ik =       8  w =   -3.7368 eV   A(k,w) =  0.37100E-04 meV^-1
     ik =       8  w =   -3.4737 eV   A(k,w) =  0.48392E-04 meV^-1
     ik =       8  w =   -3.2105 eV   A(k,w) =  0.65348E-04 meV^-1
     ik =       8  w =   -2.9474 eV   A(k,w) =  0.91923E-04 meV^-1
     ik =       8  w =   -2.6842 eV   A(k,w) =  0.13622E-03 meV^-1
     ik =       8  w =   -2.4211 eV   A(k,w) =  0.22239E-03 meV^-1
     ik =       8  w =   -2.1579 eV   A(k,w) =  0.45128E-03 meV^-1
     ik =       8  w =   -1.8947 eV   A(k,w) =  0.15791E-02 meV^-1
     ik =       8  w =   -1.6316 eV   A(k,w) =  0.57302E-02 meV^-1
     ik =       8  w =   -1.3684 eV   A(k,w) =  0.15628E-02 meV^-1
     ik =       8  w =   -1.1053 eV   A(k,w) =  0.33736E-03 meV^-1
     ik =       8  w =   -0.8421 eV   A(k,w) =  0.13302E-03 meV^-1
     ik =       8  w =   -0.5789 eV   A(k,w) =  0.66165E-04 meV^-1
     ik =       8  w =   -0.3158 eV   A(k,w) =  0.36563E-04 meV^-1
     ik =       8  w =   -0.0526 eV   A(k,w) =  0.21477E-04 meV^-1
     ik =       8  w =    0.2105 eV   A(k,w) =  0.13279E-04 meV^-1
     ik =       8  w =    0.4737 eV   A(k,w) =  0.85780E-05 meV^-1
     ik =       8  w =    0.7368 eV   A(k,w) =  0.57242E-05 meV^-1
     ik =       8  w =    1.0000 eV   A(k,w) =  0.39238E-05 meV^-1
     -------------------------------------------------------------------

        8       -4.0000   0.29217E-04
        8       -3.7368   0.37100E-04
        8       -3.4737   0.48392E-04
        8       -3.2105   0.65348E-04
        8       -2.9474   0.91923E-04
        8       -2.6842   0.13622E-03
        8       -2.4211   0.22239E-03
        8       -2.1579   0.45128E-03
        8       -1.8947   0.15791E-02
        8       -1.6316   0.57302E-02
        8       -1.3684   0.15628E-02
        8       -1.1053   0.33736E-03
        8       -0.8421   0.13302E-03
        8       -0.5789   0.66165E-04
        8       -0.3158   0.36563E-04
        8       -0.0526   0.21477E-04
        8        0.2105   0.13279E-04
        8        0.4737   0.85780E-05
        8        0.7368   0.57242E-05
        8        1.0000   0.39238E-05
        8        1      -20.5714       -4.0000      -33.2033      131.8768
        8        1      -20.5714       -3.7368      -26.2170      129.3394
        8        1      -20.5714       -3.4737      -18.9203      126.0278
        8        1      -20.5714       -3.2105      -11.2953      121.7394
        8        1      -20.5714       -2.9474       -3.4326      116.0326
        8        1      -20.5714       -2.6842        4.0581      108.2188
        8        1      -20.5714       -2.4211        9.7176       98.3666
        8        1      -20.5714       -2.1579       12.6949       87.8557
        8        1      -20.5714       -1.8947       13.4308       77.9639
        8        1      -20.5714       -1.6316       12.7229       69.1600
        8        1      -20.5714       -1.3684       11.1636       61.5130
        8        1      -20.5714       -1.1053        9.2780       54.9386
        8        1      -20.5714       -0.8421        7.4519       49.0587
        8        1      -20.5714       -0.5789        5.6574       43.3826
        8        1      -20.5714       -0.3158        3.4883       37.7188
        8        1      -20.5714       -0.0526        0.6414       32.3854
        8        1      -20.5714        0.2105       -2.7067       27.7651
        8        1      -20.5714        0.4737       -6.2144       23.8984
        8        1      -20.5714        0.7368       -9.7159       20.6466
        8        1      -20.5714        1.0000      -13.1634       17.9246
  
        8        2       -1.7294       -4.0000      -93.6557      166.9018
        8        2       -1.7294       -3.7368      -83.7458      168.0433
        8        2       -1.7294       -3.4737      -73.1338      168.5087
        8        2       -1.7294       -3.2105      -61.2485      168.1440
        8        2       -1.7294       -2.9474      -47.5777      165.8280
        8        2       -1.7294       -2.6842      -33.0569      159.5998
        8        2       -1.7294       -2.4211      -20.5959      149.1015
        8        2       -1.7294       -2.1579      -12.0356      136.6039
        8        2       -1.7294       -1.8947       -6.8781      124.2913
        8        2       -1.7294       -1.6316       -3.9948      113.0334
        8        2       -1.7294       -1.3684       -2.4692      103.1299
        8        2       -1.7294       -1.1053       -1.2859       94.4907
        8        2       -1.7294       -0.8421        0.2576       86.2483
        8        2       -1.7294       -0.5789        1.8413       77.2916
        8        2       -1.7294       -0.3158        2.2386       67.3162
        8        2       -1.7294       -0.0526        0.5641       57.3373
        8        2       -1.7294        0.2105       -2.7681       48.5183
        8        2       -1.7294        0.4737       -6.8731       41.1015
        8        2       -1.7294        0.7368      -11.3131       34.8221
        8        2       -1.7294        1.0000      -15.9637       29.5454
  
        8        3       -1.5590       -4.0000      -87.5504      158.0151
        8        3       -1.5590       -3.7368      -78.3706      159.0531
        8        3       -1.5590       -3.4737      -68.5643      159.5316
        8        3       -1.5590       -3.2105      -57.5295      159.3604
        8        3       -1.5590       -2.9474      -44.6608      157.4574
        8        3       -1.5590       -2.6842      -30.7719      151.8362
        8        3       -1.5590       -2.4211      -18.6745      142.0052
        8        3       -1.5590       -2.1579      -10.2617      130.0591
        8        3       -1.5590       -1.8947       -5.1850      118.1212
        8        3       -1.5590       -1.6316       -2.4366      107.1116
        8        3       -1.5590       -1.3684       -1.1430       97.4247
        8        3       -1.5590       -1.1053       -0.2727       89.0431
        8        3       -1.5590       -0.8421        0.9093       81.1510
        8        3       -1.5590       -0.5789        2.1396       72.6799
        8        3       -1.5590       -0.3158        2.2864       63.3317
        8        3       -1.5590       -0.0526        0.5519       54.0426
        8        3       -1.5590        0.2105       -2.6541       45.8575
        8        3       -1.5590        0.4737       -6.5208       38.9534
        8        3       -1.5590        0.7368      -10.6830       33.0647
        8        3       -1.5590        1.0000      -15.0571       28.0829
  
        8        4       -1.5590       -4.0000      -83.6664      155.6944
[...]
     -------------------------------------------------------------------
     Nesting function (q)=   0.453799E+01 [Adimensional]
     -------------------------------------------------------------------


     Number of (k,k+q) pairs on the Fermi surface:      216 out of      216


     iq =   188 coord.:   0.83333  0.16667  0.16667 wt:   0.00463
     -------------------------------------------------------------------
     Nesting function (q)=   0.189444E+01 [Adimensional]
     -------------------------------------------------------------------


     Number of (k,k+q) pairs on the Fermi surface:      216 out of      216


     iq =   189 coord.:   0.83333  0.16667  0.33333 wt:   0.00463
     -------------------------------------------------------------------
     Nesting function (q)=   0.129393E+00 [Adimensional]
     -------------------------------------------------------------------


     Number of (k,k+q) pairs on the Fermi surface:      216 out of      216


     iq =   190 coord.:   0.83333  0.16667  0.50000 wt:   0.00463
     -------------------------------------------------------------------
     Nesting function (q)=   0.244504E-02 [Adimensional]
     -------------------------------------------------------------------


     Number of (k,k+q) pairs on the Fermi surface:      216 out of      216


     iq =   191 coord.:   0.83333  0.16667  0.66667 wt:   0.00463
     -------------------------------------------------------------------
     Nesting function (q)=   0.129393E+00 [Adimensional]
     -------------------------------------------------------------------


     Number of (k,k+q) pairs on the Fermi surface:      216 out of      216


     iq =   192 coord.:   0.83333  0.16667  0.83333 wt:   0.00463
     -------------------------------------------------------------------
     Nesting function (q)=   0.189444E+01 [Adimensional]
     -------------------------------------------------------------------


     Number of (k,k+q) pairs on the Fermi surface:      216 out of      216


     iq =   193 coord.:   0.83333  0.33333  0.00000 wt:   0.00463
     -------------------------------------------------------------------
     Nesting function (q)=   0.770917E+00 [Adimensional]
     -------------------------------------------------------------------


     Number of (k,k+q) pairs on the Fermi surface:      216 out of      216


     iq =   194 coord.:   0.83333  0.33333  0.16667 wt:   0.00463
     -------------------------------------------------------------------
     Nesting function (q)=   0.129393E+00 [Adimensional]
     -------------------------------------------------------------------


     Number of (k,k+q) pairs on the Fermi surface:      216 out of      216


     iq =   195 coord.:   0.83333  0.33333  0.33333 wt:   0.00463
     -------------------------------------------------------------------
     Nesting function (q)=   0.255005E-02 [Adimensional]
     -------------------------------------------------------------------


     Number of (k,k+q) pairs on the Fermi surface:      216 out of      216


     iq =   196 coord.:   0.83333  0.33333  0.50000 wt:   0.00463
     -------------------------------------------------------------------
     Nesting function (q)=   0.150201E-04 [Adimensional]
     -------------------------------------------------------------------


     Number of (k,k+q) pairs on the Fermi surface:      216 out of      216


     iq =   197 coord.:   0.83333  0.33333  0.66667 wt:   0.00463
     -------------------------------------------------------------------
     Nesting function (q)=   0.244504E-02 [Adimensional]
     -------------------------------------------------------------------


     Number of (k,k+q) pairs on the Fermi surface:      216 out of      216


     iq =   198 coord.:   0.83333  0.33333  0.83333 wt:   0.00463
     -------------------------------------------------------------------
     Nesting function (q)=   0.203246E+00 [Adimensional]
     -------------------------------------------------------------------


     Number of (k,k+q) pairs on the Fermi surface:      216 out of      216


     iq =   199 coord.:   0.83333  0.50000  0.00000 wt:   0.00463
     -------------------------------------------------------------------
     Nesting function (q)=   0.203246E+00 [Adimensional]
     -------------------------------------------------------------------


     Number of (k,k+q) pairs on the Fermi surface:      216 out of      216


     iq =   200 coord.:   0.83333  0.50000  0.16667 wt:   0.00463
     -------------------------------------------------------------------
     Nesting function (q)=   0.244504E-02 [Adimensional]
     -------------------------------------------------------------------


     Number of (k,k+q) pairs on the Fermi surface:      216 out of      216


     iq =   201 coord.:   0.83333  0.50000  0.33333 wt:   0.00463
     -------------------------------------------------------------------
     Nesting function (q)=   0.150201E-04 [Adimensional]
     -------------------------------------------------------------------


     Number of (k,k+q) pairs on the Fermi surface:      216 out of      216


     iq =   202 coord.:   0.83333  0.50000  0.50000 wt:   0.00463
     -------------------------------------------------------------------
     Nesting function (q)=   0.255005E-02 [Adimensional]
     -------------------------------------------------------------------


     Number of (k,k+q) pairs on the Fermi surface:      216 out of      216


     iq =   203 coord.:   0.83333  0.50000  0.66667 wt:   0.00463
     -------------------------------------------------------------------
     Nesting function (q)=   0.129393E+00 [Adimensional]
     -------------------------------------------------------------------


     Number of (k,k+q) pairs on the Fermi surface:      216 out of      216


     iq =   204 coord.:   0.83333  0.50000  0.83333 wt:   0.00463
     -------------------------------------------------------------------
     Nesting function (q)=   0.770917E+00 [Adimensional]
     -------------------------------------------------------------------


     Number of (k,k+q) pairs on the Fermi surface:      216 out of      216


     iq =   205 coord.:   0.83333  0.66667  0.00000 wt:   0.00463
     -------------------------------------------------------------------
     Nesting function (q)=   0.189444E+01 [Adimensional]
     -------------------------------------------------------------------


     Number of (k,k+q) pairs on the Fermi surface:      216 out of      216


     iq =   206 coord.:   0.83333  0.66667  0.16667 wt:   0.00463
     -------------------------------------------------------------------
     Nesting function (q)=   0.129393E+00 [Adimensional]
     -------------------------------------------------------------------


     Number of (k,k+q) pairs on the Fermi surface:      216 out of      216


     iq =   207 coord.:   0.83333  0.66667  0.33333 wt:   0.00463
     -------------------------------------------------------------------
     Nesting function (q)=   0.244504E-02 [Adimensional]
     -------------------------------------------------------------------


     Number of (k,k+q) pairs on the Fermi surface:      216 out of      216


     iq =   208 coord.:   0.83333  0.66667  0.50000 wt:   0.00463
     -------------------------------------------------------------------
     Nesting function (q)=   0.129393E+00 [Adimensional]
     -------------------------------------------------------------------


     Number of (k,k+q) pairs on the Fermi surface:      216 out of      216


     iq =   209 coord.:   0.83333  0.66667  0.66667 wt:   0.00463
     -------------------------------------------------------------------
     Nesting function (q)=   0.189444E+01 [Adimensional]
     -------------------------------------------------------------------


     Number of (k,k+q) pairs on the Fermi surface:      216 out of      216


     iq =   210 coord.:   0.83333  0.66667  0.83333 wt:   0.00463
     -------------------------------------------------------------------
     Nesting function (q)=   0.453799E+01 [Adimensional]
     -------------------------------------------------------------------


     Number of (k,k+q) pairs on the Fermi surface:      216 out of      216


     iq =   211 coord.:   0.83333  0.83333  0.00000 wt:   0.00463
     -------------------------------------------------------------------
     Nesting function (q)=   0.692556E+01 [Adimensional]
     -------------------------------------------------------------------


     Number of (k,k+q) pairs on the Fermi surface:      216 out of      216


     iq =   212 coord.:   0.83333  0.83333  0.16667 wt:   0.00463
     -------------------------------------------------------------------
     Nesting function (q)=   0.189444E+01 [Adimensional]
     -------------------------------------------------------------------


     Number of (k,k+q) pairs on the Fermi surface:      216 out of      216


     iq =   213 coord.:   0.83333  0.83333  0.33333 wt:   0.00463
     -------------------------------------------------------------------
     Nesting function (q)=   0.203246E+00 [Adimensional]
     -------------------------------------------------------------------


     Number of (k,k+q) pairs on the Fermi surface:      216 out of      216


     iq =   214 coord.:   0.83333  0.83333  0.50000 wt:   0.00463
     -------------------------------------------------------------------
     Nesting function (q)=   0.770916E+00 [Adimensional]
     -------------------------------------------------------------------


     Number of (k,k+q) pairs on the Fermi surface:      216 out of      216


     iq =   215 coord.:   0.83333  0.83333  0.66667 wt:   0.00463
     -------------------------------------------------------------------
     Nesting function (q)=   0.453799E+01 [Adimensional]
     -------------------------------------------------------------------


     Number of (k,k+q) pairs on the Fermi surface:      216 out of      216


     iq =   216 coord.:   0.83333  0.83333  0.83333 wt:   0.00463
     -------------------------------------------------------------------
     Nesting function (q)=   0.825271E+01 [Adimensional]
     -------------------------------------------------------------------


     Number of (k,k+q) pairs on the Fermi surface:      216 out of      216

     WARNING: only the eigenstates within the Fermi window are meaningful

     ik =   216 coord.:    0.8333333   0.8333333   0.8333333
     -------------------------------------------------------------------
     ik =     216  w =   -4.0000 eV   A(k,w) =  0.37429E-04 meV^-1
     ik =     216  w =   -3.7368 eV   A(k,w) =  0.53568E-04 meV^-1
     ik =     216  w =   -3.4737 eV   A(k,w) =  0.84685E-04 meV^-1
     ik =     216  w =   -3.2105 eV   A(k,w) =  0.15901E-03 meV^-1
     ik =     216  w =   -2.9474 eV   A(k,w) =  0.41560E-03 meV^-1
     ik =     216  w =   -2.6842 eV   A(k,w) =  0.18475E-02 meV^-1
     ik =     216  w =   -2.4211 eV   A(k,w) =  0.83351E-03 meV^-1
     ik =     216  w =   -2.1579 eV   A(k,w) =  0.22070E-03 meV^-1
     ik =     216  w =   -1.8947 eV   A(k,w) =  0.11365E-03 meV^-1
     ik =     216  w =   -1.6316 eV   A(k,w) =  0.92133E-04 meV^-1
     ik =     216  w =   -1.3684 eV   A(k,w) =  0.10561E-03 meV^-1
     ik =     216  w =   -1.1053 eV   A(k,w) =  0.16507E-03 meV^-1
     ik =     216  w =   -0.8421 eV   A(k,w) =  0.38420E-03 meV^-1
     ik =     216  w =   -0.5789 eV   A(k,w) =  0.22926E-02 meV^-1
     ik =     216  w =   -0.3158 eV   A(k,w) =  0.20001E-02 meV^-1
     ik =     216  w =   -0.0526 eV   A(k,w) =  0.24752E-03 meV^-1
     ik =     216  w =    0.2105 eV   A(k,w) =  0.77799E-04 meV^-1
     ik =     216  w =    0.4737 eV   A(k,w) =  0.34229E-04 meV^-1
     ik =     216  w =    0.7368 eV   A(k,w) =  0.17802E-04 meV^-1
     ik =     216  w =    1.0000 eV   A(k,w) =  0.10241E-04 meV^-1
     -------------------------------------------------------------------

      216       -4.0000   0.37429E-04
      216       -3.7368   0.53568E-04
      216       -3.4737   0.84685E-04
      216       -3.2105   0.15901E-03
      216       -2.9474   0.41560E-03
      216       -2.6842   0.18475E-02
      216       -2.4211   0.83351E-03
      216       -2.1579   0.22070E-03
      216       -1.8947   0.11365E-03
      216       -1.6316   0.92133E-04
      216       -1.3684   0.10561E-03
      216       -1.1053   0.16507E-03
      216       -0.8421   0.38420E-03
      216       -0.5789   0.22926E-02
      216       -0.3158   0.20001E-02
      216       -0.0526   0.24752E-03
      216        0.2105   0.77799E-04
      216        0.4737   0.34229E-04
      216        0.7368   0.17802E-04
      216        1.0000   0.10241E-04
      216        1      -20.7958       -4.0000      -34.2004      134.0740
      216        1      -20.7958       -3.7368      -27.1881      131.3727
      216        1      -20.7958       -3.4737      -19.9347      127.9153
      216        1      -20.7958       -3.2105      -12.4001      123.5415
      216        1      -20.7958       -2.9474       -4.6369      117.8216
      216        1      -20.7958       -2.6842        2.7695      110.0657
      216        1      -20.7958       -2.4211        8.3936      100.3511
      216        1      -20.7958       -2.1579       11.4484       90.0329
      216        1      -20.7958       -1.8947       12.4087       80.3047
      216        1      -20.7958       -1.6316       12.0354       71.5393
      216        1      -20.7958       -1.3684       10.8159       63.7561
      216        1      -20.7958       -1.1053        9.1673       56.9220
      216        1      -20.7958       -0.8421        7.4575       50.7588
      216        1      -20.7958       -0.5789        5.7067       44.8248
      216        1      -20.7958       -0.3158        3.5413       38.9212
      216        1      -20.7958       -0.0526        0.6550       33.3603
      216        1      -20.7958        0.2105       -2.7769       28.5420
      216        1      -20.7958        0.4737       -6.3946       24.5220
      216        1      -20.7958        0.7368      -10.0104       21.1600
      216        1      -20.7958        1.0000      -13.5633       18.3596
  
      216        2       -2.5926       -4.0000      -81.0512      155.1423
      216        2       -2.5926       -3.7368      -72.0915      155.4786
      216        2       -2.5926       -3.4737      -62.6837      155.2563
      216        2       -2.5926       -3.2105      -52.2441      154.4401
      216        2       -2.5926       -2.9474      -40.1870      152.0214
      216        2       -2.5926       -2.6842      -27.3006      146.1524
      216        2       -2.5926       -2.4211      -16.2258      136.4611
      216        2       -2.5926       -2.1579       -8.6266      124.9872
      216        2       -2.5926       -1.8947       -4.0365      113.6695
      216        2       -2.5926       -1.6316       -1.4583      103.2316
      216        2       -2.5926       -1.3684       -0.1407       93.9138
      216        2       -2.5926       -1.1053        0.7526       85.6694
      216        2       -2.5926       -0.8421        1.8119       77.7938
      216        2       -2.5926       -0.5789        2.7557       69.3863
      216        2       -2.5926       -0.3158        2.5672       60.2620
      216        2       -2.5926       -0.0526        0.5861       51.3237
      216        2       -2.5926        0.2105       -2.7486       43.5176
      216        2       -2.5926        0.4737       -6.6613       36.9765
      216        2       -2.5926        0.7368      -10.8036       31.4281
      216        2       -2.5926        1.0000      -15.0985       26.7485
  
      216        3       -0.4527       -4.0000     -104.8915      178.9345
      216        3       -0.4527       -3.7368      -94.2699      180.5523
      216        3       -0.4527       -3.4737      -82.8454      181.4567
      216        3       -0.4527       -3.2105      -70.0176      181.4809
      216        3       -0.4527       -2.9474      -55.2276      179.4424
      216        3       -0.4527       -2.6842      -39.4448      173.2429
      216        3       -0.4527       -2.4211      -25.7442      162.4808
      216        3       -0.4527       -2.1579      -16.0545      149.5295
      216        3       -0.4527       -1.8947       -9.8468      136.6223
      216        3       -0.4527       -1.6316       -6.0107      124.5953
      216        3       -0.4527       -1.3684       -3.7132      113.7816
      216        3       -0.4527       -1.1053       -1.9405      104.1853
      216        3       -0.4527       -0.8421        0.0630       94.9519
      216        3       -0.4527       -0.5789        1.9518       84.9381
      216        3       -0.4527       -0.3158        2.4228       73.8926
      216        3       -0.4527       -0.0526        0.6074       62.9617
      216        3       -0.4527        0.2105       -2.9567       53.3608
      216        3       -0.4527        0.4737       -7.3024       45.2680
      216        3       -0.4527        0.7368      -12.0107       38.3592
      216        3       -0.4527        1.0000      -16.9891       32.5130
  
      216        4       -0.4527       -4.0000     -104.7915      178.8908
      216        4       -0.4527       -3.7368      -94.1744      180.5037
      216        4       -0.4527       -3.4737      -82.7545      181.4038
      216        4       -0.4527       -3.2105      -69.9316      181.4241
      216        4       -0.4527       -2.9474      -55.1470      179.3826
      216        4       -0.4527       -2.6842      -39.3695      173.1812
      216        4       -0.4527       -2.4211      -25.6732      162.4178
      216        4       -0.4527       -2.1579      -15.9867      149.4644
      216        4       -0.4527       -1.8947       -9.7827      136.5532
      216        4       -0.4527       -1.6316       -5.9525      124.5213
      216        4       -0.4527       -1.3684       -3.6641      113.7029
      216        4       -0.4527       -1.1053       -1.9035      104.1046
      216        4       -0.4527       -0.8421        0.0863       94.8739
      216        4       -0.4527       -0.5789        1.9632       84.8680
      216        4       -0.4527       -0.3158        2.4263       73.8334
      216        4       -0.4527       -0.0526        0.6076       62.9137
      216        4       -0.4527        0.2105       -2.9565       53.3228
      216        4       -0.4527        0.4737       -7.3004       45.2378
      216        4       -0.4527        0.7368      -12.0061       38.3351
      216        4       -0.4527        1.0000      -16.9817       32.4935
  
     ===================================================================
     Memory usage:  VmHWM =        20Mb
                   VmPeak =       230Mb
     ===================================================================


     Unfolding on the coarse grid
     elphon_wrap  :      0.00s CPU      0.00s WALL (       1 calls)

     INITIALIZATION: 



     Electron-Phonon interpolation
     ephwann      :     17.82s CPU     17.92s WALL (       1 calls)
     ep-interp    :     17.77s CPU     17.86s WALL (     216 calls)

     DynW2B       :      1.15s CPU      1.18s WALL (   46656 calls)
     HamW2B       :      0.86s CPU      0.85s WALL (   93744 calls)
     ephW2Bp      :     11.04s CPU     11.20s WALL (   46656 calls)


     Total program execution
     EPW          :    17.82s CPU        17.92s WALL

                                                                                          
 Please consider citing:                                                                  
 S. Ponce, E. R. Margine, C. Verdi and F. Giustino, Comput. Phys. Commun. 209, 116 (2016) 
                                                                                          
