                                                                                      
                                       ``:oss/                                        
                           `.+s+.     .+ys--yh+     `./ss+.                           
                          -sh//yy+`   +yy   +yy    -+h+-oyy                           
                          -yh- .oyy/.-sh.   .syo-.:sy-  /yh                           
                 `.-.`    `yh+   -oyyyo.     `/syys:    oys      `.`                  
               `/+ssys+-` `sh+      `                   oys`   .:osyo`                
               -yh- ./syyooyo`                          .sys+/oyo--yh/                
               `yy+    .-:-.                             `-/+/:`  -sh-                
                /yh.                                              oys                 
          ``..---hho---------`   .---------..`      `.-----.`    -hd+---.             
       `./osmNMMMMMMMMMMMMMMMs. +NNMMMMMMMMNNmh+.   yNMMMMMNm-  oNMMMMMNmo++:`        
       +sy--/sdMMMhyyyyyyyNMMh- .oyNMMmyyyyyhNMMm+` -yMMMdyyo:` .oyyNMMNhs+syy`       
       -yy/   /MMM+.`-+/``mMMy-   `mMMh:`````.dMMN:` `MMMy-`-dhhy```mMMy:``+hs        
        -yy+` /MMMo:-mMM+`-oo/.    mMMh:     `dMMN/`  dMMm:`dMMMMy..MMMo-.+yo`        
         .sys`/MMMMNNMMMs-         mMMmyooooymMMNo:   oMMM/sMMMMMM++MMN//oh:          
          `sh+/MMMhyyMMMs- `-`     mMMMMMMMMMNmy+-`   -MMMhMMMsmMMmdMMd/yy+           
    `-/+++oyy-/MMM+.`/hh/.`mNm:`   mMMd+/////:-.`      NMMMMMd/:NMMMMMy:/yyo/:.`      
   +os+//:-..-oMMMo:--:::-/MMMo. .-mMMd+---`           hMMMMN+. oMMMMMo. `-+osyso:`   
   syo     `mNMMMMMNNNNNNNNMMMo.oNNMMMMMNNNN:`         +MMMMs:`  dMMMN/`     ``:syo   
   /yh`     :syyyyyyyyyyyyyyyy+.`+syyyyyyyyo:`         .oyys:`   .oyys:`        +yh   
   -yh-        ````````````````    `````````              ``        ``          oys   
   -+h/------------------------::::::::://////++++++++++++++++++++++///////::::/yd:   
   shdddddddddddddddddddddddddddddhhhhhhhhyyyyyssssssssssssssssyyyyyyyhhhhhhhddddh`   
                                                                                      
  S. Ponce, E. R. Margine, C. Verdi, and F. Giustino,                                 
                                                Comput. Phys. Commun. 209, 116 (2016) 
                                                                                      

     Program EPW v.5.0.0 starts on  9Jan2019 at 12:22:21 

     This program is part of the open-source Quantum ESPRESSO suite
     for quantum simulation of materials; please cite
         "P. Giannozzi et al., J. Phys.:Condens. Matter 21 395502 (2009);
         "P. Giannozzi et al., J. Phys.:Condens. Matter 29 465901 (2017);
          URL http://www.quantum-espresso.org", 
     in publications or presentations arising from this work. More details at
     http://www.quantum-espresso.org/quote

     Parallel version (MPI), running on     1 processors

     MPI processes distributed on     1 nodes
                      
     ------------------------------------------------------------------------ 
                   RESTART - RESTART - RESTART - RESTART                         
     Restart is done without reading PWSCF save file.                  
     Be aware that some consistency checks are therefore not done.                  
     ------------------------------------------------------------------------ 
                      

     --                                                                         

     bravais-lattice index     =            0
     lattice parameter (a_0)   =       0.0000  a.u.
     unit-cell volume          =       0.0000 (a.u.)^3
     number of atoms/cell      =            0
     number of atomic types    =            0
     kinetic-energy cut-off    =       0.0000  Ry
     charge density cut-off    =       0.0000  Ry
     convergence threshold     =      0.0E+00
     beta                      =       0.0000
     number of iterations used =            0
     Exchange-correlation      = not set (-1 -1 -1 -1-1-1)


     celldm(1)=    0.00000  celldm(2)=    0.00000  celldm(3)=    0.00000
     celldm(4)=    0.00000  celldm(5)=    0.00000  celldm(6)=    0.00000

     crystal axes: (cart. coord. in units of a_0)
               a(1) = (  0.0000  0.0000  0.0000 )  
               a(2) = (  0.0000  0.0000  0.0000 )  
               a(3) = (  0.0000  0.0000  0.0000 )  

     reciprocal axes: (cart. coord. in units 2 pi/a_0)
               b(1) = (  0.0000  0.0000  0.0000 )  
               b(2) = (  0.0000  0.0000  0.0000 )  
               b(3) = (  0.0000  0.0000  0.0000 )  


     Atoms inside the unit cell: 

   Cartesian axes

     site n.  atom      mass           positions (a_0 units)


     No symmetry!

     G cutoff =    0.0000  (      0 G-vectors)     FFT grid: (  0,  0,  0)
     number of k points=    0
                       cart. coord. in units 2pi/a_0

     ==========================================================================================================
     Performing the CUMULANT EXPANSION for the retarded Greens function
     to obtain the electron spectral function
     There is no spin degeneracy factor, as in spectral_func.f90
     Warning: the routine is sequential but very fast.
     ==========================================================================================================

     Check: nk =  216, ibndmin =    1, ibndmax =    4 kbT (eV) =     0.025852

        k  Energy [eV]  A(k,w)[meV^-1]
      Z-factor =       0.9847
        1    -4.00000   0.11704E-05
        1    -3.73680   0.17630E-05
        1    -3.47370   0.17423E-05
        1    -3.21050   0.18265E-05
        1    -2.94740   0.23946E-05
        1    -2.68420   0.29618E-05
        1    -2.42110   0.34788E-05
        1    -2.15790   0.40459E-05
        1    -1.89470   0.48456E-05
        1    -1.63160   0.61043E-05
        1    -1.36840   0.81792E-05
        1    -1.10530   0.11724E-04
        1    -0.84210   0.18207E-04
        1    -0.57890   0.32279E-04
        1    -0.31580   0.71897E-04
        1    -0.05260   0.27527E-03
        1     0.21050   0.48742E-02
        1     0.47370   0.27518E-03
        1     0.73680   0.72110E-04
        1     1.00000   0.34835E-04
 
      Z-factor =       1.0046
        2    -4.00000   0.38463E-05
        2    -3.73680   0.37917E-05
        2    -3.47370   0.40083E-05
        2    -3.21050   0.43855E-05
        2    -2.94740   0.50264E-05
        2    -2.68420   0.62494E-05
        2    -2.42110   0.80949E-05
        2    -2.15790   0.10946E-04
        2    -1.89470   0.15782E-04
        2    -1.63160   0.24503E-04
        2    -1.36840   0.43369E-04
        2    -1.10530   0.96217E-04
        2    -0.84210   0.35622E-03
        2    -0.57890   0.37604E-02
        2    -0.31580   0.35657E-03
        2    -0.05260   0.96287E-04
        2     0.21050   0.43349E-04
        2     0.47370   0.24428E-04
        2     0.73680   0.15663E-04
        2     1.00000   0.10887E-04
 
      Z-factor =       1.0253
        3    -4.00000   0.14923E-04
        3    -3.73680   0.18019E-04
        3    -3.47370   0.24146E-04
        3    -3.21050   0.36081E-04
        3    -2.94740   0.62838E-04
        3    -2.68420   0.13678E-03
        3    -2.42110   0.47306E-03
        3    -2.15790   0.26819E-02
        3    -1.89470   0.47303E-03
        3    -1.63160   0.13645E-03
        3    -1.36840   0.62377E-04
        3    -1.10530   0.35432E-04
        3    -0.84210   0.22775E-04
        3    -0.57890   0.15855E-04
        3    -0.31580   0.11666E-04
        3    -0.05260   0.89396E-05
        3     0.21050   0.70684E-05
        3     0.47370   0.57278E-05
        3     0.73680   0.47352E-05
        3     1.00000   0.39794E-05
 
      Z-factor =       1.0439
        4    -4.00000   0.39779E-04
        4    -3.73680   0.68371E-04
        4    -3.47370   0.14800E-03
        4    -3.21050   0.50275E-03
        4    -2.94740   0.25520E-02
        4    -2.68420   0.50250E-03
        4    -2.42110   0.14826E-03
        4    -2.15790   0.68392E-04
        4    -1.89470   0.38678E-04
        4    -1.63160   0.24851E-04
        4    -1.36840   0.17300E-04
        4    -1.10530   0.12730E-04
        4    -0.84210   0.97545E-05
        4    -0.57890   0.77098E-05
        4    -0.31580   0.62452E-05
        4    -0.05260   0.51602E-05
        4     0.21050   0.43373E-05
        4     0.47370   0.36962E-05
        4     0.73680   0.31873E-05
        4     1.00000   0.27765E-05
 
      Z-factor =       1.0252
        5    -4.00000   0.14849E-04
        5    -3.73680   0.17937E-04
        5    -3.47370   0.24039E-04
        5    -3.21050   0.35923E-04
        5    -2.94740   0.62570E-04
        5    -2.68420   0.13623E-03
        5    -2.42110   0.47168E-03
        5    -2.15790   0.26939E-02
        5    -1.89470   0.47165E-03
        5    -1.63160   0.13590E-03
        5    -1.36840   0.62106E-04
        5    -1.10530   0.35276E-04
        5    -0.84210   0.22675E-04
        5    -0.57890   0.15784E-04
        5    -0.31580   0.11614E-04
        5    -0.05260   0.88998E-05
        5     0.21050   0.70369E-05
        5     0.47370   0.57022E-05
        5     0.73680   0.47141E-05
        5     1.00000   0.39616E-05
 
      Z-factor =       1.0044
        6    -4.00000   0.38257E-05
        6    -3.73680   0.37700E-05
        6    -3.47370   0.39847E-05
        6    -3.21050   0.43596E-05
        6    -2.94740   0.49991E-05
        6    -2.68420   0.62404E-05
        6    -2.42110   0.80799E-05
        6    -2.15790   0.10903E-04
        6    -1.89470   0.15726E-04
        6    -1.63160   0.24424E-04
        6    -1.36840   0.43233E-04
        6    -1.10530   0.95926E-04
        6    -0.84210   0.35530E-03
        6    -0.57890   0.37713E-02
        6    -0.31580   0.35565E-03
        6    -0.05260   0.95998E-04
        6     0.21050   0.43214E-04
        6     0.47370   0.24352E-04
        6     0.73680   0.15614E-04
        6     1.00000   0.10853E-04
 
      Z-factor =       1.0039
        7    -4.00000   0.36346E-05
        7    -3.73680   0.35788E-05
        7    -3.47370   0.37868E-05
        7    -3.21050   0.41528E-05
        7    -2.94740   0.48129E-05
        7    -2.68420   0.61590E-05
        7    -2.42110   0.79436E-05
        7    -2.15790   0.10629E-04
        7    -1.89470   0.15312E-04
        7    -1.63160   0.23805E-04
        7    -1.36840   0.42154E-04
        7    -1.10530   0.93603E-04
        7    -0.84210   0.34787E-03
        7    -0.57890   0.38659E-02
        7    -0.31580   0.34822E-03
        7    -0.05260   0.93675E-04
        7     0.21050   0.42140E-04
        7     0.47370   0.23739E-04
        7     0.73680   0.15220E-04
        7     1.00000   0.10578E-04
 
      Z-factor =       1.0073
        8    -4.00000   0.81875E-05
        8    -3.73680   0.90370E-05
        8    -3.47370   0.10887E-04
        8    -3.21050   0.14003E-04
        8    -2.94740   0.19510E-04
        8    -2.68420   0.30106E-04
        8    -2.42110   0.52994E-04
        8    -2.15790   0.11656E-03
        8    -1.89470   0.41863E-03
        8    -1.63160   0.30676E-02
        8    -1.36840   0.41838E-03
        8    -1.10530   0.11658E-03
        8    -0.84210   0.53023E-04
        8    -0.57890   0.29989E-04
        8    -0.31580   0.19255E-04
        8    -0.05260   0.13395E-04
        8     0.21050   0.98529E-05
        8     0.47370   0.75487E-05
        8     0.73680   0.59677E-05
        8     1.00000   0.48350E-05
 
      Z-factor =       1.0438
        9    -4.00000   0.27695E-04
        9    -3.73680   0.40582E-04
        9    -3.47370   0.70289E-04
        9    -3.21050   0.15195E-03
        9    -2.94740   0.51111E-03
        9    -2.68420   0.24822E-02
        9    -2.42110   0.51143E-03
        9    -2.15790   0.15189E-03
        9    -1.89470   0.70054E-04
        9    -1.63160   0.39718E-04
        9    -1.36840   0.25531E-04
        9    -1.10530   0.17779E-04
        9    -0.84210   0.13081E-04
        9    -0.57890   0.10022E-04
        9    -0.31580   0.79201E-05
        9    -0.05260   0.64180E-05
        9     0.21050   0.53063E-05
        9     0.47370   0.44596E-05
        9     0.73680   0.38003E-05
        9     1.00000   0.32767E-05
 
      Z-factor =       0.8944
       10    -4.00000   0.25219E-02
       10    -3.73680   0.40026E-03
       10    -3.47370   0.12213E-03
       10    -3.21050   0.58215E-04
       10    -2.94740   0.30356E-04
       10    -2.68420   0.19127E-04
       10    -2.42110   0.13228E-04
       10    -2.15790   0.96993E-05
       10    -1.89470   0.74194E-05
       10    -1.63160   0.58586E-05
       10    -1.36840   0.47419E-05
       10    -1.10530   0.39157E-05
       10    -0.84210   0.32869E-05
       10    -0.57890   0.27976E-05
       10    -0.31580   0.24097E-05
       10    -0.05260   0.20974E-05
       10     0.21050   0.18429E-05
       10     0.47370   0.16318E-05
       10     0.73680   0.14553E-05
       10     1.00000   0.13021E-05
 
      Z-factor =       1.0410
       11    -4.00000   0.25657E-04
       11    -3.73680   0.37655E-04
       11    -3.47370   0.65381E-04
       11    -3.21050   0.14202E-03
       11    -2.94740   0.48737E-03
       11    -2.68420   0.26633E-02
       11    -2.42110   0.48770E-03
       11    -2.15790   0.14199E-03
       11    -1.89470   0.65196E-04
       11    -1.63160   0.36883E-04
       11    -1.36840   0.23691E-04
       11    -1.10530   0.16491E-04
       11    -0.84210   0.12130E-04
       11    -0.57890   0.92925E-05
       11    -0.31580   0.73434E-05
       11    -0.05260   0.59502E-05
       11     0.21050   0.49193E-05
       11     0.47370   0.41342E-05
       11     0.73680   0.35229E-05
       11     1.00000   0.30375E-05
 
      Z-factor =       1.0052
       12    -4.00000   0.36429E-05
       12    -3.73680   0.36681E-05
       12    -3.47370   0.40181E-05
       12    -3.21050   0.47781E-05
       12    -2.94740   0.62093E-05
       12    -2.68420   0.80917E-05
       12    -2.42110   0.10735E-04
       12    -2.15790   0.15042E-04
       12    -1.89470   0.23140E-04
       12    -1.63160   0.40878E-04
       12    -1.36840   0.90958E-04
       12    -1.10530   0.33991E-03
       12    -0.84210   0.39844E-02
       12    -0.57890   0.34002E-03
       12    -0.31580   0.91295E-04
       12    -0.05260   0.41151E-04
       12     0.21050   0.23106E-04
       12     0.47370   0.14806E-04
       12     0.73680   0.10292E-04
       12     1.00000   0.75644E-05
 
      Z-factor =       1.0245
       13    -4.00000   0.14531E-04
       13    -3.73680   0.17571E-04
       13    -3.47370   0.23570E-04
       13    -3.21050   0.35244E-04
       13    -2.94740   0.61426E-04
       13    -2.68420   0.13389E-03
       13    -2.42110   0.46569E-03
       13    -2.15790   0.27419E-02
       13    -1.89470   0.46567E-03
       13    -1.63160   0.13358E-03
       13    -1.36840   0.60977E-04
       13    -1.10530   0.34624E-04
       13    -0.84210   0.22252E-04
       13    -0.57890   0.15489E-04
       13    -0.31580   0.11396E-04
       13    -0.05260   0.87324E-05
       13     0.21050   0.69044E-05
       13     0.47370   0.55947E-05
       13     0.73680   0.46251E-05
       13     1.00000   0.38869E-05
 
      Z-factor =       1.0424
       14    -4.00000   0.27127E-04
       14    -3.73680   0.39747E-04
       14    -3.47370   0.68882E-04
       14    -3.21050   0.14910E-03
       14    -2.94740   0.50438E-03
       14    -2.68420   0.25285E-02
       14    -2.42110   0.50471E-03
       14    -2.15790   0.14903E-03
       14    -1.89470   0.68638E-04
       14    -1.63160   0.38898E-04
       14    -1.36840   0.25000E-04
       14    -1.10530   0.17407E-04
       14    -0.84210   0.12807E-04
       14    -0.57890   0.98113E-05
       14    -0.31580   0.77538E-05
       14    -0.05260   0.62830E-05
       14     0.21050   0.51946E-05
       14     0.47370   0.43658E-05
       14     0.73680   0.37203E-05
       14     1.00000   0.32077E-05
 
      Z-factor =       0.9119
       15    -4.00000   0.30174E-02
       15    -3.73680   0.36401E-03
       15    -3.47370   0.10888E-03
       15    -3.21050   0.51658E-04
       15    -2.94740   0.26304E-04
       15    -2.68420   0.16576E-04
       15    -2.42110   0.11462E-04
       15    -2.15790   0.84038E-05
       15    -1.89470   0.64281E-05
       15    -1.63160   0.50758E-05
       15    -1.36840   0.41083E-05
       15    -1.10530   0.33927E-05
       15    -0.84210   0.28481E-05
       15    -0.57890   0.24243E-05
       15    -0.31580   0.20884E-05
       15    -0.05260   0.18179E-05
       15     0.21050   0.15973E-05
       15     0.47370   0.14144E-05
       15     0.73680   0.12615E-05
       15     1.00000   0.11293E-05
 
      Z-factor =       0.9174
       16    -4.00000   0.33593E-02
       16    -3.73680   0.33841E-03
       16    -3.47370   0.99903E-04
       16    -3.21050   0.47195E-04
       16    -2.94740   0.23805E-04
       16    -2.68420   0.15023E-04
       16    -2.42110   0.10393E-04
       16    -2.15790   0.76212E-05
       16    -1.89470   0.58301E-05
       16    -1.63160   0.46039E-05
       16    -1.36840   0.37267E-05
       16    -1.10530   0.30779E-05
       16    -0.84210   0.25842E-05
       16    -0.57890   0.22000E-05
       16    -0.31580   0.18954E-05
       16    -0.05260   0.16500E-05
       16     0.21050   0.14499E-05
       16     0.47370   0.12839E-05
       16     0.73680   0.11451E-05
       16     1.00000   0.10252E-05
 
      Z-factor =       0.9032
       17    -4.00000   0.27573E-02
       17    -3.73680   0.38245E-03
       17    -3.47370   0.11542E-03
       17    -3.21050   0.54876E-04
       17    -2.94740   0.28282E-04
       17    -2.68420   0.17819E-04
       17    -2.42110   0.12322E-04
       17    -2.15790   0.90346E-05
       17    -1.89470   0.69107E-05
       17    -1.63160   0.54568E-05
       17    -1.36840   0.44167E-05
       17    -1.10530   0.36473E-05
       17    -0.84210   0.30617E-05
       17    -0.57890   0.26060E-05
       17    -0.31580   0.22448E-05
       17    -0.05260   0.19539E-05
       17     0.21050   0.17168E-05
       17     0.47370   0.15202E-05
       17     0.73680   0.13558E-05
       17     1.00000   0.12135E-05
 
      Z-factor =       1.0410
       18    -4.00000   0.25645E-04
       18    -3.73680   0.37619E-04
       18    -3.47370   0.65312E-04
       18    -3.21050   0.14187E-03
       18    -2.94740   0.48699E-03
       18    -2.68420   0.26666E-02
       18    -2.42110   0.48732E-03
       18    -2.15790   0.14183E-03
       18    -1.89470   0.65118E-04
       18    -1.63160   0.36839E-04
       18    -1.36840   0.23662E-04
       18    -1.10530   0.16471E-04
       18    -0.84210   0.12116E-04
       18    -0.57890   0.92811E-05
       18    -0.31580   0.73344E-05
       18    -0.05260   0.59429E-05
       18     0.21050   0.49132E-05
       18     0.47370   0.41291E-05
       18     0.73680   0.35185E-05
       18     1.00000   0.30338E-05
 
      Z-factor =       1.0432
       19    -4.00000   0.39004E-04
       19    -3.73680   0.67097E-04
       19    -3.47370   0.14543E-03
       19    -3.21050   0.49659E-03
       19    -2.94740   0.25999E-02
       19    -2.68420   0.49634E-03
       19    -2.42110   0.14570E-03
       19    -2.15790   0.67140E-04
       19    -1.89470   0.37942E-04
       19    -1.63160   0.24372E-04
       19    -1.36840   0.16965E-04
       19    -1.10530   0.12483E-04
       19    -0.84210   0.95646E-05
       19    -0.57890   0.75595E-05
       19    -0.31580   0.61234E-05
       19    -0.05260   0.50596E-05
       19     0.21050   0.42527E-05
       19     0.47370   0.36241E-05
       19     0.73680   0.31251E-05
       19     1.00000   0.27223E-05
 
      Z-factor =       0.8954
       20    -4.00000   0.25399E-02
       20    -3.73680   0.39959E-03
       20    -3.47370   0.12246E-03
       20    -3.21050   0.58535E-04
       20    -2.94740   0.30322E-04
       20    -2.68420   0.19078E-04
       20    -2.42110   0.13187E-04
       20    -2.15790   0.96667E-05
       20    -1.89470   0.73934E-05
       20    -1.63160   0.58375E-05
       20    -1.36840   0.47243E-05
       20    -1.10530   0.39008E-05
       20    -0.84210   0.32741E-05
       20    -0.57890   0.27863E-05
       20    -0.31580   0.23997E-05
       20    -0.05260   0.20885E-05
       20     0.21050   0.18349E-05
       20     0.47370   0.16246E-05
       20     0.73680   0.14489E-05
       20     1.00000   0.12967E-05
 
      Z-factor =       0.9180
       21    -4.00000   0.33783E-02
       21    -3.73680   0.33763E-03
       21    -3.47370   0.10005E-03
       21    -3.21050   0.47354E-04
       21    -2.94740   0.23746E-04
       21    -2.68420   0.14974E-04
       21    -2.42110   0.10356E-04
       21    -2.15790   0.75930E-05
       21    -1.89470   0.58081E-05
       21    -1.63160   0.45863E-05
       21    -1.36840   0.37123E-05
       21    -1.10530   0.30658E-05
       21    -0.84210   0.25739E-05
       21    -0.57890   0.21911E-05
       21    -0.31580   0.18876E-05
       21    -0.05260   0.16432E-05
       21     0.21050   0.14438E-05
       21     0.47370   0.12785E-05
       21     0.73680   0.11403E-05
       21     1.00000   0.10211E-05
 
      Z-factor =       0.9281
       22    -4.00000   0.40343E-02
       22    -3.73680   0.29759E-03
       22    -3.47370   0.86975E-04
       22    -3.21050   0.40975E-04
       22    -2.94740   0.20188E-04
       22    -2.68420   0.12759E-04
       22    -2.42110   0.88296E-05
       22    -2.15790   0.64760E-05
       22    -1.89470   0.49544E-05
       22    -1.63160   0.39126E-05
       22    -1.36840   0.31674E-05
       22    -1.10530   0.26162E-05
       22    -0.84210   0.21968E-05
       22    -0.57890   0.18704E-05
       22    -0.31580   0.16117E-05
       22    -0.05260   0.14032E-05
       22     0.21050   0.12330E-05
       22     0.47370   0.10919E-05
       22     0.73680   0.97386E-06
       22     1.00000   0.87225E-06
 
      Z-factor =       0.9180
       23    -4.00000   0.33782E-02
       23    -3.73680   0.33714E-03
       23    -3.47370   0.99350E-04
       23    -3.21050   0.46899E-04
       23    -2.94740   0.23681E-04
       23    -2.68420   0.14949E-04
       23    -2.42110   0.10342E-04
       23    -2.15790   0.75848E-05
       23    -1.89470   0.58024E-05
       23    -1.63160   0.45822E-05
       23    -1.36840   0.37092E-05
       23    -1.10530   0.30635E-05
       23    -0.84210   0.25721E-05
       23    -0.57890   0.21898E-05
       23    -0.31580   0.18867E-05
       23    -0.05260   0.16425E-05
       23     0.21050   0.14433E-05
       23     0.47370   0.12781E-05
       23     0.73680   0.11398E-05
       23     1.00000   0.10205E-05
 
      Z-factor =       0.8954
       24    -4.00000   0.25399E-02
       24    -3.73680   0.39921E-03
       24    -3.47370   0.12191E-03
       24    -3.21050   0.58152E-04
       24    -2.94740   0.30240E-04
       24    -2.68420   0.19045E-04
       24    -2.42110   0.13168E-04
       24    -2.15790   0.96548E-05
       24    -1.89470   0.73849E-05
       24    -1.63160   0.58312E-05
       24    -1.36840   0.47195E-05
       24    -1.10530   0.38971E-05
       24    -0.84210   0.32712E-05
       24    -0.57890   0.27841E-05
       24    -0.31580   0.23981E-05
       24    -0.05260   0.20872E-05
       24     0.21050   0.18338E-05
       24     0.47370   0.16238E-05
       24     0.73680   0.14482E-05
       24     1.00000   0.12959E-05
 
      Z-factor =       1.0245
       25    -4.00000   0.14531E-04
       25    -3.73680   0.17571E-04
       25    -3.47370   0.23570E-04
       25    -3.21050   0.35244E-04
       25    -2.94740   0.61426E-04
       25    -2.68420   0.13389E-03
       25    -2.42110   0.46569E-03
       25    -2.15790   0.27419E-02
       25    -1.89470   0.46567E-03
       25    -1.63160   0.13358E-03
       25    -1.36840   0.60977E-04
       25    -1.10530   0.34624E-04
       25    -0.84210   0.22252E-04
       25    -0.57890   0.15489E-04
       25    -0.31580   0.11396E-04
       25    -0.05260   0.87324E-05
       25     0.21050   0.69044E-05
       25     0.47370   0.55947E-05
       25     0.73680   0.46251E-05
       25     1.00000   0.38869E-05
 
      Z-factor =       1.0410
       26    -4.00000   0.25645E-04
       26    -3.73680   0.37619E-04
       26    -3.47370   0.65312E-04
       26    -3.21050   0.14187E-03
       26    -2.94740   0.48699E-03
       26    -2.68420   0.26666E-02
       26    -2.42110   0.48732E-03
       26    -2.15790   0.14183E-03
       26    -1.89470   0.65118E-04
       26    -1.63160   0.36839E-04
       26    -1.36840   0.23662E-04
       26    -1.10530   0.16471E-04
       26    -0.84210   0.12116E-04
       26    -0.57890   0.92811E-05
       26    -0.31580   0.73344E-05
       26    -0.05260   0.59429E-05
       26     0.21050   0.49132E-05
       26     0.47370   0.41291E-05
       26     0.73680   0.35185E-05
       26     1.00000   0.30338E-05
 
      Z-factor =       0.9032
       27    -4.00000   0.27573E-02
       27    -3.73680   0.38267E-03
       27    -3.47370   0.11575E-03
       27    -3.21050   0.55098E-04
       27    -2.94740   0.28325E-04
       27    -2.68420   0.17836E-04
       27    -2.42110   0.12331E-04
       27    -2.15790   0.90403E-05
       27    -1.89470   0.69147E-05
       27    -1.63160   0.54598E-05
       27    -1.36840   0.44189E-05
       27    -1.10530   0.36490E-05
       27    -0.84210   0.30630E-05
       27    -0.57890   0.26070E-05
       27    -0.31580   0.22455E-05
       27    -0.05260   0.19545E-05
       27     0.21050   0.17173E-05
       27     0.47370   0.15205E-05
       27     0.73680   0.13562E-05
       27     1.00000   0.12139E-05
 
      Z-factor =       0.9174
       28    -4.00000   0.33593E-02
       28    -3.73680   0.33830E-03
       28    -3.47370   0.99750E-04
       28    -3.21050   0.47096E-04
       28    -2.94740   0.23791E-04
       28    -2.68420   0.15017E-04
       28    -2.42110   0.10390E-04
       28    -2.15790   0.76194E-05
       28    -1.89470   0.58288E-05
       28    -1.63160   0.46030E-05
       28    -1.36840   0.37261E-05
       28    -1.10530   0.30774E-05
       28    -0.84210   0.25838E-05
       28    -0.57890   0.21997E-05
       28    -0.31580   0.18952E-05
       28    -0.05260   0.16499E-05
       28     0.21050   0.14498E-05
       28     0.47370   0.12838E-05
       28     0.73680   0.11450E-05
       28     1.00000   0.10251E-05
 
      Z-factor =       0.9117
       29    -4.00000   0.30054E-02
       29    -3.73680   0.36444E-03
       29    -3.47370   0.10844E-03
       29    -3.21050   0.51306E-04
       29    -2.94740   0.26315E-04
       29    -2.68420   0.16603E-04
       29    -2.42110   0.11486E-04
       29    -2.15790   0.84236E-05
       29    -1.89470   0.64441E-05
       29    -1.63160   0.50888E-05
       29    -1.36840   0.41192E-05
       29    -1.10530   0.34020E-05
       29    -0.84210   0.28562E-05
       29    -0.57890   0.24315E-05
       29    -0.31580   0.20948E-05
       29    -0.05260   0.18236E-05
       29     0.21050   0.16024E-05
       29     0.47370   0.14190E-05
       29     0.73680   0.12654E-05
       29     1.00000   0.11326E-05
 
      Z-factor =       1.0424
       30    -4.00000   0.27127E-04
       30    -3.73680   0.39747E-04
       30    -3.47370   0.68882E-04
       30    -3.21050   0.14910E-03
       30    -2.94740   0.50438E-03
       30    -2.68420   0.25285E-02
       30    -2.42110   0.50471E-03
       30    -2.15790   0.14903E-03
       30    -1.89470   0.68638E-04
       30    -1.63160   0.38898E-04
       30    -1.36840   0.25000E-04
       30    -1.10530   0.17407E-04
       30    -0.84210   0.12807E-04
       30    -0.57890   0.98113E-05
       30    -0.31580   0.77538E-05
       30    -0.05260   0.62830E-05
       30     0.21050   0.51946E-05
       30     0.47370   0.43658E-05
       30     0.73680   0.37203E-05
       30     1.00000   0.32077E-05
 
      Z-factor =       1.0039
       31    -4.00000   0.36346E-05
       31    -3.73680   0.35788E-05
       31    -3.47370   0.37868E-05
       31    -3.21050   0.41528E-05
       31    -2.94740   0.48129E-05
       31    -2.68420   0.61590E-05
       31    -2.42110   0.79436E-05
       31    -2.15790   0.10629E-04
       31    -1.89470   0.15312E-04
       31    -1.63160   0.23805E-04
       31    -1.36840   0.42154E-04
       31    -1.10530   0.93603E-04
       31    -0.84210   0.34787E-03
       31    -0.57890   0.38659E-02
       31    -0.31580   0.34822E-03
       31    -0.05260   0.93675E-04
       31     0.21050   0.42140E-04
       31     0.47370   0.23739E-04
       31     0.73680   0.15220E-04
       31     1.00000   0.10578E-04
 
      Z-factor =       1.0052
       32    -4.00000   0.36429E-05
       32    -3.73680   0.36681E-05
       32    -3.47370   0.40181E-05
       32    -3.21050   0.47781E-05
       32    -2.94740   0.62093E-05
       32    -2.68420   0.80917E-05
       32    -2.42110   0.10735E-04
       32    -2.15790   0.15042E-04
       32    -1.89470   0.23140E-04
       32    -1.63160   0.40878E-04
       32    -1.36840   0.90958E-04
       32    -1.10530   0.33991E-03
       32    -0.84210   0.39844E-02
       32    -0.57890   0.34002E-03
       32    -0.31580   0.91295E-04
       32    -0.05260   0.41151E-04
       32     0.21050   0.23106E-04
       32     0.47370   0.14806E-04
       32     0.73680   0.10292E-04
       32     1.00000   0.75644E-05
 
      Z-factor =       1.0410
       33    -4.00000   0.25657E-04
       33    -3.73680   0.37655E-04
       33    -3.47370   0.65381E-04
       33    -3.21050   0.14202E-03
       33    -2.94740   0.48737E-03
       33    -2.68420   0.26633E-02
       33    -2.42110   0.48770E-03
       33    -2.15790   0.14199E-03
       33    -1.89470   0.65196E-04
       33    -1.63160   0.36883E-04
       33    -1.36840   0.23691E-04
       33    -1.10530   0.16491E-04
       33    -0.84210   0.12130E-04
       33    -0.57890   0.92925E-05
       33    -0.31580   0.73434E-05
       33    -0.05260   0.59502E-05
       33     0.21050   0.49193E-05
       33     0.47370   0.41342E-05
       33     0.73680   0.35229E-05
       33     1.00000   0.30375E-05
 
      Z-factor =       0.8944
       34    -4.00000   0.25219E-02
       34    -3.73680   0.40024E-03
       34    -3.47370   0.12212E-03
       34    -3.21050   0.58202E-04
       34    -2.94740   0.30354E-04
       34    -2.68420   0.19126E-04
       34    -2.42110   0.13227E-04
       34    -2.15790   0.96990E-05
       34    -1.89470   0.74191E-05
       34    -1.63160   0.58584E-05
       34    -1.36840   0.47417E-05
       34    -1.10530   0.39156E-05
       34    -0.84210   0.32868E-05
       34    -0.57890   0.27975E-05
       34    -0.31580   0.24097E-05
       34    -0.05260   0.20974E-05
       34     0.21050   0.18428E-05
       34     0.47370   0.16318E-05
       34     0.73680   0.14553E-05
       34     1.00000   0.13021E-05
 
      Z-factor =       1.0438
       35    -4.00000   0.27695E-04
       35    -3.73680   0.40582E-04
       35    -3.47370   0.70289E-04
       35    -3.21050   0.15195E-03
       35    -2.94740   0.51111E-03
       35    -2.68420   0.24822E-02
       35    -2.42110   0.51143E-03
       35    -2.15790   0.15189E-03
       35    -1.89470   0.70054E-04
       35    -1.63160   0.39718E-04
       35    -1.36840   0.25531E-04
       35    -1.10530   0.17779E-04
       35    -0.84210   0.13081E-04
       35    -0.57890   0.10022E-04
       35    -0.31580   0.79201E-05
       35    -0.05260   0.64180E-05
       35     0.21050   0.53063E-05
       35     0.47370   0.44597E-05
       35     0.73680   0.38003E-05
       35     1.00000   0.32767E-05
 
      Z-factor =       1.0077
       36    -4.00000   0.84502E-05
       36    -3.73680   0.93115E-05
       36    -3.47370   0.11193E-04
       36    -3.21050   0.14366E-04
       36    -2.94740   0.19981E-04
       36    -2.68420   0.30792E-04
       36    -2.42110   0.54177E-04
       36    -2.15790   0.11905E-03
       36    -1.89470   0.42561E-03
       36    -1.63160   0.30004E-02
       36    -1.36840   0.42537E-03
       36    -1.10530   0.11908E-03
       36    -0.84210   0.54214E-04
       36    -0.57890   0.30670E-04
       36    -0.31580   0.19695E-04
       36    -0.05260   0.13702E-04
       36     0.21050   0.10079E-04
       36     0.47370   0.77222E-05
       36     0.73680   0.61050E-05
       36     1.00000   0.49463E-05
 
      Z-factor =       1.0045
       37    -4.00000   0.38364E-05
       37    -3.73680   0.37813E-05
       37    -3.47370   0.39969E-05
       37    -3.21050   0.43730E-05
       37    -2.94740   0.50133E-05
       37    -2.68420   0.62450E-05
       37    -2.42110   0.80877E-05
       37    -2.15790   0.10925E-04
       37    -1.89470   0.15755E-04
       37    -1.63160   0.24465E-04
       37    -1.36840   0.43303E-04
       37    -1.10530   0.96077E-04
       37    -0.84210   0.35578E-03
       37    -0.57890   0.37656E-02
       37    -0.31580   0.35613E-03
       37    -0.05260   0.96148E-04
       37     0.21050   0.43284E-04
       37     0.47370   0.24391E-04
       37     0.73680   0.15640E-04
       37     1.00000   0.10871E-04
 
      Z-factor =       1.0075
       38    -4.00000   0.83347E-05
       38    -3.73680   0.91908E-05
       38    -3.47370   0.11058E-04
       38    -3.21050   0.14206E-04
       38    -2.94740   0.19774E-04
       38    -2.68420   0.30490E-04
       38    -2.42110   0.53656E-04
       38    -2.15790   0.11795E-03
       38    -1.89470   0.42255E-03
       38    -1.63160   0.30297E-02
       38    -1.36840   0.42231E-03
       38    -1.10530   0.11798E-03
       38    -0.84210   0.53690E-04
       38    -0.57890   0.30370E-04
       38    -0.31580   0.19501E-04
       38    -0.05260   0.13567E-04
       38     0.21050   0.99794E-05
       38     0.47370   0.76458E-05
       38     0.73680   0.60445E-05
       38     1.00000   0.48973E-05
 
      Z-factor =       1.0426
       39    -4.00000   0.27245E-04
       39    -3.73680   0.39912E-04
       39    -3.47370   0.69157E-04
       39    -3.21050   0.14965E-03
       39    -2.94740   0.50567E-03
       39    -2.68420   0.25190E-02
       39    -2.42110   0.50600E-03
       39    -2.15790   0.14958E-03
       39    -1.89470   0.68909E-04
       39    -1.63160   0.39056E-04
       39    -1.36840   0.25102E-04
       39    -1.10530   0.17479E-04
       39    -0.84210   0.12859E-04
       39    -0.57890   0.98518E-05
       39    -0.31580   0.77858E-05
       39    -0.05260   0.63090E-05
       39     0.21050   0.52161E-05
       39     0.47370   0.43839E-05
       39     0.73680   0.37357E-05
       39     1.00000   0.32210E-05
 
      Z-factor =       0.8937
       40    -4.00000   0.24833E-02
       40    -3.73680   0.40393E-03
       40    -3.47370   0.12358E-03
       40    -3.21050   0.58942E-04
       40    -2.94740   0.30791E-04
       40    -2.68420   0.19400E-04
       40    -2.42110   0.13416E-04
       40    -2.15790   0.98377E-05
       40    -1.89470   0.75252E-05
       40    -1.63160   0.59422E-05
       40    -1.36840   0.48095E-05
       40    -1.10530   0.39715E-05
       40    -0.84210   0.33337E-05
       40    -0.57890   0.28374E-05
       40    -0.31580   0.24440E-05
       40    -0.05260   0.21272E-05
       40     0.21050   0.18691E-05
       40     0.47370   0.16550E-05
       40     0.73680   0.14760E-05
       40     1.00000   0.13206E-05
 
      Z-factor =       1.0414
       41    -4.00000   0.26100E-04
       41    -3.73680   0.38272E-04
       41    -3.47370   0.66410E-04
       41    -3.21050   0.14411E-03
       41    -2.94740   0.49249E-03
       41    -2.68420   0.26224E-02
       41    -2.42110   0.49282E-03
       41    -2.15790   0.14406E-03
       41    -1.89470   0.66201E-04
       41    -1.63160   0.37474E-04
       41    -1.36840   0.24075E-04
       41    -1.10530   0.16760E-04
       41    -0.84210   0.12329E-04
       41    -0.57890   0.94445E-05
       41    -0.31580   0.74637E-05
       41    -0.05260   0.60477E-05
       41     0.21050   0.50000E-05
       41     0.47370   0.42021E-05
       41     0.73680   0.35807E-05
       41     1.00000   0.30874E-05
 
      Z-factor =       1.0046
       42    -4.00000   0.37683E-05
       42    -3.73680   0.37786E-05
       42    -3.47370   0.41159E-05
       42    -3.21050   0.48507E-05
       42    -2.94740   0.63185E-05
       42    -2.68420   0.82457E-05
       42    -2.42110   0.10937E-04
       42    -2.15790   0.15302E-04
       42    -1.89470   0.23505E-04
       42    -1.63160   0.41489E-04
       42    -1.36840   0.92284E-04
       42    -1.10530   0.34422E-03
       42    -0.84210   0.39191E-02
       42    -0.57890   0.34433E-03
       42    -0.31580   0.92606E-04
       42    -0.05260   0.41743E-04
       42     0.21050   0.23457E-04
       42     0.47370   0.15033E-04
       42     0.73680   0.10450E-04
       42     1.00000   0.76809E-05
 
      Z-factor =       1.0076
       43    -4.00000   0.84040E-05
       43    -3.73680   0.92632E-05
       43    -3.47370   0.11139E-04
       43    -3.21050   0.14302E-04
       43    -2.94740   0.19898E-04
       43    -2.68420   0.30671E-04
       43    -2.42110   0.53969E-04
       43    -2.15790   0.11861E-03
       43    -1.89470   0.42439E-03
       43    -1.63160   0.30121E-02
       43    -1.36840   0.42415E-03
       43    -1.10530   0.11864E-03
       43    -0.84210   0.54004E-04
       43    -0.57890   0.30550E-04
       43    -0.31580   0.19617E-04
       43    -0.05260   0.13648E-04
       43     0.21050   0.10039E-04
       43     0.47370   0.76916E-05
       43     0.73680   0.60808E-05
       43     1.00000   0.49267E-05
 
      Z-factor =       1.0044
       44    -4.00000   0.38253E-05
       44    -3.73680   0.37695E-05
       44    -3.47370   0.39841E-05
       44    -3.21050   0.43591E-05
       44    -2.94740   0.49985E-05
       44    -2.68420   0.62402E-05
       44    -2.42110   0.80796E-05
       44    -2.15790   0.10902E-04
       44    -1.89470   0.15725E-04
       44    -1.63160   0.24423E-04
       44    -1.36840   0.43230E-04
       44    -1.10530   0.95920E-04
       44    -0.84210   0.35528E-03
       44    -0.57890   0.37715E-02
       44    -0.31580   0.35563E-03
       44    -0.05260   0.95992E-04
       44     0.21050   0.43211E-04
       44     0.47370   0.24350E-04
       44     0.73680   0.15613E-04
       44     1.00000   0.10852E-04
 
      Z-factor =       1.0046
       45    -4.00000   0.37683E-05
       45    -3.73680   0.37786E-05
       45    -3.47370   0.41159E-05
       45    -3.21050   0.48507E-05
       45    -2.94740   0.63185E-05
       45    -2.68420   0.82457E-05
       45    -2.42110   0.10937E-04
       45    -2.15790   0.15302E-04
       45    -1.89470   0.23505E-04
       45    -1.63160   0.41489E-04
       45    -1.36840   0.92284E-04
       45    -1.10530   0.34422E-03
       45    -0.84210   0.39191E-02
       45    -0.57890   0.34433E-03
       45    -0.31580   0.92606E-04
       45    -0.05260   0.41743E-04
       45     0.21050   0.23457E-04
       45     0.47370   0.15033E-04
       45     0.73680   0.10450E-04
       45     1.00000   0.76809E-05
 
      Z-factor =       1.0414
       46    -4.00000   0.26100E-04
       46    -3.73680   0.38272E-04
       46    -3.47370   0.66411E-04
       46    -3.21050   0.14411E-03
       46    -2.94740   0.49249E-03
       46    -2.68420   0.26224E-02
       46    -2.42110   0.49282E-03
       46    -2.15790   0.14406E-03
       46    -1.89470   0.66201E-04
       46    -1.63160   0.37474E-04
       46    -1.36840   0.24075E-04
       46    -1.10530   0.16760E-04
       46    -0.84210   0.12329E-04
       46    -0.57890   0.94445E-05
       46    -0.31580   0.74637E-05
       46    -0.05260   0.60477E-05
       46     0.21050   0.50000E-05
       46     0.47370   0.42021E-05
       46     0.73680   0.35807E-05
       46     1.00000   0.30874E-05
 
      Z-factor =       0.8937
       47    -4.00000   0.24833E-02
       47    -3.73680   0.40406E-03
       47    -3.47370   0.12377E-03
       47    -3.21050   0.59078E-04
       47    -2.94740   0.30820E-04
       47    -2.68420   0.19412E-04
       47    -2.42110   0.13423E-04
       47    -2.15790   0.98415E-05
       47    -1.89470   0.75278E-05
       47    -1.63160   0.59441E-05
       47    -1.36840   0.48109E-05
       47    -1.10530   0.39726E-05
       47    -0.84210   0.33346E-05
       47    -0.57890   0.28380E-05
       47    -0.31580   0.24445E-05
       47    -0.05260   0.21276E-05
       47     0.21050   0.18693E-05
       47     0.47370   0.16552E-05
       47     0.73680   0.14762E-05
       47     1.00000   0.13209E-05
 
      Z-factor =       1.0426
       48    -4.00000   0.27245E-04
       48    -3.73680   0.39912E-04
       48    -3.47370   0.69157E-04
       48    -3.21050   0.14965E-03
       48    -2.94740   0.50567E-03
       48    -2.68420   0.25190E-02
       48    -2.42110   0.50600E-03
       48    -2.15790   0.14958E-03
       48    -1.89470   0.68909E-04
       48    -1.63160   0.39056E-04
       48    -1.36840   0.25102E-04
       48    -1.10530   0.17479E-04
       48    -0.84210   0.12859E-04
       48    -0.57890   0.98518E-05
       48    -0.31580   0.77858E-05
       48    -0.05260   0.63090E-05
       48     0.21050   0.52161E-05
       48     0.47370   0.43839E-05
       48     0.73680   0.37357E-05
       48     1.00000   0.32210E-05
 
      Z-factor =       1.0424
       49    -4.00000   0.27127E-04
       49    -3.73680   0.39747E-04
       49    -3.47370   0.68882E-04
       49    -3.21050   0.14910E-03
       49    -2.94740   0.50438E-03
       49    -2.68420   0.25285E-02
       49    -2.42110   0.50471E-03
       49    -2.15790   0.14903E-03
       49    -1.89470   0.68638E-04
       49    -1.63160   0.38898E-04
       49    -1.36840   0.25000E-04
       49    -1.10530   0.17407E-04
       49    -0.84210   0.12807E-04
       49    -0.57890   0.98113E-05
       49    -0.31580   0.77538E-05
       49    -0.05260   0.62830E-05
       49     0.21050   0.51946E-05
       49     0.47370   0.43658E-05
       49     0.73680   0.37203E-05
       49     1.00000   0.32077E-05
 
      Z-factor =       1.0052
       50    -4.00000   0.36429E-05
       50    -3.73680   0.36681E-05
       50    -3.47370   0.40181E-05
       50    -3.21050   0.47781E-05
       50    -2.94740   0.62093E-05
       50    -2.68420   0.80917E-05
       50    -2.42110   0.10735E-04
       50    -2.15790   0.15042E-04
       50    -1.89470   0.23140E-04
       50    -1.63160   0.40878E-04
       50    -1.36840   0.90958E-04
       50    -1.10530   0.33991E-03
       50    -0.84210   0.39844E-02
       50    -0.57890   0.34002E-03
       50    -0.31580   0.91295E-04
       50    -0.05260   0.41151E-04
       50     0.21050   0.23106E-04
       50     0.47370   0.14806E-04
       50     0.73680   0.10292E-04
       50     1.00000   0.75644E-05
 
      Z-factor =       1.0426
       51    -4.00000   0.27245E-04
       51    -3.73680   0.39912E-04
       51    -3.47370   0.69157E-04
       51    -3.21050   0.14965E-03
       51    -2.94740   0.50567E-03
       51    -2.68420   0.25190E-02
       51    -2.42110   0.50600E-03
       51    -2.15790   0.14958E-03
       51    -1.89470   0.68909E-04
       51    -1.63160   0.39056E-04
       51    -1.36840   0.25102E-04
       51    -1.10530   0.17479E-04
       51    -0.84210   0.12859E-04
       51    -0.57890   0.98518E-05
       51    -0.31580   0.77858E-05
       51    -0.05260   0.63090E-05
       51     0.21050   0.52161E-05
       51     0.47370   0.43839E-05
       51     0.73680   0.37357E-05
       51     1.00000   0.32210E-05
 
      Z-factor =       0.8980
       52    -4.00000   0.24582E-02
       52    -3.73680   0.41024E-03
       52    -3.47370   0.12624E-03
       52    -3.21050   0.60361E-04
       52    -2.94740   0.31486E-04
       52    -2.68420   0.19820E-04
       52    -2.42110   0.13702E-04
       52    -2.15790   0.10045E-04
       52    -1.89470   0.76835E-05
       52    -1.63160   0.60667E-05
       52    -1.36840   0.49100E-05
       52    -1.10530   0.40543E-05
       52    -0.84210   0.34029E-05
       52    -0.57890   0.28960E-05
       52    -0.31580   0.24943E-05
       52    -0.05260   0.21709E-05
       52     0.21050   0.19073E-05
       52     0.47370   0.16888E-05
       52     0.73680   0.15063E-05
       52     1.00000   0.13478E-05
 
      Z-factor =       0.9121
       53    -4.00000   0.28994E-02
       53    -3.73680   0.37511E-03
       53    -3.47370   0.11270E-03
       53    -3.21050   0.53539E-04
       53    -2.94740   0.27416E-04
       53    -2.68420   0.17273E-04
       53    -2.42110   0.11943E-04
       53    -2.15790   0.87567E-05
       53    -1.89470   0.66980E-05
       53    -1.63160   0.52889E-05
       53    -1.36840   0.42808E-05
       53    -1.10530   0.35350E-05
       53    -0.84210   0.29675E-05
       53    -0.57890   0.25259E-05
       53    -0.31580   0.21759E-05
       53    -0.05260   0.18940E-05
       53     0.21050   0.16641E-05
       53     0.47370   0.14736E-05
       53     0.73680   0.13142E-05
       53     1.00000   0.11764E-05
 
      Z-factor =       0.8992
       54    -4.00000   0.24815E-02
       54    -3.73680   0.40853E-03
       54    -3.47370   0.12543E-03
       54    -3.21050   0.59930E-04
       54    -2.94740   0.31253E-04
       54    -2.68420   0.19678E-04
       54    -2.42110   0.13605E-04
       54    -2.15790   0.99748E-05
       54    -1.89470   0.76296E-05
       54    -1.63160   0.60243E-05
       54    -1.36840   0.48757E-05
       54    -1.10530   0.40260E-05
       54    -0.84210   0.33793E-05
       54    -0.57890   0.28760E-05
       54    -0.31580   0.24772E-05
       54    -0.05260   0.21560E-05
       54     0.21050   0.18943E-05
       54     0.47370   0.16773E-05
       54     0.73680   0.14959E-05
       54     1.00000   0.13385E-05
 
      Z-factor =       0.8954
       55    -4.00000   0.25399E-02
       55    -3.73680   0.39929E-03
       55    -3.47370   0.12202E-03
       55    -3.21050   0.58231E-04
       55    -2.94740   0.30256E-04
       55    -2.68420   0.19051E-04
       55    -2.42110   0.13172E-04
       55    -2.15790   0.96570E-05
       55    -1.89470   0.73864E-05
       55    -1.63160   0.58323E-05
       55    -1.36840   0.47204E-05
       55    -1.10530   0.38978E-05
       55    -0.84210   0.32717E-05
       55    -0.57890   0.27845E-05
       55    -0.31580   0.23983E-05
       55    -0.05260   0.20874E-05
       55     0.21050   0.18340E-05
       55     0.47370   0.16239E-05
       55     0.73680   0.14484E-05
       55     1.00000   0.12961E-05
 
      Z-factor =       1.0410
       56    -4.00000   0.25645E-04
       56    -3.73680   0.37619E-04
       56    -3.47370   0.65312E-04
       56    -3.21050   0.14187E-03
       56    -2.94740   0.48699E-03
       56    -2.68420   0.26666E-02
       56    -2.42110   0.48732E-03
       56    -2.15790   0.14183E-03
       56    -1.89470   0.65118E-04
       56    -1.63160   0.36839E-04
       56    -1.36840   0.23662E-04
       56    -1.10530   0.16471E-04
       56    -0.84210   0.12116E-04
       56    -0.57890   0.92811E-05
       56    -0.31580   0.73344E-05
       56    -0.05260   0.59429E-05
       56     0.21050   0.49132E-05
       56     0.47370   0.41291E-05
       56     0.73680   0.35185E-05
       56     1.00000   0.30338E-05
 
      Z-factor =       0.8992
       57    -4.00000   0.24816E-02
       57    -3.73680   0.40886E-03
       57    -3.47370   0.12591E-03
       57    -3.21050   0.60260E-04
       57    -2.94740   0.31326E-04
       57    -2.68420   0.19708E-04
       57    -2.42110   0.13622E-04
       57    -2.15790   0.99854E-05
       57    -1.89470   0.76371E-05
       57    -1.63160   0.60299E-05
       57    -1.36840   0.48800E-05
       57    -1.10530   0.40293E-05
       57    -0.84210   0.33819E-05
       57    -0.57890   0.28780E-05
       57    -0.31580   0.24786E-05
       57    -0.05260   0.21571E-05
       57     0.21050   0.18952E-05
       57     0.47370   0.16780E-05
       57     0.73680   0.14965E-05
       57     1.00000   0.13392E-05
 
      Z-factor =       0.9180
       58    -4.00000   0.33131E-02
       58    -3.73680   0.34274E-03
       58    -3.47370   0.10162E-03
       58    -3.21050   0.48099E-04
       58    -2.94740   0.24213E-04
       58    -2.68420   0.15269E-04
       58    -2.42110   0.10560E-04
       58    -2.15790   0.77431E-05
       58    -1.89470   0.59230E-05
       58    -1.63160   0.46771E-05
       58    -1.36840   0.37858E-05
       58    -1.10530   0.31265E-05
       58    -0.84210   0.26248E-05
       58    -0.57890   0.22344E-05
       58    -0.31580   0.19250E-05
       58    -0.05260   0.16757E-05
       58     0.21050   0.14724E-05
       58     0.47370   0.13038E-05
       58     0.73680   0.11629E-05
       58     1.00000   0.10412E-05
 
      Z-factor =       0.9290
       59    -4.00000   0.37051E-02
       59    -3.73680   0.31987E-03
       59    -3.47370   0.93823E-04
       59    -3.21050   0.44243E-04
       59    -2.94740   0.22073E-04
       59    -2.68420   0.13940E-04
       59    -2.42110   0.96455E-05
       59    -2.15790   0.70739E-05
       59    -1.89470   0.54117E-05
       59    -1.63160   0.42736E-05
       59    -1.36840   0.34595E-05
       59    -1.10530   0.28574E-05
       59    -0.84210   0.23992E-05
       59    -0.57890   0.20427E-05
       59    -0.31580   0.17600E-05
       59    -0.05260   0.15323E-05
       59     0.21050   0.13464E-05
       59     0.47370   0.11924E-05
       59     0.73680   0.10634E-05
       59     1.00000   0.95225E-06
 
      Z-factor =       0.9121
       60    -4.00000   0.29375E-02
       60    -3.73680   0.37147E-03
       60    -3.47370   0.11140E-03
       60    -3.21050   0.52885E-04
       60    -2.94740   0.27044E-04
       60    -2.68420   0.17041E-04
       60    -2.42110   0.11784E-04
       60    -2.15790   0.86398E-05
       60    -1.89470   0.66087E-05
       60    -1.63160   0.52183E-05
       60    -1.36840   0.42237E-05
       60    -1.10530   0.34880E-05
       60    -0.84210   0.29281E-05
       60    -0.57890   0.24923E-05
       60    -0.31580   0.21470E-05
       60    -0.05260   0.18688E-05
       60     0.21050   0.16421E-05
       60     0.47370   0.14540E-05
       60     0.73680   0.12968E-05
       60     1.00000   0.11608E-05
 
      Z-factor =       1.0410
       61    -4.00000   0.25645E-04
       61    -3.73680   0.37619E-04
       61    -3.47370   0.65312E-04
       61    -3.21050   0.14187E-03
       61    -2.94740   0.48699E-03
       61    -2.68420   0.26666E-02
       61    -2.42110   0.48732E-03
       61    -2.15790   0.14183E-03
       61    -1.89470   0.65118E-04
       61    -1.63160   0.36839E-04
       61    -1.36840   0.23662E-04
       61    -1.10530   0.16471E-04
       61    -0.84210   0.12116E-04
       61    -0.57890   0.92811E-05
       61    -0.31580   0.73344E-05
       61    -0.05260   0.59429E-05
       61     0.21050   0.49132E-05
       61     0.47370   0.41291E-05
       61     0.73680   0.35185E-05
       61     1.00000   0.30338E-05
 
      Z-factor =       0.8954
       62    -4.00000   0.25399E-02
       62    -3.73680   0.39954E-03
       62    -3.47370   0.12239E-03
       62    -3.21050   0.58485E-04
       62    -2.94740   0.30311E-04
       62    -2.68420   0.19074E-04
       62    -2.42110   0.13184E-04
       62    -2.15790   0.96651E-05
       62    -1.89470   0.73922E-05
       62    -1.63160   0.58366E-05
       62    -1.36840   0.47237E-05
       62    -1.10530   0.39003E-05
       62    -0.84210   0.32737E-05
       62    -0.57890   0.27860E-05
       62    -0.31580   0.23995E-05
       62    -0.05260   0.20883E-05
       62     0.21050   0.18348E-05
       62     0.47370   0.16245E-05
       62     0.73680   0.14488E-05
       62     1.00000   0.12966E-05
 
      Z-factor =       0.9121
       63    -4.00000   0.29375E-02
       63    -3.73680   0.37168E-03
       63    -3.47370   0.11170E-03
       63    -3.21050   0.53085E-04
       63    -2.94740   0.27079E-04
       63    -2.68420   0.17055E-04
       63    -2.42110   0.11792E-04
       63    -2.15790   0.86446E-05
       63    -1.89470   0.66121E-05
       63    -1.63160   0.52209E-05
       63    -1.36840   0.42256E-05
       63    -1.10530   0.34894E-05
       63    -0.84210   0.29292E-05
       63    -0.57890   0.24932E-05
       63    -0.31580   0.21476E-05
       63    -0.05260   0.18693E-05
       63     0.21050   0.16425E-05
       63     0.47370   0.14543E-05
       63     0.73680   0.12971E-05
       63     1.00000   0.11612E-05
 
      Z-factor =       0.9290
       64    -4.00000   0.37051E-02
       64    -3.73680   0.31998E-03
       64    -3.47370   0.93981E-04
       64    -3.21050   0.44345E-04
       64    -2.94740   0.22085E-04
       64    -2.68420   0.13945E-04
       64    -2.42110   0.96481E-05
       64    -2.15790   0.70755E-05
       64    -1.89470   0.54127E-05
       64    -1.63160   0.42744E-05
       64    -1.36840   0.34601E-05
       64    -1.10530   0.28578E-05
       64    -0.84210   0.23995E-05
       64    -0.57890   0.20429E-05
       64    -0.31580   0.17602E-05
       64    -0.05260   0.15324E-05
       64     0.21050   0.13465E-05
       64     0.47370   0.11925E-05
       64     0.73680   0.10635E-05
       64     1.00000   0.95237E-06
 
      Z-factor =       0.9180
       65    -4.00000   0.33130E-02
       65    -3.73680   0.34225E-03
       65    -3.47370   0.10092E-03
       65    -3.21050   0.47639E-04
       65    -2.94740   0.24146E-04
       65    -2.68420   0.15243E-04
       65    -2.42110   0.10546E-04
       65    -2.15790   0.77347E-05
       65    -1.89470   0.59171E-05
       65    -1.63160   0.46728E-05
       65    -1.36840   0.37826E-05
       65    -1.10530   0.31241E-05
       65    -0.84210   0.26230E-05
       65    -0.57890   0.22331E-05
       65    -0.31580   0.19240E-05
       65    -0.05260   0.16750E-05
       65     0.21050   0.14718E-05
       65     0.47370   0.13034E-05
       65     0.73680   0.11624E-05
       65     1.00000   0.10406E-05
 
      Z-factor =       0.8992
       66    -4.00000   0.24815E-02
       66    -3.73680   0.40845E-03
       66    -3.47370   0.12531E-03
       66    -3.21050   0.59848E-04
       66    -2.94740   0.31236E-04
       66    -2.68420   0.19671E-04
       66    -2.42110   0.13602E-04
       66    -2.15790   0.99725E-05
       66    -1.89470   0.76280E-05
       66    -1.63160   0.60231E-05
       66    -1.36840   0.48749E-05
       66    -1.10530   0.40254E-05
       66    -0.84210   0.33788E-05
       66    -0.57890   0.28757E-05
       66    -0.31580   0.24769E-05
       66    -0.05260   0.21558E-05
       66     0.21050   0.18941E-05
       66     0.47370   0.16771E-05
       66     0.73680   0.14958E-05
       66     1.00000   0.13383E-05
 
      Z-factor =       1.0052
       67    -4.00000   0.36429E-05
       67    -3.73680   0.36681E-05
       67    -3.47370   0.40181E-05
       67    -3.21050   0.47781E-05
       67    -2.94740   0.62093E-05
       67    -2.68420   0.80917E-05
       67    -2.42110   0.10735E-04
       67    -2.15790   0.15042E-04
       67    -1.89470   0.23140E-04
       67    -1.63160   0.40878E-04
       67    -1.36840   0.90958E-04
       67    -1.10530   0.33991E-03
       67    -0.84210   0.39844E-02
       67    -0.57890   0.34002E-03
       67    -0.31580   0.91295E-04
       67    -0.05260   0.41151E-04
       67     0.21050   0.23106E-04
       67     0.47370   0.14806E-04
       67     0.73680   0.10292E-04
       67     1.00000   0.75644E-05
 
      Z-factor =       1.0424
       68    -4.00000   0.27127E-04
       68    -3.73680   0.39747E-04
       68    -3.47370   0.68882E-04
       68    -3.21050   0.14910E-03
       68    -2.94740   0.50438E-03
       68    -2.68420   0.25285E-02
       68    -2.42110   0.50471E-03
       68    -2.15790   0.14903E-03
       68    -1.89470   0.68638E-04
       68    -1.63160   0.38898E-04
       68    -1.36840   0.25000E-04
       68    -1.10530   0.17407E-04
       68    -0.84210   0.12807E-04
       68    -0.57890   0.98113E-05
       68    -0.31580   0.77538E-05
       68    -0.05260   0.62830E-05
       68     0.21050   0.51946E-05
       68     0.47370   0.43658E-05
       68     0.73680   0.37203E-05
       68     1.00000   0.32077E-05
 
      Z-factor =       0.8992
       69    -4.00000   0.24815E-02
       69    -3.73680   0.40860E-03
       69    -3.47370   0.12553E-03
       69    -3.21050   0.59999E-04
       69    -2.94740   0.31268E-04
       69    -2.68420   0.19684E-04
       69    -2.42110   0.13608E-04
       69    -2.15790   0.99768E-05
       69    -1.89470   0.76309E-05
       69    -1.63160   0.60253E-05
       69    -1.36840   0.48765E-05
       69    -1.10530   0.40266E-05
       69    -0.84210   0.33797E-05
       69    -0.57890   0.28763E-05
       69    -0.31580   0.24774E-05
       69    -0.05260   0.21561E-05
       69     0.21050   0.18944E-05
       69     0.47370   0.16774E-05
       69     0.73680   0.14961E-05
       69     1.00000   0.13386E-05
 
      Z-factor =       0.9121
       70    -4.00000   0.28994E-02
       70    -3.73680   0.37490E-03
       70    -3.47370   0.11240E-03
       70    -3.21050   0.53335E-04
       70    -2.94740   0.27380E-04
       70    -2.68420   0.17259E-04
       70    -2.42110   0.11936E-04
       70    -2.15790   0.87521E-05
       70    -1.89470   0.66948E-05
       70    -1.63160   0.52865E-05
       70    -1.36840   0.42790E-05
       70    -1.10530   0.35337E-05
       70    -0.84210   0.29665E-05
       70    -0.57890   0.25252E-05
       70    -0.31580   0.21754E-05
       70    -0.05260   0.18936E-05
       70     0.21050   0.16638E-05
       70     0.47370   0.14733E-05
       70     0.73680   0.13140E-05
       70     1.00000   0.11760E-05
 
      Z-factor =       0.8980
       71    -4.00000   0.24582E-02
       71    -3.73680   0.41006E-03
       71    -3.47370   0.12598E-03
       71    -3.21050   0.60178E-04
       71    -2.94740   0.31446E-04
       71    -2.68420   0.19804E-04
       71    -2.42110   0.13694E-04
       71    -2.15790   0.10040E-04
       71    -1.89470   0.76798E-05
       71    -1.63160   0.60640E-05
       71    -1.36840   0.49080E-05
       71    -1.10530   0.40527E-05
       71    -0.84210   0.34018E-05
       71    -0.57890   0.28952E-05
       71    -0.31580   0.24937E-05
       71    -0.05260   0.21704E-05
       71     0.21050   0.19070E-05
       71     0.47370   0.16885E-05
       71     0.73680   0.15059E-05
       71     1.00000   0.13474E-05
 
      Z-factor =       1.0426
       72    -4.00000   0.27245E-04
       72    -3.73680   0.39912E-04
       72    -3.47370   0.69157E-04
       72    -3.21050   0.14965E-03
       72    -2.94740   0.50568E-03
       72    -2.68420   0.25190E-02
       72    -2.42110   0.50600E-03
       72    -2.15790   0.14958E-03
       72    -1.89470   0.68909E-04
       72    -1.63160   0.39056E-04
       72    -1.36840   0.25102E-04
       72    -1.10530   0.17479E-04
       72    -0.84210   0.12859E-04
       72    -0.57890   0.98518E-05
       72    -0.31580   0.77858E-05
       72    -0.05260   0.63090E-05
       72     0.21050   0.52161E-05
       72     0.47370   0.43839E-05
       72     0.73680   0.37357E-05
       72     1.00000   0.32210E-05
 
      Z-factor =       1.0252
       73    -4.00000   0.14819E-04
       73    -3.73680   0.17904E-04
       73    -3.47370   0.23997E-04
       73    -3.21050   0.35859E-04
       73    -2.94740   0.62462E-04
       73    -2.68420   0.13601E-03
       73    -2.42110   0.47112E-03
       73    -2.15790   0.26987E-02
       73    -1.89470   0.47109E-03
       73    -1.63160   0.13568E-03
       73    -1.36840   0.61998E-04
       73    -1.10530   0.35214E-04
       73    -0.84210   0.22634E-04
       73    -0.57890   0.15756E-04
       73    -0.31580   0.11593E-04
       73    -0.05260   0.88838E-05
       73     0.21050   0.70242E-05
       73     0.47370   0.56919E-05
       73     0.73680   0.47055E-05
       73     1.00000   0.39545E-05
 
      Z-factor =       1.0426
       74    -4.00000   0.27245E-04
       74    -3.73680   0.39912E-04
       74    -3.47370   0.69157E-04
       74    -3.21050   0.14965E-03
       74    -2.94740   0.50567E-03
       74    -2.68420   0.25190E-02
       74    -2.42110   0.50600E-03
       74    -2.15790   0.14958E-03
       74    -1.89470   0.68909E-04
       74    -1.63160   0.39056E-04
       74    -1.36840   0.25102E-04
       74    -1.10530   0.17479E-04
       74    -0.84210   0.12859E-04
       74    -0.57890   0.98518E-05
       74    -0.31580   0.77858E-05
       74    -0.05260   0.63090E-05
       74     0.21050   0.52161E-05
       74     0.47370   0.43839E-05
       74     0.73680   0.37357E-05
       74     1.00000   0.32210E-05
 
      Z-factor =       0.9115
       75    -4.00000   0.29938E-02
       75    -3.73680   0.36592E-03
       75    -3.47370   0.10954E-03
       75    -3.21050   0.51982E-04
       75    -2.94740   0.26497E-04
       75    -2.68420   0.16697E-04
       75    -2.42110   0.11546E-04
       75    -2.15790   0.84651E-05
       75    -1.89470   0.64750E-05
       75    -1.63160   0.51128E-05
       75    -1.36840   0.41383E-05
       75    -1.10530   0.34174E-05
       75    -0.84210   0.28688E-05
       75    -0.57890   0.24419E-05
       75    -0.31580   0.21036E-05
       75    -0.05260   0.18310E-05
       75     0.21050   0.16089E-05
       75     0.47370   0.14246E-05
       75     0.73680   0.12706E-05
       75     1.00000   0.11375E-05
 
      Z-factor =       0.9180
       76    -4.00000   0.33130E-02
       76    -3.73680   0.34247E-03
       76    -3.47370   0.10123E-03
       76    -3.21050   0.47844E-04
       76    -2.94740   0.24176E-04
       76    -2.68420   0.15254E-04
       76    -2.42110   0.10553E-04
       76    -2.15790   0.77384E-05
       76    -1.89470   0.59197E-05
       76    -1.63160   0.46747E-05
       76    -1.36840   0.37840E-05
       76    -1.10530   0.31252E-05
       76    -0.84210   0.26238E-05
       76    -0.57890   0.22337E-05
       76    -0.31580   0.19245E-05
       76    -0.05260   0.16753E-05
       76     0.21050   0.14721E-05
       76     0.47370   0.13036E-05
       76     0.73680   0.11626E-05
       76     1.00000   0.10409E-05
 
      Z-factor =       0.9039
       77    -4.00000   0.27119E-02
       77    -3.73680   0.38745E-03
       77    -3.47370   0.11713E-03
       77    -3.21050   0.55703E-04
       77    -2.94740   0.28799E-04
       77    -2.68420   0.18147E-04
       77    -2.42110   0.12549E-04
       77    -2.15790   0.92015E-05
       77    -1.89470   0.70384E-05
       77    -1.63160   0.55578E-05
       77    -1.36840   0.44984E-05
       77    -1.10530   0.37148E-05
       77    -0.84210   0.31184E-05
       77    -0.57890   0.26543E-05
       77    -0.31580   0.22864E-05
       77    -0.05260   0.19902E-05
       77     0.21050   0.17487E-05
       77     0.47370   0.15484E-05
       77     0.73680   0.13809E-05
       77     1.00000   0.12358E-05
 
      Z-factor =       1.0414
       78    -4.00000   0.26100E-04
       78    -3.73680   0.38272E-04
       78    -3.47370   0.66410E-04
       78    -3.21050   0.14411E-03
       78    -2.94740   0.49249E-03
       78    -2.68420   0.26224E-02
       78    -2.42110   0.49282E-03
       78    -2.15790   0.14406E-03
       78    -1.89470   0.66201E-04
       78    -1.63160   0.37474E-04
       78    -1.36840   0.24075E-04
       78    -1.10530   0.16760E-04
       78    -0.84210   0.12329E-04
       78    -0.57890   0.94445E-05
       78    -0.31580   0.74637E-05
       78    -0.05260   0.60477E-05
       78     0.21050   0.50000E-05
       78     0.47370   0.42021E-05
       78     0.73680   0.35807E-05
       78     1.00000   0.30874E-05
 
      Z-factor =       1.0438
       79    -4.00000   0.27695E-04
       79    -3.73680   0.40582E-04
       79    -3.47370   0.70289E-04
       79    -3.21050   0.15195E-03
       79    -2.94740   0.51111E-03
       79    -2.68420   0.24822E-02
       79    -2.42110   0.51143E-03
       79    -2.15790   0.15189E-03
       79    -1.89470   0.70054E-04
       79    -1.63160   0.39718E-04
       79    -1.36840   0.25531E-04
       79    -1.10530   0.17779E-04
       79    -0.84210   0.13081E-04
       79    -0.57890   0.10022E-04
       79    -0.31580   0.79201E-05
       79    -0.05260   0.64180E-05
       79     0.21050   0.53063E-05
       79     0.47370   0.44596E-05
       79     0.73680   0.38003E-05
       79     1.00000   0.32767E-05
 
      Z-factor =       1.0046
       80    -4.00000   0.37683E-05
       80    -3.73680   0.37786E-05
       80    -3.47370   0.41159E-05
       80    -3.21050   0.48507E-05
       80    -2.94740   0.63185E-05
       80    -2.68420   0.82457E-05
       80    -2.42110   0.10937E-04
       80    -2.15790   0.15302E-04
       80    -1.89470   0.23505E-04
       80    -1.63160   0.41489E-04
       80    -1.36840   0.92284E-04
       80    -1.10530   0.34422E-03
       80    -0.84210   0.39191E-02
       80    -0.57890   0.34433E-03
       80    -0.31580   0.92606E-04
       80    -0.05260   0.41743E-04
       80     0.21050   0.23457E-04
       80     0.47370   0.15033E-04
       80     0.73680   0.10450E-04
       80     1.00000   0.76809E-05
 
      Z-factor =       1.0438
       81    -4.00000   0.27695E-04
       81    -3.73680   0.40582E-04
       81    -3.47370   0.70289E-04
       81    -3.21050   0.15195E-03
       81    -2.94740   0.51110E-03
       81    -2.68420   0.24822E-02
       81    -2.42110   0.51143E-03
       81    -2.15790   0.15189E-03
       81    -1.89470   0.70054E-04
       81    -1.63160   0.39718E-04
       81    -1.36840   0.25531E-04
       81    -1.10530   0.17779E-04
       81    -0.84210   0.13081E-04
       81    -0.57890   0.10022E-04
       81    -0.31580   0.79201E-05
       81    -0.05260   0.64179E-05
       81     0.21050   0.53063E-05
       81     0.47370   0.44596E-05
       81     0.73680   0.38003E-05
       81     1.00000   0.32767E-05
 
      Z-factor =       0.8980
       82    -4.00000   0.24582E-02
       82    -3.73680   0.41023E-03
       82    -3.47370   0.12622E-03
       82    -3.21050   0.60352E-04
       82    -2.94740   0.31484E-04
       82    -2.68420   0.19819E-04
       82    -2.42110   0.13702E-04
       82    -2.15790   0.10045E-04
       82    -1.89470   0.76833E-05
       82    -1.63160   0.60666E-05
       82    -1.36840   0.49099E-05
       82    -1.10530   0.40542E-05
       82    -0.84210   0.34029E-05
       82    -0.57890   0.28960E-05
       82    -0.31580   0.24943E-05
       82    -0.05260   0.21708E-05
       82     0.21050   0.19073E-05
       82     0.47370   0.16888E-05
       82     0.73680   0.15062E-05
       82     1.00000   0.13477E-05
 
      Z-factor =       0.9116
       83    -4.00000   0.28760E-02
       83    -3.73680   0.37718E-03
       83    -3.47370   0.11361E-03
       83    -3.21050   0.54016E-04
       83    -2.94740   0.27642E-04
       83    -2.68420   0.17408E-04
       83    -2.42110   0.12036E-04
       83    -2.15790   0.88236E-05
       83    -1.89470   0.67489E-05
       83    -1.63160   0.53289E-05
       83    -1.36840   0.43131E-05
       83    -1.10530   0.35616E-05
       83    -0.84210   0.29898E-05
       83    -0.57890   0.25448E-05
       83    -0.31580   0.21920E-05
       83    -0.05260   0.19080E-05
       83     0.21050   0.16764E-05
       83     0.47370   0.14844E-05
       83     0.73680   0.13239E-05
       83     1.00000   0.11851E-05
 
      Z-factor =       0.8980
       84    -4.00000   0.24582E-02
       84    -3.73680   0.41008E-03
       84    -3.47370   0.12600E-03
       84    -3.21050   0.60197E-04
       84    -2.94740   0.31450E-04
       84    -2.68420   0.19806E-04
       84    -2.42110   0.13695E-04
       84    -2.15790   0.10041E-04
       84    -1.89470   0.76802E-05
       84    -1.63160   0.60643E-05
       84    -1.36840   0.49082E-05
       84    -1.10530   0.40529E-05
       84    -0.84210   0.34019E-05
       84    -0.57890   0.28953E-05
       84    -0.31580   0.24938E-05
       84    -0.05260   0.21704E-05
       84     0.21050   0.19070E-05
       84     0.47370   0.16886E-05
       84     0.73680   0.15060E-05
       84     1.00000   0.13474E-05
 
      Z-factor =       0.9119
       85    -4.00000   0.30186E-02
       85    -3.73680   0.36357E-03
       85    -3.47370   0.10836E-03
       85    -3.21050   0.51320E-04
       85    -2.94740   0.26240E-04
       85    -2.68420   0.16548E-04
       85    -2.42110   0.11446E-04
       85    -2.15790   0.83937E-05
       85    -1.89470   0.64209E-05
       85    -1.63160   0.50703E-05
       85    -1.36840   0.41041E-05
       85    -1.10530   0.33894E-05
       85    -0.84210   0.28455E-05
       85    -0.57890   0.24223E-05
       85    -0.31580   0.20868E-05
       85    -0.05260   0.18166E-05
       85     0.21050   0.15962E-05
       85     0.47370   0.14135E-05
       85     0.73680   0.12606E-05
       85     1.00000   0.11283E-05
 
      Z-factor =       1.0426
       86    -4.00000   0.27245E-04
       86    -3.73680   0.39912E-04
       86    -3.47370   0.69157E-04
       86    -3.21050   0.14965E-03
       86    -2.94740   0.50567E-03
       86    -2.68420   0.25190E-02
       86    -2.42110   0.50600E-03
       86    -2.15790   0.14958E-03
       86    -1.89470   0.68909E-04
       86    -1.63160   0.39056E-04
       86    -1.36840   0.25102E-04
       86    -1.10530   0.17479E-04
       86    -0.84210   0.12859E-04
       86    -0.57890   0.98518E-05
       86    -0.31580   0.77858E-05
       86    -0.05260   0.63090E-05
       86     0.21050   0.52161E-05
       86     0.47370   0.43839E-05
       86     0.73680   0.37357E-05
       86     1.00000   0.32210E-05
 
      Z-factor =       1.0253
       87    -4.00000   0.14914E-04
       87    -3.73680   0.18009E-04
       87    -3.47370   0.24133E-04
       87    -3.21050   0.36061E-04
       87    -2.94740   0.62804E-04
       87    -2.68420   0.13671E-03
       87    -2.42110   0.47289E-03
       87    -2.15790   0.26834E-02
       87    -1.89470   0.47286E-03
       87    -1.63160   0.13638E-03
       87    -1.36840   0.62343E-04
       87    -1.10530   0.35412E-04
       87    -0.84210   0.22763E-04
       87    -0.57890   0.15846E-04
       87    -0.31580   0.11660E-04
       87    -0.05260   0.89346E-05
       87     0.21050   0.70645E-05
       87     0.47370   0.57246E-05
       87     0.73680   0.47325E-05
       87     1.00000   0.39772E-05
 
      Z-factor =       1.0414
       88    -4.00000   0.26100E-04
       88    -3.73680   0.38272E-04
       88    -3.47370   0.66410E-04
       88    -3.21050   0.14411E-03
       88    -2.94740   0.49249E-03
       88    -2.68420   0.26224E-02
       88    -2.42110   0.49282E-03
       88    -2.15790   0.14406E-03
       88    -1.89470   0.66201E-04
       88    -1.63160   0.37474E-04
       88    -1.36840   0.24075E-04
       88    -1.10530   0.16760E-04
       88    -0.84210   0.12329E-04
       88    -0.57890   0.94445E-05
       88    -0.31580   0.74637E-05
       88    -0.05260   0.60477E-05
       88     0.21050   0.50000E-05
       88     0.47370   0.42021E-05
       88     0.73680   0.35807E-05
       88     1.00000   0.30874E-05
 
      Z-factor =       0.9039
       89    -4.00000   0.27120E-02
       89    -3.73680   0.38786E-03
       89    -3.47370   0.11772E-03
       89    -3.21050   0.56108E-04
       89    -2.94740   0.28878E-04
       89    -2.68420   0.18178E-04
       89    -2.42110   0.12566E-04
       89    -2.15790   0.92122E-05
       89    -1.89470   0.70460E-05
       89    -1.63160   0.55633E-05
       89    -1.36840   0.45026E-05
       89    -1.10530   0.37180E-05
       89    -0.84210   0.31208E-05
       89    -0.57890   0.26561E-05
       89    -0.31580   0.22878E-05
       89    -0.05260   0.19912E-05
       89     0.21050   0.17495E-05
       89     0.47370   0.15491E-05
       89     0.73680   0.13816E-05
       89     1.00000   0.12366E-05
 
      Z-factor =       0.9180
       90    -4.00000   0.33131E-02
       90    -3.73680   0.34259E-03
       90    -3.47370   0.10141E-03
       90    -3.21050   0.47959E-04
       90    -2.94740   0.24193E-04
       90    -2.68420   0.15261E-04
       90    -2.42110   0.10556E-04
       90    -2.15790   0.77405E-05
       90    -1.89470   0.59212E-05
       90    -1.63160   0.46757E-05
       90    -1.36840   0.37848E-05
       90    -1.10530   0.31258E-05
       90    -0.84210   0.26243E-05
       90    -0.57890   0.22340E-05
       90    -0.31580   0.19247E-05
       90    -0.05260   0.16755E-05
       90     0.21050   0.14722E-05
       90     0.47370   0.13037E-05
       90     0.73680   0.11627E-05
       90     1.00000   0.10411E-05
 
      Z-factor =       0.9180
       91    -4.00000   0.33783E-02
       91    -3.73680   0.33724E-03
       91    -3.47370   0.99496E-04
       91    -3.21050   0.46993E-04
       91    -2.94740   0.23694E-04
       91    -2.68420   0.14954E-04
       91    -2.42110   0.10345E-04
       91    -2.15790   0.75865E-05
       91    -1.89470   0.58036E-05
       91    -1.63160   0.45830E-05
       91    -1.36840   0.37098E-05
       91    -1.10530   0.30640E-05
       91    -0.84210   0.25725E-05
       91    -0.57890   0.21900E-05
       91    -0.31580   0.18869E-05
       91    -0.05260   0.16426E-05
       91     0.21050   0.14434E-05
       91     0.47370   0.12782E-05
       91     0.73680   0.11399E-05
       91     1.00000   0.10206E-05
 
      Z-factor =       0.8992
       92    -4.00000   0.24815E-02
       92    -3.73680   0.40862E-03
       92    -3.47370   0.12556E-03
       92    -3.21050   0.60018E-04
       92    -2.94740   0.31272E-04
       92    -2.68420   0.19686E-04
       92    -2.42110   0.13609E-04
       92    -2.15790   0.99774E-05
       92    -1.89470   0.76314E-05
       92    -1.63160   0.60256E-05
       92    -1.36840   0.48767E-05
       92    -1.10530   0.40268E-05
       92    -0.84210   0.33799E-05
       92    -0.57890   0.28764E-05
       92    -0.31580   0.24775E-05
       92    -0.05260   0.21562E-05
       92     0.21050   0.18945E-05
       92     0.47370   0.16774E-05
       92     0.73680   0.14961E-05
       92     1.00000   0.13387E-05
 
      Z-factor =       1.0410
       93    -4.00000   0.25657E-04
       93    -3.73680   0.37655E-04
       93    -3.47370   0.65381E-04
       93    -3.21050   0.14202E-03
       93    -2.94740   0.48737E-03
       93    -2.68420   0.26633E-02
       93    -2.42110   0.48770E-03
       93    -2.15790   0.14199E-03
       93    -1.89470   0.65196E-04
       93    -1.63160   0.36883E-04
       93    -1.36840   0.23691E-04
       93    -1.10530   0.16491E-04
       93    -0.84210   0.12130E-04
       93    -0.57890   0.92925E-05
       93    -0.31580   0.73435E-05
       93    -0.05260   0.59502E-05
       93     0.21050   0.49193E-05
       93     0.47370   0.41342E-05
       93     0.73680   0.35229E-05
       93     1.00000   0.30375E-05
 
      Z-factor =       0.8937
       94    -4.00000   0.24834E-02
       94    -3.73680   0.40447E-03
       94    -3.47370   0.12436E-03
       94    -3.21050   0.59488E-04
       94    -2.94740   0.30909E-04
       94    -2.68420   0.19448E-04
       94    -2.42110   0.13443E-04
       94    -2.15790   0.98543E-05
       94    -1.89470   0.75369E-05
       94    -1.63160   0.59508E-05
       94    -1.36840   0.48161E-05
       94    -1.10530   0.39765E-05
       94    -0.84210   0.33376E-05
       94    -0.57890   0.28403E-05
       94    -0.31580   0.24462E-05
       94    -0.05260   0.21289E-05
       94     0.21050   0.18705E-05
       94     0.47370   0.16561E-05
       94     0.73680   0.14769E-05
       94     1.00000   0.13217E-05
 
      Z-factor =       0.9116
       95    -4.00000   0.28760E-02
       95    -3.73680   0.37712E-03
       95    -3.47370   0.11353E-03
       95    -3.21050   0.53962E-04
       95    -2.94740   0.27632E-04
       95    -2.68420   0.17404E-04
       95    -2.42110   0.12033E-04
       95    -2.15790   0.88223E-05
       95    -1.89470   0.67480E-05
       95    -1.63160   0.53282E-05
       95    -1.36840   0.43125E-05
       95    -1.10530   0.35612E-05
       95    -0.84210   0.29895E-05
       95    -0.57890   0.25445E-05
       95    -0.31580   0.21919E-05
       95    -0.05260   0.19078E-05
       95     0.21050   0.16763E-05
       95     0.47370   0.14843E-05
       95     0.73680   0.13239E-05
       95     1.00000   0.11850E-05
 
      Z-factor =       0.9290
       96    -4.00000   0.37052E-02
       96    -3.73680   0.32015E-03
       96    -3.47370   0.94218E-04
       96    -3.21050   0.44497E-04
       96    -2.94740   0.22105E-04
       96    -2.68420   0.13952E-04
       96    -2.42110   0.96519E-05
       96    -2.15790   0.70778E-05
       96    -1.89470   0.54144E-05
       96    -1.63160   0.42756E-05
       96    -1.36840   0.34610E-05
       96    -1.10530   0.28585E-05
       96    -0.84210   0.24000E-05
       96    -0.57890   0.20433E-05
       96    -0.31580   0.17605E-05
       96    -0.05260   0.15326E-05
       96     0.21050   0.13467E-05
       96     0.47370   0.11926E-05
       96     0.73680   0.10636E-05
       96     1.00000   0.95255E-06
 
      Z-factor =       0.9032
       97    -4.00000   0.27573E-02
       97    -3.73680   0.38262E-03
       97    -3.47370   0.11567E-03
       97    -3.21050   0.55048E-04
       97    -2.94740   0.28315E-04
       97    -2.68420   0.17832E-04
       97    -2.42110   0.12329E-04
       97    -2.15790   0.90389E-05
       97    -1.89470   0.69137E-05
       97    -1.63160   0.54590E-05
       97    -1.36840   0.44184E-05
       97    -1.10530   0.36485E-05
       97    -0.84210   0.30626E-05
       97    -0.57890   0.26067E-05
       97    -0.31580   0.22453E-05
       97    -0.05260   0.19543E-05
       97     0.21050   0.17171E-05
       97     0.47370   0.15204E-05
       97     0.73680   0.13561E-05
       97     1.00000   0.12138E-05
 
      Z-factor =       0.9121
       98    -4.00000   0.29375E-02
       98    -3.73680   0.37157E-03
       98    -3.47370   0.11155E-03
       98    -3.21050   0.52984E-04
       98    -2.94740   0.27061E-04
       98    -2.68420   0.17048E-04
       98    -2.42110   0.11787E-04
       98    -2.15790   0.86420E-05
       98    -1.89470   0.66102E-05
       98    -1.63160   0.52195E-05
       98    -1.36840   0.42246E-05
       98    -1.10530   0.34886E-05
       98    -0.84210   0.29285E-05
       98    -0.57890   0.24927E-05
       98    -0.31580   0.21473E-05
       98    -0.05260   0.18690E-05
       98     0.21050   0.16422E-05
       98     0.47370   0.14541E-05
       98     0.73680   0.12970E-05
       98     1.00000   0.11610E-05
 
      Z-factor =       0.9032
       99    -4.00000   0.27573E-02
       99    -3.73680   0.38261E-03
       99    -3.47370   0.11566E-03
       99    -3.21050   0.55038E-04
       99    -2.94740   0.28313E-04
       99    -2.68420   0.17831E-04
       99    -2.42110   0.12329E-04
       99    -2.15790   0.90386E-05
       99    -1.89470   0.69135E-05
       99    -1.63160   0.54589E-05
       99    -1.36840   0.44182E-05
       99    -1.10530   0.36484E-05
       99    -0.84210   0.30626E-05
       99    -0.57890   0.26066E-05
       99    -0.31580   0.22453E-05
       99    -0.05260   0.19543E-05
       99     0.21050   0.17171E-05
       99     0.47370   0.15204E-05
       99     0.73680   0.13561E-05
       99     1.00000   0.12137E-05
[...]
      191    -0.84210   0.33793E-05
      191    -0.57890   0.28760E-05
      191    -0.31580   0.24772E-05
      191    -0.05260   0.21560E-05
      191     0.21050   0.18943E-05
      191     0.47370   0.16773E-05
      191     0.73680   0.14959E-05
      191     1.00000   0.13385E-05
 
      Z-factor =       1.0424
      192    -4.00000   0.27127E-04
      192    -3.73680   0.39747E-04
      192    -3.47370   0.68882E-04
      192    -3.21050   0.14910E-03
      192    -2.94740   0.50438E-03
      192    -2.68420   0.25285E-02
      192    -2.42110   0.50471E-03
      192    -2.15790   0.14903E-03
      192    -1.89470   0.68638E-04
      192    -1.63160   0.38898E-04
      192    -1.36840   0.25000E-04
      192    -1.10530   0.17407E-04
      192    -0.84210   0.12807E-04
      192    -0.57890   0.98113E-05
      192    -0.31580   0.77538E-05
      192    -0.05260   0.62830E-05
      192     0.21050   0.51946E-05
      192     0.47370   0.43658E-05
      192     0.73680   0.37203E-05
      192     1.00000   0.32077E-05
 
      Z-factor =       1.0410
      193    -4.00000   0.25645E-04
      193    -3.73680   0.37619E-04
      193    -3.47370   0.65312E-04
      193    -3.21050   0.14187E-03
      193    -2.94740   0.48699E-03
      193    -2.68420   0.26666E-02
      193    -2.42110   0.48732E-03
      193    -2.15790   0.14183E-03
      193    -1.89470   0.65118E-04
      193    -1.63160   0.36839E-04
      193    -1.36840   0.23662E-04
      193    -1.10530   0.16471E-04
      193    -0.84210   0.12116E-04
      193    -0.57890   0.92811E-05
      193    -0.31580   0.73344E-05
      193    -0.05260   0.59429E-05
      193     0.21050   0.49132E-05
      193     0.47370   0.41291E-05
      193     0.73680   0.35185E-05
      193     1.00000   0.30338E-05
 
      Z-factor =       0.8992
      194    -4.00000   0.24816E-02
      194    -3.73680   0.40886E-03
      194    -3.47370   0.12591E-03
      194    -3.21050   0.60260E-04
      194    -2.94740   0.31326E-04
      194    -2.68420   0.19708E-04
      194    -2.42110   0.13622E-04
      194    -2.15790   0.99854E-05
      194    -1.89470   0.76371E-05
      194    -1.63160   0.60299E-05
      194    -1.36840   0.48800E-05
      194    -1.10530   0.40293E-05
      194    -0.84210   0.33819E-05
      194    -0.57890   0.28780E-05
      194    -0.31580   0.24786E-05
      194    -0.05260   0.21571E-05
      194     0.21050   0.18952E-05
      194     0.47370   0.16780E-05
      194     0.73680   0.14965E-05
      194     1.00000   0.13392E-05
 
      Z-factor =       0.9180
      195    -4.00000   0.33131E-02
      195    -3.73680   0.34274E-03
      195    -3.47370   0.10162E-03
      195    -3.21050   0.48099E-04
      195    -2.94740   0.24213E-04
      195    -2.68420   0.15269E-04
      195    -2.42110   0.10560E-04
      195    -2.15790   0.77431E-05
      195    -1.89470   0.59230E-05
      195    -1.63160   0.46771E-05
      195    -1.36840   0.37858E-05
      195    -1.10530   0.31265E-05
      195    -0.84210   0.26248E-05
      195    -0.57890   0.22344E-05
      195    -0.31580   0.19250E-05
      195    -0.05260   0.16757E-05
      195     0.21050   0.14724E-05
      195     0.47370   0.13038E-05
      195     0.73680   0.11629E-05
      195     1.00000   0.10412E-05
 
      Z-factor =       0.9290
      196    -4.00000   0.37051E-02
      196    -3.73680   0.32001E-03
      196    -3.47370   0.94023E-04
      196    -3.21050   0.44371E-04
      196    -2.94740   0.22089E-04
      196    -2.68420   0.13946E-04
      196    -2.42110   0.96487E-05
      196    -2.15790   0.70759E-05
      196    -1.89470   0.54130E-05
      196    -1.63160   0.42746E-05
      196    -1.36840   0.34603E-05
      196    -1.10530   0.28580E-05
      196    -0.84210   0.23996E-05
      196    -0.57890   0.20430E-05
      196    -0.31580   0.17603E-05
      196    -0.05260   0.15324E-05
      196     0.21050   0.13466E-05
      196     0.47370   0.11925E-05
      196     0.73680   0.10635E-05
      196     1.00000   0.95240E-06
 
      Z-factor =       0.9121
      197    -4.00000   0.29375E-02
      197    -3.73680   0.37147E-03
      197    -3.47370   0.11140E-03
      197    -3.21050   0.52885E-04
      197    -2.94740   0.27044E-04
      197    -2.68420   0.17041E-04
      197    -2.42110   0.11784E-04
      197    -2.15790   0.86398E-05
      197    -1.89470   0.66087E-05
      197    -1.63160   0.52183E-05
      197    -1.36840   0.42237E-05
      197    -1.10530   0.34880E-05
      197    -0.84210   0.29281E-05
      197    -0.57890   0.24923E-05
      197    -0.31580   0.21470E-05
      197    -0.05260   0.18688E-05
      197     0.21050   0.16421E-05
      197     0.47370   0.14540E-05
      197     0.73680   0.12968E-05
      197     1.00000   0.11608E-05
 
      Z-factor =       0.8954
      198    -4.00000   0.25399E-02
      198    -3.73680   0.39941E-03
      198    -3.47370   0.12220E-03
      198    -3.21050   0.58351E-04
      198    -2.94740   0.30282E-04
      198    -2.68420   0.19062E-04
      198    -2.42110   0.13178E-04
      198    -2.15790   0.96608E-05
      198    -1.89470   0.73892E-05
      198    -1.63160   0.58343E-05
      198    -1.36840   0.47219E-05
      198    -1.10530   0.38990E-05
      198    -0.84210   0.32726E-05
      198    -0.57890   0.27852E-05
      198    -0.31580   0.23989E-05
      198    -0.05260   0.20878E-05
      198     0.21050   0.18344E-05
      198     0.47370   0.16242E-05
      198     0.73680   0.14486E-05
      198     1.00000   0.12963E-05
 
      Z-factor =       0.8954
      199    -4.00000   0.25399E-02
      199    -3.73680   0.39954E-03
      199    -3.47370   0.12239E-03
      199    -3.21050   0.58485E-04
      199    -2.94740   0.30311E-04
      199    -2.68420   0.19074E-04
      199    -2.42110   0.13184E-04
      199    -2.15790   0.96651E-05
      199    -1.89470   0.73922E-05
      199    -1.63160   0.58366E-05
      199    -1.36840   0.47237E-05
      199    -1.10530   0.39003E-05
      199    -0.84210   0.32737E-05
      199    -0.57890   0.27860E-05
      199    -0.31580   0.23995E-05
      199    -0.05260   0.20883E-05
      199     0.21050   0.18348E-05
      199     0.47370   0.16245E-05
      199     0.73680   0.14488E-05
      199     1.00000   0.12966E-05
 
      Z-factor =       0.9121
      200    -4.00000   0.29375E-02
      200    -3.73680   0.37168E-03
      200    -3.47370   0.11170E-03
      200    -3.21050   0.53085E-04
      200    -2.94740   0.27079E-04
      200    -2.68420   0.17055E-04
      200    -2.42110   0.11792E-04
      200    -2.15790   0.86446E-05
      200    -1.89470   0.66121E-05
      200    -1.63160   0.52209E-05
      200    -1.36840   0.42256E-05
      200    -1.10530   0.34894E-05
      200    -0.84210   0.29292E-05
      200    -0.57890   0.24932E-05
      200    -0.31580   0.21476E-05
      200    -0.05260   0.18693E-05
      200     0.21050   0.16425E-05
      200     0.47370   0.14543E-05
      200     0.73680   0.12971E-05
      200     1.00000   0.11612E-05
 
      Z-factor =       0.9290
      201    -4.00000   0.37051E-02
      201    -3.73680   0.31998E-03
      201    -3.47370   0.93981E-04
      201    -3.21050   0.44345E-04
      201    -2.94740   0.22085E-04
      201    -2.68420   0.13945E-04
      201    -2.42110   0.96481E-05
      201    -2.15790   0.70755E-05
      201    -1.89470   0.54127E-05
      201    -1.63160   0.42744E-05
      201    -1.36840   0.34601E-05
      201    -1.10530   0.28578E-05
      201    -0.84210   0.23995E-05
      201    -0.57890   0.20429E-05
      201    -0.31580   0.17602E-05
      201    -0.05260   0.15324E-05
      201     0.21050   0.13465E-05
      201     0.47370   0.11925E-05
      201     0.73680   0.10635E-05
      201     1.00000   0.95237E-06
 
      Z-factor =       0.9180
      202    -4.00000   0.33130E-02
      202    -3.73680   0.34249E-03
      202    -3.47370   0.10126E-03
      202    -3.21050   0.47865E-04
      202    -2.94740   0.24179E-04
      202    -2.68420   0.15256E-04
      202    -2.42110   0.10553E-04
      202    -2.15790   0.77388E-05
      202    -1.89470   0.59200E-05
      202    -1.63160   0.46749E-05
      202    -1.36840   0.37841E-05
      202    -1.10530   0.31253E-05
      202    -0.84210   0.26239E-05
      202    -0.57890   0.22338E-05
      202    -0.31580   0.19245E-05
      202    -0.05260   0.16754E-05
      202     0.21050   0.14721E-05
      202     0.47370   0.13036E-05
      202     0.73680   0.11626E-05
      202     1.00000   0.10409E-05
 
      Z-factor =       0.8992
      203    -4.00000   0.24815E-02
      203    -3.73680   0.40845E-03
      203    -3.47370   0.12531E-03
      203    -3.21050   0.59848E-04
      203    -2.94740   0.31236E-04
      203    -2.68420   0.19671E-04
      203    -2.42110   0.13602E-04
      203    -2.15790   0.99725E-05
      203    -1.89470   0.76280E-05
      203    -1.63160   0.60231E-05
      203    -1.36840   0.48749E-05
      203    -1.10530   0.40254E-05
      203    -0.84210   0.33788E-05
      203    -0.57890   0.28757E-05
      203    -0.31580   0.24769E-05
      203    -0.05260   0.21558E-05
      203     0.21050   0.18941E-05
      203     0.47370   0.16771E-05
      203     0.73680   0.14958E-05
      203     1.00000   0.13383E-05
 
      Z-factor =       1.0410
      204    -4.00000   0.25645E-04
      204    -3.73680   0.37619E-04
      204    -3.47370   0.65312E-04
      204    -3.21050   0.14187E-03
      204    -2.94740   0.48699E-03
      204    -2.68420   0.26666E-02
      204    -2.42110   0.48732E-03
      204    -2.15790   0.14183E-03
      204    -1.89470   0.65118E-04
      204    -1.63160   0.36839E-04
      204    -1.36840   0.23662E-04
      204    -1.10530   0.16471E-04
      204    -0.84210   0.12116E-04
      204    -0.57890   0.92811E-05
      204    -0.31580   0.73344E-05
      204    -0.05260   0.59429E-05
      204     0.21050   0.49132E-05
      204     0.47370   0.41291E-05
      204     0.73680   0.35185E-05
      204     1.00000   0.30338E-05
 
      Z-factor =       1.0424
      205    -4.00000   0.27127E-04
      205    -3.73680   0.39747E-04
      205    -3.47370   0.68882E-04
      205    -3.21050   0.14910E-03
      205    -2.94740   0.50438E-03
      205    -2.68420   0.25285E-02
      205    -2.42110   0.50471E-03
      205    -2.15790   0.14903E-03
      205    -1.89470   0.68638E-04
      205    -1.63160   0.38898E-04
      205    -1.36840   0.25000E-04
      205    -1.10530   0.17407E-04
      205    -0.84210   0.12807E-04
      205    -0.57890   0.98113E-05
      205    -0.31580   0.77538E-05
      205    -0.05260   0.62830E-05
      205     0.21050   0.51946E-05
      205     0.47370   0.43658E-05
      205     0.73680   0.37203E-05
      205     1.00000   0.32077E-05
 
      Z-factor =       0.8992
      206    -4.00000   0.24815E-02
      206    -3.73680   0.40860E-03
      206    -3.47370   0.12553E-03
      206    -3.21050   0.59999E-04
      206    -2.94740   0.31268E-04
      206    -2.68420   0.19684E-04
      206    -2.42110   0.13608E-04
      206    -2.15790   0.99768E-05
      206    -1.89470   0.76309E-05
      206    -1.63160   0.60253E-05
      206    -1.36840   0.48765E-05
      206    -1.10530   0.40266E-05
      206    -0.84210   0.33797E-05
      206    -0.57890   0.28763E-05
      206    -0.31580   0.24774E-05
      206    -0.05260   0.21561E-05
      206     0.21050   0.18944E-05
      206     0.47370   0.16774E-05
      206     0.73680   0.14961E-05
      206     1.00000   0.13386E-05
 
      Z-factor =       0.9121
      207    -4.00000   0.28994E-02
      207    -3.73680   0.37490E-03
      207    -3.47370   0.11240E-03
      207    -3.21050   0.53335E-04
      207    -2.94740   0.27380E-04
      207    -2.68420   0.17259E-04
      207    -2.42110   0.11936E-04
      207    -2.15790   0.87521E-05
      207    -1.89470   0.66948E-05
      207    -1.63160   0.52865E-05
      207    -1.36840   0.42790E-05
      207    -1.10530   0.35337E-05
      207    -0.84210   0.29665E-05
      207    -0.57890   0.25252E-05
      207    -0.31580   0.21754E-05
      207    -0.05260   0.18936E-05
      207     0.21050   0.16638E-05
      207     0.47370   0.14733E-05
      207     0.73680   0.13140E-05
      207     1.00000   0.11760E-05
 
      Z-factor =       0.8980
      208    -4.00000   0.24582E-02
      208    -3.73680   0.40999E-03
      208    -3.47370   0.12586E-03
      208    -3.21050   0.60096E-04
      208    -2.94740   0.31428E-04
      208    -2.68420   0.19797E-04
      208    -2.42110   0.13690E-04
      208    -2.15790   0.10038E-04
      208    -1.89470   0.76782E-05
      208    -1.63160   0.60628E-05
      208    -1.36840   0.49071E-05
      208    -1.10530   0.40521E-05
      208    -0.84210   0.34013E-05
      208    -0.57890   0.28948E-05
      208    -0.31580   0.24934E-05
      208    -0.05260   0.21702E-05
      208     0.21050   0.19068E-05
      208     0.47370   0.16884E-05
      208     0.73680   0.15058E-05
      208     1.00000   0.13472E-05
 
      Z-factor =       1.0426
      209    -4.00000   0.27245E-04
      209    -3.73680   0.39912E-04
      209    -3.47370   0.69157E-04
      209    -3.21050   0.14965E-03
      209    -2.94740   0.50568E-03
      209    -2.68420   0.25190E-02
      209    -2.42110   0.50600E-03
      209    -2.15790   0.14958E-03
      209    -1.89470   0.68909E-04
      209    -1.63160   0.39056E-04
      209    -1.36840   0.25102E-04
      209    -1.10530   0.17479E-04
      209    -0.84210   0.12859E-04
      209    -0.57890   0.98518E-05
      209    -0.31580   0.77858E-05
      209    -0.05260   0.63090E-05
      209     0.21050   0.52161E-05
      209     0.47370   0.43839E-05
      209     0.73680   0.37357E-05
      209     1.00000   0.32210E-05
 
      Z-factor =       1.0052
      210    -4.00000   0.36429E-05
      210    -3.73680   0.36681E-05
      210    -3.47370   0.40181E-05
      210    -3.21050   0.47781E-05
      210    -2.94740   0.62093E-05
      210    -2.68420   0.80917E-05
      210    -2.42110   0.10735E-04
      210    -2.15790   0.15042E-04
      210    -1.89470   0.23140E-04
      210    -1.63160   0.40878E-04
      210    -1.36840   0.90958E-04
      210    -1.10530   0.33991E-03
      210    -0.84210   0.39844E-02
      210    -0.57890   0.34002E-03
      210    -0.31580   0.91295E-04
      210    -0.05260   0.41151E-04
      210     0.21050   0.23106E-04
      210     0.47370   0.14806E-04
      210     0.73680   0.10292E-04
      210     1.00000   0.75644E-05
 
      Z-factor =       1.0074
      211    -4.00000   0.82537E-05
      211    -3.73680   0.91062E-05
      211    -3.47370   0.10964E-04
      211    -3.21050   0.14095E-04
      211    -2.94740   0.19629E-04
      211    -2.68420   0.30278E-04
      211    -2.42110   0.53291E-04
      211    -2.15790   0.11718E-03
      211    -1.89470   0.42040E-03
      211    -1.63160   0.30504E-02
      211    -1.36840   0.42015E-03
      211    -1.10530   0.11721E-03
      211    -0.84210   0.53323E-04
      211    -0.57890   0.30160E-04
      211    -0.31580   0.19366E-04
      211    -0.05260   0.13472E-04
      211     0.21050   0.99097E-05
      211     0.47370   0.75923E-05
      211     0.73680   0.60022E-05
      211     1.00000   0.48630E-05
 
      Z-factor =       1.0426
      212    -4.00000   0.27245E-04
      212    -3.73680   0.39912E-04
      212    -3.47370   0.69157E-04
      212    -3.21050   0.14965E-03
      212    -2.94740   0.50568E-03
      212    -2.68420   0.25190E-02
      212    -2.42110   0.50600E-03
      212    -2.15790   0.14958E-03
      212    -1.89470   0.68909E-04
      212    -1.63160   0.39056E-04
      212    -1.36840   0.25102E-04
      212    -1.10530   0.17479E-04
      212    -0.84210   0.12859E-04
      212    -0.57890   0.98518E-05
      212    -0.31580   0.77858E-05
      212    -0.05260   0.63090E-05
      212     0.21050   0.52161E-05
      212     0.47370   0.43839E-05
      212     0.73680   0.37357E-05
      212     1.00000   0.32210E-05
 
      Z-factor =       0.8937
      213    -4.00000   0.24833E-02
      213    -3.73680   0.40393E-03
      213    -3.47370   0.12358E-03
      213    -3.21050   0.58942E-04
      213    -2.94740   0.30791E-04
      213    -2.68420   0.19400E-04
      213    -2.42110   0.13416E-04
      213    -2.15790   0.98377E-05
      213    -1.89470   0.75252E-05
      213    -1.63160   0.59422E-05
      213    -1.36840   0.48095E-05
      213    -1.10530   0.39715E-05
      213    -0.84210   0.33337E-05
      213    -0.57890   0.28374E-05
      213    -0.31580   0.24440E-05
      213    -0.05260   0.21272E-05
      213     0.21050   0.18691E-05
      213     0.47370   0.16550E-05
      213     0.73680   0.14760E-05
      213     1.00000   0.13206E-05
 
      Z-factor =       1.0414
      214    -4.00000   0.26100E-04
      214    -3.73680   0.38272E-04
      214    -3.47370   0.66410E-04
      214    -3.21050   0.14411E-03
      214    -2.94740   0.49249E-03
      214    -2.68420   0.26224E-02
      214    -2.42110   0.49282E-03
      214    -2.15790   0.14406E-03
      214    -1.89470   0.66201E-04
      214    -1.63160   0.37474E-04
      214    -1.36840   0.24075E-04
      214    -1.10530   0.16760E-04
      214    -0.84210   0.12329E-04
      214    -0.57890   0.94445E-05
      214    -0.31580   0.74637E-05
      214    -0.05260   0.60477E-05
      214     0.21050   0.50000E-05
      214     0.47370   0.42021E-05
      214     0.73680   0.35807E-05
      214     1.00000   0.30874E-05
 
      Z-factor =       1.0046
      215    -4.00000   0.37683E-05
      215    -3.73680   0.37786E-05
      215    -3.47370   0.41159E-05
      215    -3.21050   0.48507E-05
      215    -2.94740   0.63185E-05
      215    -2.68420   0.82457E-05
      215    -2.42110   0.10937E-04
      215    -2.15790   0.15302E-04
      215    -1.89470   0.23505E-04
      215    -1.63160   0.41489E-04
      215    -1.36840   0.92284E-04
      215    -1.10530   0.34422E-03
      215    -0.84210   0.39191E-02
      215    -0.57890   0.34433E-03
      215    -0.31580   0.92606E-04
      215    -0.05260   0.41743E-04
      215     0.21050   0.23457E-04
      215     0.47370   0.15033E-04
      215     0.73680   0.10450E-04
      215     1.00000   0.76809E-05
 
      Z-factor =       1.0045
      216    -4.00000   0.38308E-05
      216    -3.73680   0.37754E-05
      216    -3.47370   0.39905E-05
      216    -3.21050   0.43660E-05
      216    -2.94740   0.50059E-05
      216    -2.68420   0.62426E-05
      216    -2.42110   0.80836E-05
      216    -2.15790   0.10914E-04
      216    -1.89470   0.15740E-04
      216    -1.63160   0.24444E-04
      216    -1.36840   0.43266E-04
      216    -1.10530   0.95998E-04
      216    -0.84210   0.35553E-03
      216    -0.57890   0.37686E-02
      216    -0.31580   0.35588E-03
      216    -0.05260   0.96069E-04
      216     0.21050   0.43247E-04
      216     0.47370   0.24371E-04
      216     0.73680   0.15626E-04
      216     1.00000   0.10862E-04
 

     Unfolding on the coarse grid

     INITIALIZATION: 



     Electron-Phonon interpolation



     Total program execution
     EPW          :      0.08s CPU      0.10s WALL

                                                                                          
 Please consider citing:                                                                  
 S. Ponce, E. R. Margine, C. Verdi and F. Giustino, Comput. Phys. Commun. 209, 116 (2016) 
                                                                                          
 In addition, if you used anisotropic Eliashberg superconductivity please cite:           
              E. R. Margine and F. Giustino, Phys. Rev. B 87, 024505 (2013)               
              if you used transport properties (scattering rates, mobility) please cite:  
              S. Ponce, E. R. Margine and F. Giustino, Phys. Rev. B 97, 121201 (2018)     
