                                                                                      
                                       ``:oss/                                        
                           `.+s+.     .+ys--yh+     `./ss+.                           
                          -sh//yy+`   +yy   +yy    -+h+-oyy                           
                          -yh- .oyy/.-sh.   .syo-.:sy-  /yh                           
                 `.-.`    `yh+   -oyyyo.     `/syys:    oys      `.`                  
               `/+ssys+-` `sh+      `                   oys`   .:osyo`                
               -yh- ./syyooyo`                          .sys+/oyo--yh/                
               `yy+    .-:-.                             `-/+/:`  -sh-                
                /yh.                                              oys                 
          ``..---hho---------`   .---------..`      `.-----.`    -hd+---.             
       `./osmNMMMMMMMMMMMMMMMs. +NNMMMMMMMMNNmh+.   yNMMMMMNm-  oNMMMMMNmo++:`        
       +sy--/sdMMMhyyyyyyyNMMh- .oyNMMmyyyyyhNMMm+` -yMMMdyyo:` .oyyNMMNhs+syy`       
       -yy/   /MMM+.`-+/``mMMy-   `mMMh:`````.dMMN:` `MMMy-`-dhhy```mMMy:``+hs        
        -yy+` /MMMo:-mMM+`-oo/.    mMMh:     `dMMN/`  dMMm:`dMMMMy..MMMo-.+yo`        
         .sys`/MMMMNNMMMs-         mMMmyooooymMMNo:   oMMM/sMMMMMM++MMN//oh:          
          `sh+/MMMhyyMMMs- `-`     mMMMMMMMMMNmy+-`   -MMMhMMMsmMMmdMMd/yy+           
    `-/+++oyy-/MMM+.`/hh/.`mNm:`   mMMd+/////:-.`      NMMMMMd/:NMMMMMy:/yyo/:.`      
   +os+//:-..-oMMMo:--:::-/MMMo. .-mMMd+---`           hMMMMN+. oMMMMMo. `-+osyso:`   
   syo     `mNMMMMMNNNNNNNNMMMo.oNNMMMMMNNNN:`         +MMMMs:`  dMMMN/`     ``:syo   
   /yh`     :syyyyyyyyyyyyyyyy+.`+syyyyyyyyo:`         .oyys:`   .oyys:`        +yh   
   -yh-        ````````````````    `````````              ``        ``          oys   
   -+h/------------------------::::::::://////++++++++++++++++++++++///////::::/yd:   
   shdddddddddddddddddddddddddddddhhhhhhhhyyyyyssssssssssssssssyyyyyyyhhhhhhhddddh`   
                                                                                      
  S. Ponce, E. R. Margine, C. Verdi, and F. Giustino,                                 
                                                Comput. Phys. Commun. 209, 116 (2016) 
                                                                                      

     Program EPW v.5.3.1 starts on 26May2021 at 19:21:14 

     This program is part of the open-source Quantum ESPRESSO suite
     for quantum simulation of materials; please cite
         "P. Giannozzi et al., J. Phys.:Condens. Matter 21 395502 (2009);
         "P. Giannozzi et al., J. Phys.:Condens. Matter 29 465901 (2017);
         "P. Giannozzi et al., J. Chem. Phys. 152 154105 (2020);
          URL http://www.quantum-espresso.org", 
     in publications or presentations arising from this work. More details at
     http://www.quantum-espresso.org/quote

     Parallel version (MPI), running on     1 processors

     MPI processes distributed on     1 nodes
     Waiting for input...
     Reading input from standard input

     Reading supplied temperature list.

     Reading xml data from directory:

     ./diam.save/
     file C_3.98148.UPF: wavefunction(s)  3d renormalized

     IMPORTANT: XC functional enforced from input :
     Exchange-correlation= PZ
                           (   1   1   0   0   0   0   0)
     Any further DFT definition will be discarded
     Please, verify this is what you really want


     G-vector sticks info
     --------------------
     sticks:   dense  smooth     PW     G-vecs:    dense   smooth      PW
     Sum         367     367    121                 4645     4645     893

     Using Slab Decomposition

     Reading collected, re-writing distributed wavefunctions

Possibly too few bands at point    1   0.00000   0.00000   0.00000

Possibly too few bands at point    2  -0.33333   0.33333  -0.33333

Possibly too few bands at point    3  -0.66667   0.66667  -0.66667

Possibly too few bands at point    4   0.33333   0.33333   0.33333

Possibly too few bands at point    5   0.00000   0.66667   0.00000

Possibly too few bands at point    6  -0.33333   1.00000  -0.33333

Possibly too few bands at point    7   0.66667   0.66667   0.66667

Possibly too few bands at point    8   0.33333   1.00000   0.33333

Possibly too few bands at point    9   0.00000   1.33333   0.00000

Possibly too few bands at point   10  -0.33333  -0.33333   0.33333

Possibly too few bands at point   11  -0.66667   0.00000   0.00000

Possibly too few bands at point   12  -1.00000   0.33333  -0.33333

Possibly too few bands at point   13   0.00000   0.00000   0.66667

Possibly too few bands at point   14  -0.33333   0.33333   0.33333

Possibly too few bands at point   15  -0.66667   0.66667  -0.00000

Possibly too few bands at point   16   0.33333   0.33333   1.00000

Possibly too few bands at point   17   0.00000   0.66667   0.66667

Possibly too few bands at point   18  -0.33333   1.00000   0.33333

Possibly too few bands at point   19  -0.66667  -0.66667   0.66667

Possibly too few bands at point   20  -1.00000  -0.33333   0.33333

Possibly too few bands at point   21  -1.33333   0.00000   0.00000

Possibly too few bands at point   22  -0.33333  -0.33333   1.00000

Possibly too few bands at point   23  -0.66667  -0.00000   0.66667

Possibly too few bands at point   24  -1.00000   0.33333   0.33333

Possibly too few bands at point   25   0.00000   0.00000   1.33333

Possibly too few bands at point   26  -0.33333   0.33333   1.00000

Possibly too few bands at point   27  -0.66667   0.66667   0.66667

     --                                                                         

     bravais-lattice index     =            2
     lattice parameter (a_0)   =       6.6425  a.u.
     unit-cell volume          =      73.2698 (a.u.)^3
     number of atoms/cell      =            2
     number of atomic types    =            1
     kinetic-energy cut-off    =      60.0000  Ry
     charge density cut-off    =     240.0000  Ry
     Exchange-correlation= PZ
                           (   1   1   0   0   0   0   0)


     celldm(1)=    6.64245  celldm(2)=    0.00000  celldm(3)=    0.00000
     celldm(4)=    0.00000  celldm(5)=    0.00000  celldm(6)=    0.00000

     crystal axes: (cart. coord. in units of a_0)
               a(1) = ( -0.5000  0.0000  0.5000 )  
               a(2) = (  0.0000  0.5000  0.5000 )  
               a(3) = ( -0.5000  0.5000  0.0000 )  

     reciprocal axes: (cart. coord. in units 2 pi/a_0)
               b(1) = ( -1.0000 -1.0000  1.0000 )  
               b(2) = (  1.0000  1.0000  1.0000 )  
               b(3) = ( -1.0000  1.0000 -1.0000 )  


     Atoms inside the unit cell: 

   Cartesian axes

     site n.  atom      mass           positions (a_0 units)
        1        C   12.0108   tau( 1) = (    0.00000    0.00000    0.00000  )
        2        C   12.0108   tau( 2) = (    0.25000    0.25000    0.25000  )

     49 Sym.Ops. (with q -> -q+G )


     G cutoff =  268.2305  (   4645 G-vectors)     FFT grid: ( 24, 24, 24)
     number of k points=   27  gaussian broad. (Ry)=  0.0200     ngauss =   1
                       cart. coord. in units 2pi/a_0
        k(    1) = (   0.0000000   0.0000000   0.0000000), wk =   0.0740741
        k(    2) = (  -0.3333333   0.3333333  -0.3333333), wk =   0.0740741
        k(    3) = (  -0.6666667   0.6666667  -0.6666667), wk =   0.0740741
        k(    4) = (   0.3333333   0.3333333   0.3333333), wk =   0.0740741
        k(    5) = (   0.0000000   0.6666667   0.0000000), wk =   0.0740741
        k(    6) = (  -0.3333333   1.0000000  -0.3333333), wk =   0.0740741
        k(    7) = (   0.6666667   0.6666667   0.6666667), wk =   0.0740741
        k(    8) = (   0.3333333   1.0000000   0.3333333), wk =   0.0740741
        k(    9) = (   0.0000000   1.3333333   0.0000000), wk =   0.0740741
        k(   10) = (  -0.3333333  -0.3333333   0.3333333), wk =   0.0740741
        k(   11) = (  -0.6666667   0.0000000   0.0000000), wk =   0.0740741
        k(   12) = (  -1.0000000   0.3333333  -0.3333333), wk =   0.0740741
        k(   13) = (   0.0000000   0.0000000   0.6666667), wk =   0.0740741
        k(   14) = (  -0.3333333   0.3333333   0.3333333), wk =   0.0740741
        k(   15) = (  -0.6666667   0.6666667  -0.0000000), wk =   0.0740741
        k(   16) = (   0.3333333   0.3333333   1.0000000), wk =   0.0740741
        k(   17) = (   0.0000000   0.6666667   0.6666667), wk =   0.0740741
        k(   18) = (  -0.3333333   1.0000000   0.3333333), wk =   0.0740741
        k(   19) = (  -0.6666667  -0.6666667   0.6666667), wk =   0.0740741
        k(   20) = (  -1.0000000  -0.3333333   0.3333333), wk =   0.0740741
        k(   21) = (  -1.3333333   0.0000000   0.0000000), wk =   0.0740741
        k(   22) = (  -0.3333333  -0.3333333   1.0000000), wk =   0.0740741
        k(   23) = (  -0.6666667  -0.0000000   0.6666667), wk =   0.0740741
        k(   24) = (  -1.0000000   0.3333333   0.3333333), wk =   0.0740741
        k(   25) = (   0.0000000   0.0000000   1.3333333), wk =   0.0740741
        k(   26) = (  -0.3333333   0.3333333   1.0000000), wk =   0.0740741
        k(   27) = (  -0.6666667   0.6666667   0.6666667), wk =   0.0740741

     PseudoPot. # 1 for C  read from file:
     ../../pseudo/C_3.98148.UPF
     MD5 check sum: 8b65adcd36341f53911399f4b6efa59f
     Pseudo is Norm-conserving, Zval =  4.0
     Generated by new atomic code, or converted to UPF format
     Using radial grid of  461 points,  2 beta functions with: 
                l(1) =   0
                l(2) =   1
     EPW          :      0.09s CPU      0.09s WALL

     EPW          :      0.11s CPU      0.11s WALL


     -------------------------------------------------------------------
     Using diam.ukk from disk
     -------------------------------------------------------------------


     Dipole matrix elements calculated

     Symmetries of Bravais lattice:  48
     Symmetries of crystal:          48

     Reading epmatq from .epb files


     The .epb files have been correctly read

     Construct the Wigner-Seitz cell using Wannier centers and atomic positions 
     Number of WS vectors for electrons       79
     Number of WS vectors for phonons       63
     Number of WS vectors for electron-phonon       53
     Maximum number of cores for efficient parallelization      106
 
     Bloch2wane:          1 /         27
     Bloch2wane:          2 /         27
     Bloch2wane:          3 /         27
     Bloch2wane:          4 /         27
     Bloch2wane:          5 /         27
     Bloch2wane:          6 /         27
     Bloch2wane:          7 /         27
     Bloch2wane:          8 /         27
     Bloch2wane:          9 /         27
     Bloch2wane:         10 /         27
     Bloch2wane:         11 /         27
     Bloch2wane:         12 /         27
     Bloch2wane:         13 /         27
     Bloch2wane:         14 /         27
     Bloch2wane:         15 /         27
     Bloch2wane:         16 /         27
     Bloch2wane:         17 /         27
     Bloch2wane:         18 /         27
     Bloch2wane:         19 /         27
     Bloch2wane:         20 /         27
     Bloch2wane:         21 /         27
     Bloch2wane:         22 /         27
     Bloch2wane:         23 /         27
     Bloch2wane:         24 /         27
     Bloch2wane:         25 /         27
     Bloch2wane:         26 /         27
     Bloch2wane:         27 /         27
 
     Bloch2wanp:          1 /         53
     Bloch2wanp:          2 /         53
     Bloch2wanp:          3 /         53
     Bloch2wanp:          4 /         53
     Bloch2wanp:          5 /         53
     Bloch2wanp:          6 /         53
     Bloch2wanp:          7 /         53
     Bloch2wanp:          8 /         53
     Bloch2wanp:          9 /         53
     Bloch2wanp:         10 /         53
     Bloch2wanp:         11 /         53
     Bloch2wanp:         12 /         53
     Bloch2wanp:         13 /         53
     Bloch2wanp:         14 /         53
     Bloch2wanp:         15 /         53
     Bloch2wanp:         16 /         53
     Bloch2wanp:         17 /         53
     Bloch2wanp:         18 /         53
     Bloch2wanp:         19 /         53
     Bloch2wanp:         20 /         53
     Bloch2wanp:         21 /         53
     Bloch2wanp:         22 /         53
     Bloch2wanp:         23 /         53
     Bloch2wanp:         24 /         53
     Bloch2wanp:         25 /         53
     Bloch2wanp:         26 /         53
     Bloch2wanp:         27 /         53
     Bloch2wanp:         28 /         53
     Bloch2wanp:         29 /         53
     Bloch2wanp:         30 /         53
     Bloch2wanp:         31 /         53
     Bloch2wanp:         32 /         53
     Bloch2wanp:         33 /         53
     Bloch2wanp:         34 /         53
     Bloch2wanp:         35 /         53
     Bloch2wanp:         36 /         53
     Bloch2wanp:         37 /         53
     Bloch2wanp:         38 /         53
     Bloch2wanp:         39 /         53
     Bloch2wanp:         40 /         53
     Bloch2wanp:         41 /         53
     Bloch2wanp:         42 /         53
     Bloch2wanp:         43 /         53
     Bloch2wanp:         44 /         53
     Bloch2wanp:         45 /         53
     Bloch2wanp:         46 /         53
     Bloch2wanp:         47 /         53
     Bloch2wanp:         48 /         53
     Bloch2wanp:         49 /         53
     Bloch2wanp:         50 /         53
     Bloch2wanp:         51 /         53
     Bloch2wanp:         52 /         53
     Bloch2wanp:         53 /         53

     Writing Hamiltonian, Dynamical matrix and EP vertex in Wann rep to file

     ===================================================================
     Memory usage:  VmHWM =        26Mb
                   VmPeak =       356Mb
     ===================================================================
     
     Using uniform q-mesh:    6   6   6
     Size of q point mesh for interpolation:        216
     Using uniform k-mesh:    6   6   6
     Size of k point mesh for interpolation:        432
     Max number of k points per pool:              432

     Fermi energy coarse grid =  14.009579 eV

     Fermi energy is calculated from the fine k-mesh: Ef =  13.574362 eV

     Warning: check if difference with Fermi level fine grid makes sense

     ===================================================================

              ibndmin =     1  ebndmin =    -1.180 eV
              ibndmax =     4  ebndmax =    13.891 eV


     Number of ep-matrix elements per pool :        20736 ~=  162.00 Kb (@ 8 bytes/ DP)
      
     A selecq.fmt file was found but re-created because selecqread == .FALSE. 
     Number selected, total            100            100
     Number selected, total            200            200
     We only need to compute      216 q-points
      

     ===================================================================
     Electron (Imaginary) Self-Energy in the Migdal Approximation
     ===================================================================


     Fermi Surface thickness =  15.000000 eV

     Golden Rule strictly enforced with T =   0.025852 eV
     Gaussian Broadening:   1.000000 eV, ngauss=   1
 
     Progression iq (fine) =        100/       216
     Progression iq (fine) =        200/       216
     Average over degenerate eigenstates is performed
     Temperature:  300.000K
     WARNING: only the eigenstates within the Fermi window are meaningful

     ik =       1 coord.:    0.0000000   0.0000000   0.0000000
     -------------------------------------------------------------------
     E(   1 )= -21.5311 eV   Re[Sigma]=     -64.671142 meV Im[Sigma]=       5.282954 meV     Z=       0.992610 lam=       0.007445
     E(   2 )=   0.3164 eV   Re[Sigma]=     143.085125 meV Im[Sigma]=      40.710391 meV     Z=       0.982630 lam=       0.017677
     E(   3 )=   0.3164 eV   Re[Sigma]=     143.085125 meV Im[Sigma]=      40.710391 meV     Z=       0.982630 lam=       0.017677
     E(   4 )=   0.3164 eV   Re[Sigma]=     143.085125 meV Im[Sigma]=      40.710391 meV     Z=       0.982630 lam=       0.017677
     -------------------------------------------------------------------


     ik =       2 coord.:    0.0000000   0.0000000   0.1666667
     -------------------------------------------------------------------
     E(   1 )= -20.6564 eV   Re[Sigma]=     -66.956606 meV Im[Sigma]=      14.963073 meV     Z=       0.996956 lam=       0.003054
     E(   2 )=  -2.7023 eV   Re[Sigma]=      87.492715 meV Im[Sigma]=     183.691898 meV     Z=       1.046931 lam=      -0.044827
     E(   3 )=  -0.4637 eV   Re[Sigma]=     132.970925 meV Im[Sigma]=      77.014967 meV     Z=       1.003110 lam=      -0.003100
     E(   4 )=  -0.4637 eV   Re[Sigma]=     132.970925 meV Im[Sigma]=      77.014967 meV     Z=       1.003110 lam=      -0.003100
     -------------------------------------------------------------------


     ik =       3 coord.:    0.0000000   0.0000000   0.3333333
     -------------------------------------------------------------------
     E(   1 )= -18.3959 eV   Re[Sigma]=     -56.957899 meV Im[Sigma]=      43.534979 meV     Z=       1.004062 lam=      -0.004046
     E(   2 )=  -9.2172 eV   Re[Sigma]=     -17.359456 meV Im[Sigma]=      43.322252 meV     Z=       0.990934 lam=       0.009149
     E(   3 )=  -2.0888 eV   Re[Sigma]=      95.978618 meV Im[Sigma]=     140.311176 meV     Z=       1.020305 lam=      -0.019901
     E(   4 )=  -2.0888 eV   Re[Sigma]=      95.978618 meV Im[Sigma]=     140.311176 meV     Z=       1.020305 lam=      -0.019901
     -------------------------------------------------------------------


     ik =       4 coord.:    0.0000000   0.0000000   0.5000000
     -------------------------------------------------------------------
     E(   1 )= -15.3937 eV   Re[Sigma]=     -49.850653 meV Im[Sigma]=      56.594115 meV     Z=       1.002218 lam=      -0.002213
     E(   2 )= -14.3295 eV   Re[Sigma]=       1.335991 meV Im[Sigma]=      53.675428 meV     Z=       0.998225 lam=       0.001779
     E(   3 )=  -2.9337 eV   Re[Sigma]=      56.086769 meV Im[Sigma]=     163.958476 meV     Z=       1.043231 lam=      -0.041439
     E(   4 )=  -2.9337 eV   Re[Sigma]=      56.086769 meV Im[Sigma]=     163.958476 meV     Z=       1.043231 lam=      -0.041439
     -------------------------------------------------------------------


     ik =       5 coord.:    0.0000000   0.0000000   0.6666667
     -------------------------------------------------------------------
     E(   1 )= -18.3959 eV   Re[Sigma]=     -56.957893 meV Im[Sigma]=      43.534977 meV     Z=       1.004062 lam=      -0.004046
     E(   2 )=  -9.2172 eV   Re[Sigma]=     -17.359459 meV Im[Sigma]=      43.322259 meV     Z=       0.990934 lam=       0.009149
     E(   3 )=  -2.0888 eV   Re[Sigma]=      95.978621 meV Im[Sigma]=     140.311201 meV     Z=       1.020305 lam=      -0.019901
     E(   4 )=  -2.0888 eV   Re[Sigma]=      95.978621 meV Im[Sigma]=     140.311201 meV     Z=       1.020305 lam=      -0.019901
     -------------------------------------------------------------------


     ik =       6 coord.:    0.0000000   0.0000000   0.8333333
     -------------------------------------------------------------------
     E(   1 )= -20.6564 eV   Re[Sigma]=     -66.956601 meV Im[Sigma]=      14.963074 meV     Z=       0.996956 lam=       0.003054
     E(   2 )=  -2.7023 eV   Re[Sigma]=      87.492701 meV Im[Sigma]=     183.691836 meV     Z=       1.046931 lam=      -0.044827
     E(   3 )=  -0.4637 eV   Re[Sigma]=     132.970928 meV Im[Sigma]=      77.014969 meV     Z=       1.003110 lam=      -0.003100
     E(   4 )=  -0.4637 eV   Re[Sigma]=     132.970928 meV Im[Sigma]=      77.014969 meV     Z=       1.003110 lam=      -0.003100
     -------------------------------------------------------------------


     ik =       7 coord.:    0.0000000   0.1666667   0.0000000
     -------------------------------------------------------------------
     E(   1 )= -20.6564 eV   Re[Sigma]=     -66.956606 meV Im[Sigma]=      14.963072 meV     Z=       0.996956 lam=       0.003054
     E(   2 )=  -2.7023 eV   Re[Sigma]=      87.492688 meV Im[Sigma]=     183.691873 meV     Z=       1.046931 lam=      -0.044827
     E(   3 )=  -0.4637 eV   Re[Sigma]=     132.970924 meV Im[Sigma]=      77.014966 meV     Z=       1.003110 lam=      -0.003100
     E(   4 )=  -0.4637 eV   Re[Sigma]=     132.970924 meV Im[Sigma]=      77.014966 meV     Z=       1.003110 lam=      -0.003100
     -------------------------------------------------------------------


     ik =       8 coord.:    0.0000000   0.1666667   0.1666667
     -------------------------------------------------------------------
     E(   1 )= -20.3785 eV   Re[Sigma]=     -67.072096 meV Im[Sigma]=      17.268384 meV     Z=       0.996120 lam=       0.003896
     E(   2 )=  -1.6787 eV   Re[Sigma]=     118.750105 meV Im[Sigma]=     129.806357 meV     Z=       1.008752 lam=      -0.008676
     E(   3 )=  -1.6770 eV   Re[Sigma]=     112.921410 meV Im[Sigma]=     117.002114 meV     Z=       1.006997 lam=      -0.006948
     E(   4 )=  -1.6770 eV   Re[Sigma]=     112.921410 meV Im[Sigma]=     117.002114 meV     Z=       1.006997 lam=      -0.006948
     -------------------------------------------------------------------


     ik =       9 coord.:    0.0000000   0.1666667   0.3333333
     -------------------------------------------------------------------
     E(   1 )= -18.5798 eV   Re[Sigma]=     -59.739277 meV Im[Sigma]=      43.178367 meV     Z=       1.007120 lam=      -0.007069
     E(   2 )=  -6.8153 eV   Re[Sigma]=      -8.705040 meV Im[Sigma]=     101.821261 meV     Z=       1.010369 lam=      -0.010262
     E(   3 )=  -3.3726 eV   Re[Sigma]=      47.167448 meV Im[Sigma]=     161.062274 meV     Z=       1.029125 lam=      -0.028301
     E(   4 )=  -2.6774 eV   Re[Sigma]=      78.558457 meV Im[Sigma]=     166.879807 meV     Z=       1.042501 lam=      -0.040768
     -------------------------------------------------------------------


     ik =      10 coord.:    0.0000000   0.1666667   0.5000000
     -------------------------------------------------------------------
     E(   1 )= -15.5807 eV   Re[Sigma]=     -40.659963 meV Im[Sigma]=      62.604628 meV     Z=       1.005133 lam=      -0.005107
     E(   2 )= -12.3954 eV   Re[Sigma]=     -10.267777 meV Im[Sigma]=      66.279878 meV     Z=       1.012006 lam=      -0.011863
     E(   3 )=  -4.5402 eV   Re[Sigma]=      13.232985 meV Im[Sigma]=     140.046778 meV     Z=       1.023176 lam=      -0.022651
     E(   4 )=  -3.9016 eV   Re[Sigma]=      27.757921 meV Im[Sigma]=     142.308364 meV     Z=       1.026519 lam=      -0.025834
     -------------------------------------------------------------------


     ik =      11 coord.:    0.0000000   0.1666667   0.6666667
     -------------------------------------------------------------------
     E(   1 )= -16.6834 eV   Re[Sigma]=     -52.611186 meV Im[Sigma]=      66.272695 meV     Z=       1.014628 lam=      -0.014417
     E(   2 )= -10.6236 eV   Re[Sigma]=      -9.319636 meV Im[Sigma]=      55.602200 meV     Z=       1.004801 lam=      -0.004778
     E(   3 )=  -5.2837 eV   Re[Sigma]=      -0.083441 meV Im[Sigma]=     121.881627 meV     Z=       1.022861 lam=      -0.022350
     E(   4 )=  -2.6703 eV   Re[Sigma]=      72.304193 meV Im[Sigma]=     157.708331 meV     Z=       1.040364 lam=      -0.038798
     -------------------------------------------------------------------


     ik =      12 coord.:    0.0000000   0.1666667   0.8333333
     -------------------------------------------------------------------
     E(   1 )= -19.3208 eV   Re[Sigma]=     -66.965636 meV Im[Sigma]=      35.445662 meV     Z=       1.001175 lam=      -0.001174
     E(   2 )=  -5.1780 eV   Re[Sigma]=       3.986224 meV Im[Sigma]=     150.049934 meV     Z=       1.027921 lam=      -0.027162
     E(   3 )=  -3.7366 eV   Re[Sigma]=      39.636409 meV Im[Sigma]=     162.744229 meV     Z=       1.028941 lam=      -0.028127
     E(   4 )=  -0.9280 eV   Re[Sigma]=     116.477440 meV Im[Sigma]=      85.695759 meV     Z=       1.005621 lam=      -0.005590
     -------------------------------------------------------------------


     ik =      13 coord.:    0.0000000   0.3333333   0.0000000
     -------------------------------------------------------------------
     E(   1 )= -18.3959 eV   Re[Sigma]=     -56.957899 meV Im[Sigma]=      43.534979 meV     Z=       1.004062 lam=      -0.004046
     E(   2 )=  -9.2172 eV   Re[Sigma]=     -17.359452 meV Im[Sigma]=      43.322249 meV     Z=       0.990934 lam=       0.009149
     E(   3 )=  -2.0888 eV   Re[Sigma]=      95.978621 meV Im[Sigma]=     140.311185 meV     Z=       1.020305 lam=      -0.019901
     E(   4 )=  -2.0888 eV   Re[Sigma]=      95.978621 meV Im[Sigma]=     140.311185 meV     Z=       1.020305 lam=      -0.019901
     -------------------------------------------------------------------


     ik =      14 coord.:    0.0000000   0.3333333   0.1666667
     -------------------------------------------------------------------
     E(   1 )= -18.5798 eV   Re[Sigma]=     -59.739274 meV Im[Sigma]=      43.178360 meV     Z=       1.007120 lam=      -0.007069
     E(   2 )=  -6.8153 eV   Re[Sigma]=      -8.705045 meV Im[Sigma]=     101.821259 meV     Z=       1.010369 lam=      -0.010262
     E(   3 )=  -3.3726 eV   Re[Sigma]=      47.167452 meV Im[Sigma]=     161.062283 meV     Z=       1.029125 lam=      -0.028301
     E(   4 )=  -2.6774 eV   Re[Sigma]=      78.558469 meV Im[Sigma]=     166.879811 meV     Z=       1.042501 lam=      -0.040768
     -------------------------------------------------------------------


     ik =      15 coord.:    0.0000000   0.3333333   0.3333333
     -------------------------------------------------------------------
     E(   1 )= -17.3627 eV   Re[Sigma]=     -57.537753 meV Im[Sigma]=      47.188692 meV     Z=       0.997318 lam=       0.002689
     E(   2 )=  -6.7571 eV   Re[Sigma]=     -16.041682 meV Im[Sigma]=     107.218679 meV     Z=       1.007505 lam=      -0.007449
     E(   3 )=  -5.2091 eV   Re[Sigma]=       1.477999 meV Im[Sigma]=     110.267898 meV     Z=       1.019325 lam=      -0.018959
     E(   4 )=  -5.2091 eV   Re[Sigma]=       1.477999 meV Im[Sigma]=     110.267898 meV     Z=       1.019325 lam=      -0.018959
     -------------------------------------------------------------------


     ik =      16 coord.:    0.0000000   0.3333333   0.5000000
     -------------------------------------------------------------------
     E(   1 )= -14.7539 eV   Re[Sigma]=     -33.477968 meV Im[Sigma]=      54.566369 meV     Z=       1.000115 lam=      -0.000115
     E(   2 )= -10.1159 eV   Re[Sigma]=     -14.378012 meV Im[Sigma]=      56.345676 meV     Z=       1.000417 lam=      -0.000417
     E(   3 )=  -7.3620 eV   Re[Sigma]=      -9.188404 meV Im[Sigma]=      82.253393 meV     Z=       1.017752 lam=      -0.017443
     E(   4 )=  -5.8087 eV   Re[Sigma]=      -6.439365 meV Im[Sigma]=      82.433823 meV     Z=       1.006745 lam=      -0.006700
     -------------------------------------------------------------------


     ik =      17 coord.:    0.0000000   0.3333333   0.6666667
     -------------------------------------------------------------------
     E(   1 )= -13.7470 eV   Re[Sigma]=     -38.513603 meV Im[Sigma]=      55.860866 meV     Z=       1.001880 lam=      -0.001876
     E(   2 )= -10.6613 eV   Re[Sigma]=     -17.472811 meV Im[Sigma]=      60.162054 meV     Z=       1.005143 lam=      -0.005117
     E(   3 )=  -9.4560 eV   Re[Sigma]=      -0.121455 meV Im[Sigma]=      36.010370 meV     Z=       0.992675 lam=       0.007379
     E(   4 )=  -4.5536 eV   Re[Sigma]=      11.514502 meV Im[Sigma]=     129.593803 meV     Z=       1.021043 lam=      -0.020609
     -------------------------------------------------------------------


     ik =      18 coord.:    0.0000000   0.3333333   0.8333333
     -------------------------------------------------------------------
     E(   1 )= -16.6834 eV   Re[Sigma]=     -52.611189 meV Im[Sigma]=      66.272696 meV     Z=       1.014628 lam=      -0.014417
     E(   2 )= -10.6236 eV   Re[Sigma]=      -9.319627 meV Im[Sigma]=      55.602219 meV     Z=       1.004801 lam=      -0.004778
     E(   3 )=  -5.2837 eV   Re[Sigma]=      -0.083439 meV Im[Sigma]=     121.881638 meV     Z=       1.022861 lam=      -0.022350
     E(   4 )=  -2.6703 eV   Re[Sigma]=      72.304200 meV Im[Sigma]=     157.708333 meV     Z=       1.040364 lam=      -0.038798
     -------------------------------------------------------------------


     ik =      19 coord.:    0.0000000   0.5000000   0.0000000
     -------------------------------------------------------------------
     E(   1 )= -15.3937 eV   Re[Sigma]=     -49.850653 meV Im[Sigma]=      56.594115 meV     Z=       1.002218 lam=      -0.002213
     E(   2 )= -14.3295 eV   Re[Sigma]=       1.335967 meV Im[Sigma]=      53.675432 meV     Z=       0.998225 lam=       0.001779
     E(   3 )=  -2.9337 eV   Re[Sigma]=      56.086776 meV Im[Sigma]=     163.958480 meV     Z=       1.043231 lam=      -0.041439
     E(   4 )=  -2.9337 eV   Re[Sigma]=      56.086776 meV Im[Sigma]=     163.958480 meV     Z=       1.043231 lam=      -0.041439
     -------------------------------------------------------------------


     ik =      20 coord.:    0.0000000   0.5000000   0.1666667
     -------------------------------------------------------------------
     E(   1 )= -15.5807 eV   Re[Sigma]=     -40.659975 meV Im[Sigma]=      62.604623 meV     Z=       1.005133 lam=      -0.005107
     E(   2 )= -12.3954 eV   Re[Sigma]=     -10.267784 meV Im[Sigma]=      66.279872 meV     Z=       1.012006 lam=      -0.011863
     E(   3 )=  -4.5402 eV   Re[Sigma]=      13.232994 meV Im[Sigma]=     140.046779 meV     Z=       1.023176 lam=      -0.022651
     E(   4 )=  -3.9016 eV   Re[Sigma]=      27.757925 meV Im[Sigma]=     142.308367 meV     Z=       1.026519 lam=      -0.025834
     -------------------------------------------------------------------


     ik =      21 coord.:    0.0000000   0.5000000   0.3333333
     -------------------------------------------------------------------
     E(   1 )= -14.7539 eV   Re[Sigma]=     -33.477974 meV Im[Sigma]=      54.566375 meV     Z=       1.000115 lam=      -0.000115
     E(   2 )= -10.1159 eV   Re[Sigma]=     -14.378009 meV Im[Sigma]=      56.345668 meV     Z=       1.000417 lam=      -0.000417
     E(   3 )=  -7.3620 eV   Re[Sigma]=      -9.188413 meV Im[Sigma]=      82.253401 meV     Z=       1.017752 lam=      -0.017443
     E(   4 )=  -5.8087 eV   Re[Sigma]=      -6.439363 meV Im[Sigma]=      82.433818 meV     Z=       1.006745 lam=      -0.006700
     -------------------------------------------------------------------


     ik =      22 coord.:    0.0000000   0.5000000   0.5000000
     -------------------------------------------------------------------
     E(   1 )= -12.6700 eV   Re[Sigma]=     -25.681736 meV Im[Sigma]=      72.658997 meV     Z=       1.007711 lam=      -0.007652
     E(   2 )= -12.6700 eV   Re[Sigma]=     -25.681736 meV Im[Sigma]=      72.658997 meV     Z=       1.007711 lam=      -0.007652
     E(   3 )=  -6.7479 eV   Re[Sigma]=      -1.692018 meV Im[Sigma]=      66.248916 meV     Z=       1.005564 lam=      -0.005533
     E(   4 )=  -6.7479 eV   Re[Sigma]=      -1.692018 meV Im[Sigma]=      66.248916 meV     Z=       1.005564 lam=      -0.005533
     -------------------------------------------------------------------


     ik =      23 coord.:    0.0000000   0.5000000   0.6666667
     -------------------------------------------------------------------
     E(   1 )= -14.7539 eV   Re[Sigma]=     -33.477960 meV Im[Sigma]=      54.566370 meV     Z=       1.000115 lam=      -0.000115
     E(   2 )= -10.1159 eV   Re[Sigma]=     -14.378055 meV Im[Sigma]=      56.345704 meV     Z=       1.000417 lam=      -0.000417
     E(   3 )=  -7.3620 eV   Re[Sigma]=      -9.188440 meV Im[Sigma]=      82.253394 meV     Z=       1.017752 lam=      -0.017443
     E(   4 )=  -5.8087 eV   Re[Sigma]=      -6.439393 meV Im[Sigma]=      82.433837 meV     Z=       1.006745 lam=      -0.006700
     -------------------------------------------------------------------


     ik =      24 coord.:    0.0000000   0.5000000   0.8333333
     -------------------------------------------------------------------
     E(   1 )= -15.5807 eV   Re[Sigma]=     -40.659967 meV Im[Sigma]=      62.604618 meV     Z=       1.005133 lam=      -0.005107
     E(   2 )= -12.3954 eV   Re[Sigma]=     -10.267806 meV Im[Sigma]=      66.279879 meV     Z=       1.012006 lam=      -0.011863
     E(   3 )=  -4.5402 eV   Re[Sigma]=      13.232972 meV Im[Sigma]=     140.046803 meV     Z=       1.023176 lam=      -0.022651
     E(   4 )=  -3.9016 eV   Re[Sigma]=      27.757925 meV Im[Sigma]=     142.308402 meV     Z=       1.026519 lam=      -0.025834
     -------------------------------------------------------------------


     ik =      25 coord.:    0.0000000   0.6666667   0.0000000
     -------------------------------------------------------------------
     E(   1 )= -18.3959 eV   Re[Sigma]=     -56.957894 meV Im[Sigma]=      43.534949 meV     Z=       1.004062 lam=      -0.004046
     E(   2 )=  -9.2172 eV   Re[Sigma]=     -17.359494 meV Im[Sigma]=      43.322256 meV     Z=       0.990934 lam=       0.009149
     E(   3 )=  -2.0888 eV   Re[Sigma]=      95.978626 meV Im[Sigma]=     140.311193 meV     Z=       1.020305 lam=      -0.019901
     E(   4 )=  -2.0888 eV   Re[Sigma]=      95.978626 meV Im[Sigma]=     140.311193 meV     Z=       1.020305 lam=      -0.019901
     -------------------------------------------------------------------


     ik =      26 coord.:    0.0000000   0.6666667   0.1666667
     -------------------------------------------------------------------
     E(   1 )= -16.6834 eV   Re[Sigma]=     -52.611189 meV Im[Sigma]=      66.272678 meV     Z=       1.014628 lam=      -0.014417
     E(   2 )= -10.6236 eV   Re[Sigma]=      -9.319658 meV Im[Sigma]=      55.602206 meV     Z=       1.004801 lam=      -0.004778
     E(   3 )=  -5.2837 eV   Re[Sigma]=      -0.083430 meV Im[Sigma]=     121.881622 meV     Z=       1.022861 lam=      -0.022350
     E(   4 )=  -2.6703 eV   Re[Sigma]=      72.304194 meV Im[Sigma]=     157.708338 meV     Z=       1.040364 lam=      -0.038798
     -------------------------------------------------------------------


     ik =      27 coord.:    0.0000000   0.6666667   0.3333333
     -------------------------------------------------------------------
     E(   1 )= -13.7470 eV   Re[Sigma]=     -38.513605 meV Im[Sigma]=      55.860867 meV     Z=       1.001880 lam=      -0.001876
     E(   2 )= -10.6613 eV   Re[Sigma]=     -17.472817 meV Im[Sigma]=      60.162054 meV     Z=       1.005143 lam=      -0.005117
     E(   3 )=  -9.4560 eV   Re[Sigma]=      -0.121456 meV Im[Sigma]=      36.010364 meV     Z=       0.992675 lam=       0.007379
     E(   4 )=  -4.5536 eV   Re[Sigma]=      11.514500 meV Im[Sigma]=     129.593805 meV     Z=       1.021043 lam=      -0.020609
     -------------------------------------------------------------------


     ik =      28 coord.:    0.0000000   0.6666667   0.5000000
     -------------------------------------------------------------------
     E(   1 )= -14.7539 eV   Re[Sigma]=     -33.477963 meV Im[Sigma]=      54.566370 meV     Z=       1.000115 lam=      -0.000115
     E(   2 )= -10.1159 eV   Re[Sigma]=     -14.378047 meV Im[Sigma]=      56.345706 meV     Z=       1.000417 lam=      -0.000417
     E(   3 )=  -7.3620 eV   Re[Sigma]=      -9.188454 meV Im[Sigma]=      82.253361 meV     Z=       1.017752 lam=      -0.017443
     E(   4 )=  -5.8087 eV   Re[Sigma]=      -6.439398 meV Im[Sigma]=      82.433844 meV     Z=       1.006745 lam=      -0.006700
     -------------------------------------------------------------------


     ik =      29 coord.:    0.0000000   0.6666667   0.6666667
     -------------------------------------------------------------------
     E(   1 )= -17.3627 eV   Re[Sigma]=     -57.537760 meV Im[Sigma]=      47.188674 meV     Z=       0.997318 lam=       0.002689
     E(   2 )=  -6.7571 eV   Re[Sigma]=     -16.041774 meV Im[Sigma]=     107.218696 meV     Z=       1.007505 lam=      -0.007449
     E(   3 )=  -5.2091 eV   Re[Sigma]=       1.477916 meV Im[Sigma]=     110.267936 meV     Z=       1.019325 lam=      -0.018959
     E(   4 )=  -5.2091 eV   Re[Sigma]=       1.477916 meV Im[Sigma]=     110.267936 meV     Z=       1.019325 lam=      -0.018959
     -------------------------------------------------------------------


     ik =      30 coord.:    0.0000000   0.6666667   0.8333333
     -------------------------------------------------------------------
     E(   1 )= -18.5798 eV   Re[Sigma]=     -59.739269 meV Im[Sigma]=      43.178325 meV     Z=       1.007120 lam=      -0.007069
     E(   2 )=  -6.8153 eV   Re[Sigma]=      -8.705109 meV Im[Sigma]=     101.821288 meV     Z=       1.010369 lam=      -0.010262
     E(   3 )=  -3.3726 eV   Re[Sigma]=      47.167443 meV Im[Sigma]=     161.062368 meV     Z=       1.029125 lam=      -0.028301
     E(   4 )=  -2.6774 eV   Re[Sigma]=      78.558479 meV Im[Sigma]=     166.879901 meV     Z=       1.042501 lam=      -0.040768
     -------------------------------------------------------------------


     ik =      31 coord.:    0.0000000   0.8333333   0.0000000
     -------------------------------------------------------------------
     E(   1 )= -20.6564 eV   Re[Sigma]=     -66.956593 meV Im[Sigma]=      14.963067 meV     Z=       0.996956 lam=       0.003054
     E(   2 )=  -2.7023 eV   Re[Sigma]=      87.492720 meV Im[Sigma]=     183.691921 meV     Z=       1.046931 lam=      -0.044827
     E(   3 )=  -0.4637 eV   Re[Sigma]=     132.970932 meV Im[Sigma]=      77.014971 meV     Z=       1.003110 lam=      -0.003100
     E(   4 )=  -0.4637 eV   Re[Sigma]=     132.970932 meV Im[Sigma]=      77.014971 meV     Z=       1.003110 lam=      -0.003100
     -------------------------------------------------------------------


     ik =      32 coord.:    0.0000000   0.8333333   0.1666667
     -------------------------------------------------------------------
     E(   1 )= -19.3208 eV   Re[Sigma]=     -66.965633 meV Im[Sigma]=      35.445652 meV     Z=       1.001175 lam=      -0.001174
     E(   2 )=  -5.1780 eV   Re[Sigma]=       3.986213 meV Im[Sigma]=     150.049943 meV     Z=       1.027921 lam=      -0.027162
     E(   3 )=  -3.7366 eV   Re[Sigma]=      39.636416 meV Im[Sigma]=     162.744249 meV     Z=       1.028941 lam=      -0.028127
     E(   4 )=  -0.9280 eV   Re[Sigma]=     116.477440 meV Im[Sigma]=      85.695760 meV     Z=       1.005621 lam=      -0.005590
     -------------------------------------------------------------------


     ik =      33 coord.:    0.0000000   0.8333333   0.3333333
     -------------------------------------------------------------------
     E(   1 )= -16.6834 eV   Re[Sigma]=     -52.611188 meV Im[Sigma]=      66.272699 meV     Z=       1.014628 lam=      -0.014417
     E(   2 )= -10.6236 eV   Re[Sigma]=      -9.319629 meV Im[Sigma]=      55.602211 meV     Z=       1.004801 lam=      -0.004778
     E(   3 )=  -5.2837 eV   Re[Sigma]=      -0.083432 meV Im[Sigma]=     121.881617 meV     Z=       1.022861 lam=      -0.022350
     E(   4 )=  -2.6703 eV   Re[Sigma]=      72.304198 meV Im[Sigma]=     157.708334 meV     Z=       1.040364 lam=      -0.038798
     -------------------------------------------------------------------


     ik =      34 coord.:    0.0000000   0.8333333   0.5000000
     -------------------------------------------------------------------
     E(   1 )= -15.5807 eV   Re[Sigma]=     -40.659963 meV Im[Sigma]=      62.604620 meV     Z=       1.005133 lam=      -0.005107
     E(   2 )= -12.3954 eV   Re[Sigma]=     -10.267781 meV Im[Sigma]=      66.279888 meV     Z=       1.012006 lam=      -0.011863
     E(   3 )=  -4.5402 eV   Re[Sigma]=      13.232977 meV Im[Sigma]=     140.046796 meV     Z=       1.023176 lam=      -0.022651
     E(   4 )=  -3.9016 eV   Re[Sigma]=      27.757916 meV Im[Sigma]=     142.308393 meV     Z=       1.026519 lam=      -0.025834
     -------------------------------------------------------------------


     ik =      35 coord.:    0.0000000   0.8333333   0.6666667
     -------------------------------------------------------------------
     E(   1 )= -18.5798 eV   Re[Sigma]=     -59.739265 meV Im[Sigma]=      43.178337 meV     Z=       1.007120 lam=      -0.007069
     E(   2 )=  -6.8153 eV   Re[Sigma]=      -8.705063 meV Im[Sigma]=     101.821267 meV     Z=       1.010369 lam=      -0.010262
     E(   3 )=  -3.3726 eV   Re[Sigma]=      47.167439 meV Im[Sigma]=     161.062367 meV     Z=       1.029125 lam=      -0.028301
     E(   4 )=  -2.6774 eV   Re[Sigma]=      78.558467 meV Im[Sigma]=     166.879924 meV     Z=       1.042501 lam=      -0.040768
     -------------------------------------------------------------------


     ik =      36 coord.:    0.0000000   0.8333333   0.8333333
     -------------------------------------------------------------------
     E(   1 )= -20.3785 eV   Re[Sigma]=     -67.072076 meV Im[Sigma]=      17.268376 meV     Z=       0.996120 lam=       0.003896
     E(   2 )=  -1.6787 eV   Re[Sigma]=     118.750149 meV Im[Sigma]=     129.806370 meV     Z=       1.008752 lam=      -0.008676
     E(   3 )=  -1.6770 eV   Re[Sigma]=     112.921433 meV Im[Sigma]=     117.002149 meV     Z=       1.006997 lam=      -0.006948
     E(   4 )=  -1.6770 eV   Re[Sigma]=     112.921433 meV Im[Sigma]=     117.002149 meV     Z=       1.006997 lam=      -0.006948
     -------------------------------------------------------------------


     ik =      37 coord.:    0.1666667   0.0000000   0.0000000
     -------------------------------------------------------------------
     E(   1 )= -20.6564 eV   Re[Sigma]=     -66.956603 meV Im[Sigma]=      14.963073 meV     Z=       0.996956 lam=       0.003054
     E(   2 )=  -2.7023 eV   Re[Sigma]=      87.492713 meV Im[Sigma]=     183.691891 meV     Z=       1.046931 lam=      -0.044827
     E(   3 )=  -0.4637 eV   Re[Sigma]=     132.970927 meV Im[Sigma]=      77.014969 meV     Z=       1.003110 lam=      -0.003100
     E(   4 )=  -0.4637 eV   Re[Sigma]=     132.970927 meV Im[Sigma]=      77.014969 meV     Z=       1.003110 lam=      -0.003100
     -------------------------------------------------------------------


     ik =      38 coord.:    0.1666667   0.0000000   0.1666667
     -------------------------------------------------------------------
     E(   1 )= -20.3785 eV   Re[Sigma]=     -67.072092 meV Im[Sigma]=      17.268382 meV     Z=       0.996120 lam=       0.003896
     E(   2 )=  -1.6787 eV   Re[Sigma]=     118.750109 meV Im[Sigma]=     129.806353 meV     Z=       1.008752 lam=      -0.008676
     E(   3 )=  -1.6770 eV   Re[Sigma]=     112.921416 meV Im[Sigma]=     117.002126 meV     Z=       1.006997 lam=      -0.006948
     E(   4 )=  -1.6770 eV   Re[Sigma]=     112.921416 meV Im[Sigma]=     117.002126 meV     Z=       1.006997 lam=      -0.006948
     -------------------------------------------------------------------


     ik =      39 coord.:    0.1666667   0.0000000   0.3333333
     -------------------------------------------------------------------
     E(   1 )= -18.5798 eV   Re[Sigma]=     -59.739274 meV Im[Sigma]=      43.178358 meV     Z=       1.007120 lam=      -0.007069
     E(   2 )=  -6.8153 eV   Re[Sigma]=      -8.705044 meV Im[Sigma]=     101.821255 meV     Z=       1.010369 lam=      -0.010262
     E(   3 )=  -3.3726 eV   Re[Sigma]=      47.167451 meV Im[Sigma]=     161.062277 meV     Z=       1.029125 lam=      -0.028301
     E(   4 )=  -2.6774 eV   Re[Sigma]=      78.558455 meV Im[Sigma]=     166.879812 meV     Z=       1.042501 lam=      -0.040768
     -------------------------------------------------------------------


     ik =      40 coord.:    0.1666667   0.0000000   0.5000000
     -------------------------------------------------------------------
     E(   1 )= -15.5807 eV   Re[Sigma]=     -40.659964 meV Im[Sigma]=      62.604623 meV     Z=       1.005133 lam=      -0.005107
     E(   2 )= -12.3954 eV   Re[Sigma]=     -10.267775 meV Im[Sigma]=      66.279875 meV     Z=       1.012006 lam=      -0.011863
     E(   3 )=  -4.5402 eV   Re[Sigma]=      13.232981 meV Im[Sigma]=     140.046771 meV     Z=       1.023176 lam=      -0.022651
     E(   4 )=  -3.9016 eV   Re[Sigma]=      27.757928 meV Im[Sigma]=     142.308365 meV     Z=       1.026519 lam=      -0.025834
     -------------------------------------------------------------------


     ik =      41 coord.:    0.1666667   0.0000000   0.6666667
     -------------------------------------------------------------------
     E(   1 )= -16.6834 eV   Re[Sigma]=     -52.611186 meV Im[Sigma]=      66.272699 meV     Z=       1.014628 lam=      -0.014417
     E(   2 )= -10.6236 eV   Re[Sigma]=      -9.319641 meV Im[Sigma]=      55.602203 meV     Z=       1.004801 lam=      -0.004778
     E(   3 )=  -5.2837 eV   Re[Sigma]=      -0.083439 meV Im[Sigma]=     121.881635 meV     Z=       1.022861 lam=      -0.022350
     E(   4 )=  -2.6703 eV   Re[Sigma]=      72.304202 meV Im[Sigma]=     157.708334 meV     Z=       1.040364 lam=      -0.038798
     -------------------------------------------------------------------


     ik =      42 coord.:    0.1666667   0.0000000   0.8333333
     -------------------------------------------------------------------
     E(   1 )= -19.3208 eV   Re[Sigma]=     -66.965637 meV Im[Sigma]=      35.445662 meV     Z=       1.001175 lam=      -0.001174
     E(   2 )=  -5.1780 eV   Re[Sigma]=       3.986222 meV Im[Sigma]=     150.049953 meV     Z=       1.027921 lam=      -0.027162
     E(   3 )=  -3.7366 eV   Re[Sigma]=      39.636420 meV Im[Sigma]=     162.744245 meV     Z=       1.028941 lam=      -0.028127
     E(   4 )=  -0.9280 eV   Re[Sigma]=     116.477445 meV Im[Sigma]=      85.695763 meV     Z=       1.005621 lam=      -0.005590
     -------------------------------------------------------------------


     ik =      43 coord.:    0.1666667   0.1666667   0.0000000
     -------------------------------------------------------------------
     E(   1 )= -20.3785 eV   Re[Sigma]=     -67.072092 meV Im[Sigma]=      17.268384 meV     Z=       0.996120 lam=       0.003896
     E(   2 )=  -1.6787 eV   Re[Sigma]=     118.750102 meV Im[Sigma]=     129.806350 meV     Z=       1.008752 lam=      -0.008676
     E(   3 )=  -1.6770 eV   Re[Sigma]=     112.921400 meV Im[Sigma]=     117.002104 meV     Z=       1.006997 lam=      -0.006948
     E(   4 )=  -1.6770 eV   Re[Sigma]=     112.921400 meV Im[Sigma]=     117.002104 meV     Z=       1.006997 lam=      -0.006948
     -------------------------------------------------------------------


     ik =      44 coord.:    0.1666667   0.1666667   0.1666667
     -------------------------------------------------------------------
     E(   1 )= -20.6564 eV   Re[Sigma]=     -66.956610 meV Im[Sigma]=      14.963072 meV     Z=       0.996956 lam=       0.003054
     E(   2 )=  -2.7023 eV   Re[Sigma]=      87.492683 meV Im[Sigma]=     183.691863 meV     Z=       1.046931 lam=      -0.044827
     E(   3 )=  -0.4637 eV   Re[Sigma]=     132.970924 meV Im[Sigma]=      77.014967 meV     Z=       1.003110 lam=      -0.003100
     E(   4 )=  -0.4637 eV   Re[Sigma]=     132.970924 meV Im[Sigma]=      77.014967 meV     Z=       1.003110 lam=      -0.003100
     -------------------------------------------------------------------


     ik =      45 coord.:    0.1666667   0.1666667   0.3333333
     -------------------------------------------------------------------
     E(   1 )= -19.3208 eV   Re[Sigma]=     -66.965648 meV Im[Sigma]=      35.445668 meV     Z=       1.001175 lam=      -0.001174
     E(   2 )=  -5.1780 eV   Re[Sigma]=       3.986212 meV Im[Sigma]=     150.049919 meV     Z=       1.027921 lam=      -0.027162
     E(   3 )=  -3.7366 eV   Re[Sigma]=      39.636427 meV Im[Sigma]=     162.744222 meV     Z=       1.028941 lam=      -0.028127
     E(   4 )=  -0.9280 eV   Re[Sigma]=     116.477429 meV Im[Sigma]=      85.695749 meV     Z=       1.005621 lam=      -0.005590
     -------------------------------------------------------------------


     ik =      46 coord.:    0.1666667   0.1666667   0.5000000
     -------------------------------------------------------------------
     E(   1 )= -16.6834 eV   Re[Sigma]=     -52.611193 meV Im[Sigma]=      66.272695 meV     Z=       1.014628 lam=      -0.014417
     E(   2 )= -10.6236 eV   Re[Sigma]=      -9.319633 meV Im[Sigma]=      55.602214 meV     Z=       1.004801 lam=      -0.004778
     E(   3 )=  -5.2837 eV   Re[Sigma]=      -0.083434 meV Im[Sigma]=     121.881611 meV     Z=       1.022861 lam=      -0.022350
     E(   4 )=  -2.6703 eV   Re[Sigma]=      72.304201 meV Im[Sigma]=     157.708308 meV     Z=       1.040364 lam=      -0.038798
     -------------------------------------------------------------------


     ik =      47 coord.:    0.1666667   0.1666667   0.6666667
     -------------------------------------------------------------------
     E(   1 )= -15.5807 eV   Re[Sigma]=     -40.659963 meV Im[Sigma]=      62.604623 meV     Z=       1.005133 lam=      -0.005107
     E(   2 )= -12.3954 eV   Re[Sigma]=     -10.267780 meV Im[Sigma]=      66.279870 meV     Z=       1.012006 lam=      -0.011863
     E(   3 )=  -4.5402 eV   Re[Sigma]=      13.232988 meV Im[Sigma]=     140.046755 meV     Z=       1.023176 lam=      -0.022651
     E(   4 )=  -3.9016 eV   Re[Sigma]=      27.757919 meV Im[Sigma]=     142.308385 meV     Z=       1.026519 lam=      -0.025834
     -------------------------------------------------------------------


     ik =      48 coord.:    0.1666667   0.1666667   0.8333333
     -------------------------------------------------------------------
     E(   1 )= -18.5798 eV   Re[Sigma]=     -59.739273 meV Im[Sigma]=      43.178359 meV     Z=       1.007120 lam=      -0.007069
     E(   2 )=  -6.8153 eV   Re[Sigma]=      -8.705034 meV Im[Sigma]=     101.821262 meV     Z=       1.010369 lam=      -0.010262
     E(   3 )=  -3.3726 eV   Re[Sigma]=      47.167443 meV Im[Sigma]=     161.062286 meV     Z=       1.029125 lam=      -0.028301
     E(   4 )=  -2.6774 eV   Re[Sigma]=      78.558446 meV Im[Sigma]=     166.879813 meV     Z=       1.042501 lam=      -0.040768
     -------------------------------------------------------------------


     ik =      49 coord.:    0.1666667   0.3333333   0.0000000
     -------------------------------------------------------------------
     E(   1 )= -18.5798 eV   Re[Sigma]=     -59.739270 meV Im[Sigma]=      43.178361 meV     Z=       1.007120 lam=      -0.007069
     E(   2 )=  -6.8153 eV   Re[Sigma]=      -8.705041 meV Im[Sigma]=     101.821244 meV     Z=       1.010369 lam=      -0.010262
     E(   3 )=  -3.3726 eV   Re[Sigma]=      47.167446 meV Im[Sigma]=     161.062273 meV     Z=       1.029125 lam=      -0.028301
     E(   4 )=  -2.6774 eV   Re[Sigma]=      78.558466 meV Im[Sigma]=     166.879804 meV     Z=       1.042501 lam=      -0.040768
     -------------------------------------------------------------------


     ik =      50 coord.:    0.1666667   0.3333333   0.1666667
     -------------------------------------------------------------------
     E(   1 )= -19.3208 eV   Re[Sigma]=     -66.965641 meV Im[Sigma]=      35.445663 meV     Z=       1.001175 lam=      -0.001174
     E(   2 )=  -5.1780 eV   Re[Sigma]=       3.986209 meV Im[Sigma]=     150.049885 meV     Z=       1.027921 lam=      -0.027162
     E(   3 )=  -3.7366 eV   Re[Sigma]=      39.636429 meV Im[Sigma]=     162.744231 meV     Z=       1.028941 lam=      -0.028127
     E(   4 )=  -0.9280 eV   Re[Sigma]=     116.477436 meV Im[Sigma]=      85.695750 meV     Z=       1.005621 lam=      -0.005590
     -------------------------------------------------------------------


     ik =      51 coord.:    0.1666667   0.3333333   0.3333333
     -------------------------------------------------------------------
     E(   1 )= -18.5798 eV   Re[Sigma]=     -59.739272 meV Im[Sigma]=      43.178362 meV     Z=       1.007120 lam=      -0.007069
     E(   2 )=  -6.8153 eV   Re[Sigma]=      -8.705041 meV Im[Sigma]=     101.821245 meV     Z=       1.010369 lam=      -0.010262
     E(   3 )=  -3.3726 eV   Re[Sigma]=      47.167452 meV Im[Sigma]=     161.062287 meV     Z=       1.029125 lam=      -0.028301
     E(   4 )=  -2.6774 eV   Re[Sigma]=      78.558474 meV Im[Sigma]=     166.879813 meV     Z=       1.042501 lam=      -0.040768
     -------------------------------------------------------------------


     ik =      52 coord.:    0.1666667   0.3333333   0.5000000
     -------------------------------------------------------------------
     E(   1 )= -16.3840 eV   Re[Sigma]=     -47.931929 meV Im[Sigma]=      68.505934 meV     Z=       1.012206 lam=      -0.012059
     E(   2 )=  -8.5864 eV   Re[Sigma]=     -26.484808 meV Im[Sigma]=      58.374610 meV     Z=       0.994038 lam=       0.005998
     E(   3 )=  -7.0104 eV   Re[Sigma]=      -4.599690 meV Im[Sigma]=      87.707889 meV     Z=       1.015633 lam=      -0.015392
     E(   4 )=  -4.0915 eV   Re[Sigma]=      25.706276 meV Im[Sigma]=     143.418475 meV     Z=       1.027685 lam=      -0.026939
     -------------------------------------------------------------------


     ik =      53 coord.:    0.1666667   0.3333333   0.6666667
     -------------------------------------------------------------------
     E(   1 )= -13.5146 eV   Re[Sigma]=     -44.733634 meV Im[Sigma]=      57.861371 meV     Z=       0.999762 lam=       0.000238
     E(   2 )= -11.9136 eV   Re[Sigma]=      -2.667173 meV Im[Sigma]=      62.462856 meV     Z=       1.008328 lam=      -0.008259
     E(   3 )=  -7.5784 eV   Re[Sigma]=     -17.423820 meV Im[Sigma]=      90.621081 meV     Z=       1.018796 lam=      -0.018449
     E(   4 )=  -5.4111 eV   Re[Sigma]=      -0.932883 meV Im[Sigma]=     104.559921 meV     Z=       1.019678 lam=      -0.019298
     -------------------------------------------------------------------


     ik =      54 coord.:    0.1666667   0.3333333   0.8333333
     -------------------------------------------------------------------
     E(   1 )= -16.3840 eV   Re[Sigma]=     -47.931921 meV Im[Sigma]=      68.505942 meV     Z=       1.012206 lam=      -0.012059
     E(   2 )=  -8.5864 eV   Re[Sigma]=     -26.484804 meV Im[Sigma]=      58.374611 meV     Z=       0.994038 lam=       0.005998
     E(   3 )=  -7.0104 eV   Re[Sigma]=      -4.599694 meV Im[Sigma]=      87.707874 meV     Z=       1.015633 lam=      -0.015392
     E(   4 )=  -4.0915 eV   Re[Sigma]=      25.706270 meV Im[Sigma]=     143.418465 meV     Z=       1.027685 lam=      -0.026939
     -------------------------------------------------------------------


     ik =      55 coord.:    0.1666667   0.5000000   0.0000000
     -------------------------------------------------------------------
     E(   1 )= -15.5807 eV   Re[Sigma]=     -40.659967 meV Im[Sigma]=      62.604617 meV     Z=       1.005133 lam=      -0.005107
     E(   2 )= -12.3954 eV   Re[Sigma]=     -10.267777 meV Im[Sigma]=      66.279878 meV     Z=       1.012006 lam=      -0.011863
     E(   3 )=  -4.5402 eV   Re[Sigma]=      13.232998 meV Im[Sigma]=     140.046776 meV     Z=       1.023176 lam=      -0.022651
     E(   4 )=  -3.9016 eV   Re[Sigma]=      27.757923 meV Im[Sigma]=     142.308367 meV     Z=       1.026519 lam=      -0.025834
     -------------------------------------------------------------------


     ik =      56 coord.:    0.1666667   0.5000000   0.1666667
     -------------------------------------------------------------------
     E(   1 )= -16.6834 eV   Re[Sigma]=     -52.611191 meV Im[Sigma]=      66.272690 meV     Z=       1.014628 lam=      -0.014417
     E(   2 )= -10.6236 eV   Re[Sigma]=      -9.319629 meV Im[Sigma]=      55.602215 meV     Z=       1.004801 lam=      -0.004778
     E(   3 )=  -5.2837 eV   Re[Sigma]=      -0.083430 meV Im[Sigma]=     121.881616 meV     Z=       1.022861 lam=      -0.022350
     E(   4 )=  -2.6703 eV   Re[Sigma]=      72.304193 meV Im[Sigma]=     157.708308 meV     Z=       1.040364 lam=      -0.038798
     -------------------------------------------------------------------


     ik =      57 coord.:    0.1666667   0.5000000   0.3333333
     -------------------------------------------------------------------
     E(   1 )= -16.3840 eV   Re[Sigma]=     -47.931926 meV Im[Sigma]=      68.505929 meV     Z=       1.012206 lam=      -0.012059
     E(   2 )=  -8.5864 eV   Re[Sigma]=     -26.484800 meV Im[Sigma]=      58.374606 meV     Z=       0.994038 lam=       0.005998
     E(   3 )=  -7.0104 eV   Re[Sigma]=      -4.599694 meV Im[Sigma]=      87.707885 meV     Z=       1.015633 lam=      -0.015392
     E(   4 )=  -4.0915 eV   Re[Sigma]=      25.706277 meV Im[Sigma]=     143.418459 meV     Z=       1.027685 lam=      -0.026939
     -------------------------------------------------------------------


     ik =      58 coord.:    0.1666667   0.5000000   0.5000000
     -------------------------------------------------------------------
     E(   1 )= -14.7539 eV   Re[Sigma]=     -33.477970 meV Im[Sigma]=      54.566364 meV     Z=       1.000115 lam=      -0.000115
     E(   2 )= -10.1159 eV   Re[Sigma]=     -14.378008 meV Im[Sigma]=      56.345669 meV     Z=       1.000417 lam=      -0.000417
     E(   3 )=  -7.3620 eV   Re[Sigma]=      -9.188396 meV Im[Sigma]=      82.253385 meV     Z=       1.017752 lam=      -0.017443
     E(   4 )=  -5.8087 eV   Re[Sigma]=      -6.439366 meV Im[Sigma]=      82.433835 meV     Z=       1.006745 lam=      -0.006700
     -------------------------------------------------------------------


     ik =      59 coord.:    0.1666667   0.5000000   0.6666667
     -------------------------------------------------------------------
     E(   1 )= -11.9767 eV   Re[Sigma]=     -22.869702 meV Im[Sigma]=      74.818295 meV     Z=       1.012768 lam=      -0.012607
     E(   2 )= -11.9767 eV   Re[Sigma]=     -22.869702 meV Im[Sigma]=      74.818295 meV     Z=       1.012768 lam=      -0.012607
     E(   3 )=  -7.6378 eV   Re[Sigma]=      -9.592799 meV Im[Sigma]=      69.845054 meV     Z=       1.011867 lam=      -0.011727
     E(   4 )=  -7.6378 eV   Re[Sigma]=      -9.592799 meV Im[Sigma]=      69.845054 meV     Z=       1.011867 lam=      -0.011727
     -------------------------------------------------------------------


     ik =      60 coord.:    0.1666667   0.5000000   0.8333333
     -------------------------------------------------------------------
     E(   1 )= -13.5146 eV   Re[Sigma]=     -44.733640 meV Im[Sigma]=      57.861386 meV     Z=       0.999762 lam=       0.000238
     E(   2 )= -11.9136 eV   Re[Sigma]=      -2.667179 meV Im[Sigma]=      62.462859 meV     Z=       1.008328 lam=      -0.008259
     E(   3 )=  -7.5784 eV   Re[Sigma]=     -17.423834 meV Im[Sigma]=      90.621107 meV     Z=       1.018796 lam=      -0.018449
     E(   4 )=  -5.4111 eV   Re[Sigma]=      -0.932886 meV Im[Sigma]=     104.559918 meV     Z=       1.019678 lam=      -0.019298
     -------------------------------------------------------------------


     ik =      61 coord.:    0.1666667   0.6666667   0.0000000
     -------------------------------------------------------------------
     E(   1 )= -16.6834 eV   Re[Sigma]=     -52.611192 meV Im[Sigma]=      66.272690 meV     Z=       1.014628 lam=      -0.014417
     E(   2 )= -10.6236 eV   Re[Sigma]=      -9.319663 meV Im[Sigma]=      55.602215 meV     Z=       1.004801 lam=      -0.004778
     E(   3 )=  -5.2837 eV   Re[Sigma]=      -0.083439 meV Im[Sigma]=     121.881664 meV     Z=       1.022861 lam=      -0.022350
     E(   4 )=  -2.6703 eV   Re[Sigma]=      72.304192 meV Im[Sigma]=     157.708320 meV     Z=       1.040364 lam=      -0.038798
     -------------------------------------------------------------------


     ik =      62 coord.:    0.1666667   0.6666667   0.1666667
     -------------------------------------------------------------------
     E(   1 )= -15.5807 eV   Re[Sigma]=     -40.659966 meV Im[Sigma]=      62.604621 meV     Z=       1.005133 lam=      -0.005107
     E(   2 )= -12.3954 eV   Re[Sigma]=     -10.267802 meV Im[Sigma]=      66.279871 meV     Z=       1.012006 lam=      -0.011863
     E(   3 )=  -4.5402 eV   Re[Sigma]=      13.233001 meV Im[Sigma]=     140.046766 meV     Z=       1.023176 lam=      -0.022651
     E(   4 )=  -3.9016 eV   Re[Sigma]=      27.757919 meV Im[Sigma]=     142.308378 meV     Z=       1.026519 lam=      -0.025834
     -------------------------------------------------------------------


     ik =      63 coord.:    0.1666667   0.6666667   0.3333333
     -------------------------------------------------------------------
     E(   1 )= -13.5146 eV   Re[Sigma]=     -44.733634 meV Im[Sigma]=      57.861378 meV     Z=       0.999762 lam=       0.000238
     E(   2 )= -11.9136 eV   Re[Sigma]=      -2.667185 meV Im[Sigma]=      62.462847 meV     Z=       1.008328 lam=      -0.008259
     E(   3 )=  -7.5784 eV   Re[Sigma]=     -17.423813 meV Im[Sigma]=      90.621095 meV     Z=       1.018796 lam=      -0.018449
     E(   4 )=  -5.4111 eV   Re[Sigma]=      -0.932882 meV Im[Sigma]=     104.559916 meV     Z=       1.019678 lam=      -0.019298
     -------------------------------------------------------------------


     ik =      64 coord.:    0.1666667   0.6666667   0.5000000
     -------------------------------------------------------------------
     E(   1 )= -11.9767 eV   Re[Sigma]=     -22.869700 meV Im[Sigma]=      74.818295 meV     Z=       1.012768 lam=      -0.012607
     E(   2 )= -11.9767 eV   Re[Sigma]=     -22.869700 meV Im[Sigma]=      74.818295 meV     Z=       1.012768 lam=      -0.012607
     E(   3 )=  -7.6378 eV   Re[Sigma]=      -9.592808 meV Im[Sigma]=      69.845050 meV     Z=       1.011867 lam=      -0.011727
     E(   4 )=  -7.6378 eV   Re[Sigma]=      -9.592808 meV Im[Sigma]=      69.845050 meV     Z=       1.011867 lam=      -0.011727
     -------------------------------------------------------------------


     ik =      65 coord.:    0.1666667   0.6666667   0.6666667
     -------------------------------------------------------------------
     E(   1 )= -14.7539 eV   Re[Sigma]=     -33.477962 meV Im[Sigma]=      54.566370 meV     Z=       1.000115 lam=      -0.000115
     E(   2 )= -10.1159 eV   Re[Sigma]=     -14.378048 meV Im[Sigma]=      56.345697 meV     Z=       1.000417 lam=      -0.000417
     E(   3 )=  -7.3620 eV   Re[Sigma]=      -9.188430 meV Im[Sigma]=      82.253391 meV     Z=       1.017752 lam=      -0.017443
     E(   4 )=  -5.8087 eV   Re[Sigma]=      -6.439412 meV Im[Sigma]=      82.433844 meV     Z=       1.006745 lam=      -0.006700
     -------------------------------------------------------------------


     ik =      66 coord.:    0.1666667   0.6666667   0.8333333
     -------------------------------------------------------------------
     E(   1 )= -16.3840 eV   Re[Sigma]=     -47.931933 meV Im[Sigma]=      68.505923 meV     Z=       1.012206 lam=      -0.012059
     E(   2 )=  -8.5864 eV   Re[Sigma]=     -26.484860 meV Im[Sigma]=      58.374641 meV     Z=       0.994038 lam=       0.005998
     E(   3 )=  -7.0104 eV   Re[Sigma]=      -4.599722 meV Im[Sigma]=      87.707895 meV     Z=       1.015633 lam=      -0.015392
     E(   4 )=  -4.0915 eV   Re[Sigma]=      25.706236 meV Im[Sigma]=     143.418504 meV     Z=       1.027685 lam=      -0.026939
     -------------------------------------------------------------------


     ik =      67 coord.:    0.1666667   0.8333333   0.0000000
     -------------------------------------------------------------------
     E(   1 )= -19.3208 eV   Re[Sigma]=     -66.965634 meV Im[Sigma]=      35.445645 meV     Z=       1.001175 lam=      -0.001174
     E(   2 )=  -5.1780 eV   Re[Sigma]=       3.986182 meV Im[Sigma]=     150.050002 meV     Z=       1.027921 lam=      -0.027162
     E(   3 )=  -3.7366 eV   Re[Sigma]=      39.636428 meV Im[Sigma]=     162.744252 meV     Z=       1.028941 lam=      -0.028127
     E(   4 )=  -0.9280 eV   Re[Sigma]=     116.477440 meV Im[Sigma]=      85.695757 meV     Z=       1.005621 lam=      -0.005590
     -------------------------------------------------------------------


     ik =      68 coord.:    0.1666667   0.8333333   0.1666667
     -------------------------------------------------------------------
     E(   1 )= -18.5798 eV   Re[Sigma]=     -59.739274 meV Im[Sigma]=      43.178346 meV     Z=       1.007120 lam=      -0.007069
     E(   2 )=  -6.8153 eV   Re[Sigma]=      -8.705065 meV Im[Sigma]=     101.821273 meV     Z=       1.010369 lam=      -0.010262
     E(   3 )=  -3.3726 eV   Re[Sigma]=      47.167441 meV Im[Sigma]=     161.062307 meV     Z=       1.029125 lam=      -0.028301
     E(   4 )=  -2.6774 eV   Re[Sigma]=      78.558466 meV Im[Sigma]=     166.879803 meV     Z=       1.042501 lam=      -0.040768
     -------------------------------------------------------------------


     ik =      69 coord.:    0.1666667   0.8333333   0.3333333
     -------------------------------------------------------------------
     E(   1 )= -16.3840 eV   Re[Sigma]=     -47.931927 meV Im[Sigma]=      68.505938 meV     Z=       1.012206 lam=      -0.012059
     E(   2 )=  -8.5864 eV   Re[Sigma]=     -26.484811 meV Im[Sigma]=      58.374618 meV     Z=       0.994038 lam=       0.005998
     E(   3 )=  -7.0104 eV   Re[Sigma]=      -4.599699 meV Im[Sigma]=      87.707875 meV     Z=       1.015633 lam=      -0.015392
     E(   4 )=  -4.0915 eV   Re[Sigma]=      25.706268 meV Im[Sigma]=     143.418465 meV     Z=       1.027685 lam=      -0.026939
     -------------------------------------------------------------------


     ik =      70 coord.:    0.1666667   0.8333333   0.5000000
     -------------------------------------------------------------------
     E(   1 )= -13.5146 eV   Re[Sigma]=     -44.733638 meV Im[Sigma]=      57.861382 meV     Z=       0.999762 lam=       0.000238
     E(   2 )= -11.9136 eV   Re[Sigma]=      -2.667174 meV Im[Sigma]=      62.462862 meV     Z=       1.008328 lam=      -0.008259
     E(   3 )=  -7.5784 eV   Re[Sigma]=     -17.423838 meV Im[Sigma]=      90.621098 meV     Z=       1.018796 lam=      -0.018449
     E(   4 )=  -5.4111 eV   Re[Sigma]=      -0.932892 meV Im[Sigma]=     104.559925 meV     Z=       1.019678 lam=      -0.019298
     -------------------------------------------------------------------


     ik =      71 coord.:    0.1666667   0.8333333   0.6666667
     -------------------------------------------------------------------
     E(   1 )= -16.3840 eV   Re[Sigma]=     -47.931932 meV Im[Sigma]=      68.505920 meV     Z=       1.012206 lam=      -0.012059
     E(   2 )=  -8.5864 eV   Re[Sigma]=     -26.484839 meV Im[Sigma]=      58.374634 meV     Z=       0.994038 lam=       0.005998
     E(   3 )=  -7.0104 eV   Re[Sigma]=      -4.599729 meV Im[Sigma]=      87.707897 meV     Z=       1.015633 lam=      -0.015392
     E(   4 )=  -4.0915 eV   Re[Sigma]=      25.706232 meV Im[Sigma]=     143.418527 meV     Z=       1.027685 lam=      -0.026939
     -------------------------------------------------------------------


     ik =      72 coord.:    0.1666667   0.8333333   0.8333333
     -------------------------------------------------------------------
     E(   1 )= -18.5798 eV   Re[Sigma]=     -59.739267 meV Im[Sigma]=      43.178334 meV     Z=       1.007120 lam=      -0.007069
     E(   2 )=  -6.8153 eV   Re[Sigma]=      -8.705089 meV Im[Sigma]=     101.821271 meV     Z=       1.010369 lam=      -0.010262
     E(   3 )=  -3.3726 eV   Re[Sigma]=      47.167438 meV Im[Sigma]=     161.062373 meV     Z=       1.029125 lam=      -0.028301
     E(   4 )=  -2.6774 eV   Re[Sigma]=      78.558478 meV Im[Sigma]=     166.879915 meV     Z=       1.042501 lam=      -0.040768
     -------------------------------------------------------------------


     ik =      73 coord.:    0.3333333   0.0000000   0.0000000
     -------------------------------------------------------------------
     E(   1 )= -18.3959 eV   Re[Sigma]=     -56.957898 meV Im[Sigma]=      43.534978 meV     Z=       1.004062 lam=      -0.004046
     E(   2 )=  -9.2172 eV   Re[Sigma]=     -17.359457 meV Im[Sigma]=      43.322250 meV     Z=       0.990934 lam=       0.009149
     E(   3 )=  -2.0888 eV   Re[Sigma]=      95.978622 meV Im[Sigma]=     140.311186 meV     Z=       1.020305 lam=      -0.019901
     E(   4 )=  -2.0888 eV   Re[Sigma]=      95.978622 meV Im[Sigma]=     140.311186 meV     Z=       1.020305 lam=      -0.019901
     -------------------------------------------------------------------


     ik =      74 coord.:    0.3333333   0.0000000   0.1666667
     -------------------------------------------------------------------
     E(   1 )= -18.5798 eV   Re[Sigma]=     -59.739275 meV Im[Sigma]=      43.178353 meV     Z=       1.007120 lam=      -0.007069
     E(   2 )=  -6.8153 eV   Re[Sigma]=      -8.705045 meV Im[Sigma]=     101.821267 meV     Z=       1.010369 lam=      -0.010262
     E(   3 )=  -3.3726 eV   Re[Sigma]=      47.167453 meV Im[Sigma]=     161.062281 meV     Z=       1.029125 lam=      -0.028301
     E(   4 )=  -2.6774 eV   Re[Sigma]=      78.558464 meV Im[Sigma]=     166.879828 meV     Z=       1.042501 lam=      -0.040768
     -------------------------------------------------------------------


     ik =      75 coord.:    0.3333333   0.0000000   0.3333333
     -------------------------------------------------------------------
     E(   1 )= -17.3627 eV   Re[Sigma]=     -57.537749 meV Im[Sigma]=      47.188690 meV     Z=       0.997318 lam=       0.002689
     E(   2 )=  -6.7571 eV   Re[Sigma]=     -16.041683 meV Im[Sigma]=     107.218676 meV     Z=       1.007505 lam=      -0.007449
     E(   3 )=  -5.2091 eV   Re[Sigma]=       1.477997 meV Im[Sigma]=     110.267903 meV     Z=       1.019325 lam=      -0.018959
     E(   4 )=  -5.2091 eV   Re[Sigma]=       1.477997 meV Im[Sigma]=     110.267903 meV     Z=       1.019325 lam=      -0.018959
     -------------------------------------------------------------------


     ik =      76 coord.:    0.3333333   0.0000000   0.5000000
     -------------------------------------------------------------------
     E(   1 )= -14.7539 eV   Re[Sigma]=     -33.477959 meV Im[Sigma]=      54.566367 meV     Z=       1.000115 lam=      -0.000115
     E(   2 )= -10.1159 eV   Re[Sigma]=     -14.378012 meV Im[Sigma]=      56.345673 meV     Z=       1.000417 lam=      -0.000417
     E(   3 )=  -7.3620 eV   Re[Sigma]=      -9.188404 meV Im[Sigma]=      82.253394 meV     Z=       1.017752 lam=      -0.017443
     E(   4 )=  -5.8087 eV   Re[Sigma]=      -6.439364 meV Im[Sigma]=      82.433815 meV     Z=       1.006745 lam=      -0.006700
     -------------------------------------------------------------------


     ik =      77 coord.:    0.3333333   0.0000000   0.6666667
     -------------------------------------------------------------------
     E(   1 )= -13.7470 eV   Re[Sigma]=     -38.513602 meV Im[Sigma]=      55.860866 meV     Z=       1.001880 lam=      -0.001876
     E(   2 )= -10.6613 eV   Re[Sigma]=     -17.472811 meV Im[Sigma]=      60.162054 meV     Z=       1.005143 lam=      -0.005117
     E(   3 )=  -9.4560 eV   Re[Sigma]=      -0.121455 meV Im[Sigma]=      36.010370 meV     Z=       0.992675 lam=       0.007379
     E(   4 )=  -4.5536 eV   Re[Sigma]=      11.514503 meV Im[Sigma]=     129.593801 meV     Z=       1.021043 lam=      -0.020609
     -------------------------------------------------------------------


     ik =      78 coord.:    0.3333333   0.0000000   0.8333333
     -------------------------------------------------------------------
     E(   1 )= -16.6834 eV   Re[Sigma]=     -52.611190 meV Im[Sigma]=      66.272698 meV     Z=       1.014628 lam=      -0.014417
     E(   2 )= -10.6236 eV   Re[Sigma]=      -9.319630 meV Im[Sigma]=      55.602218 meV     Z=       1.004801 lam=      -0.004778
     E(   3 )=  -5.2837 eV   Re[Sigma]=      -0.083441 meV Im[Sigma]=     121.881643 meV     Z=       1.022861 lam=      -0.022350
     E(   4 )=  -2.6703 eV   Re[Sigma]=      72.304206 meV Im[Sigma]=     157.708334 meV     Z=       1.040364 lam=      -0.038798
     -------------------------------------------------------------------


     ik =      79 coord.:    0.3333333   0.1666667   0.0000000
     -------------------------------------------------------------------
     E(   1 )= -18.5798 eV   Re[Sigma]=     -59.739275 meV Im[Sigma]=      43.178364 meV     Z=       1.007120 lam=      -0.007069
     E(   2 )=  -6.8153 eV   Re[Sigma]=      -8.705040 meV Im[Sigma]=     101.821250 meV     Z=       1.010369 lam=      -0.010262
     E(   3 )=  -3.3726 eV   Re[Sigma]=      47.167447 meV Im[Sigma]=     161.062267 meV     Z=       1.029125 lam=      -0.028301
     E(   4 )=  -2.6774 eV   Re[Sigma]=      78.558459 meV Im[Sigma]=     166.879805 meV     Z=       1.042501 lam=      -0.040768
     -------------------------------------------------------------------


     ik =      80 coord.:    0.3333333   0.1666667   0.1666667
     -------------------------------------------------------------------
     E(   1 )= -19.3208 eV   Re[Sigma]=     -66.965645 meV Im[Sigma]=      35.445669 meV     Z=       1.001175 lam=      -0.001174
     E(   2 )=  -5.1780 eV   Re[Sigma]=       3.986211 meV Im[Sigma]=     150.049898 meV     Z=       1.027921 lam=      -0.027162
     E(   3 )=  -3.7366 eV   Re[Sigma]=      39.636426 meV Im[Sigma]=     162.744241 meV     Z=       1.028941 lam=      -0.028127
     E(   4 )=  -0.9280 eV   Re[Sigma]=     116.477433 meV Im[Sigma]=      85.695751 meV     Z=       1.005621 lam=      -0.005590
     -------------------------------------------------------------------


     ik =      81 coord.:    0.3333333   0.1666667   0.3333333
     -------------------------------------------------------------------
     E(   1 )= -18.5798 eV   Re[Sigma]=     -59.739273 meV Im[Sigma]=      43.178366 meV     Z=       1.007120 lam=      -0.007069
     E(   2 )=  -6.8153 eV   Re[Sigma]=      -8.705042 meV Im[Sigma]=     101.821247 meV     Z=       1.010369 lam=      -0.010262
     E(   3 )=  -3.3726 eV   Re[Sigma]=      47.167451 meV Im[Sigma]=     161.062295 meV     Z=       1.029125 lam=      -0.028301
     E(   4 )=  -2.6774 eV   Re[Sigma]=      78.558473 meV Im[Sigma]=     166.879805 meV     Z=       1.042501 lam=      -0.040768
     -------------------------------------------------------------------


     ik =      82 coord.:    0.3333333   0.1666667   0.5000000
     -------------------------------------------------------------------
     E(   1 )= -16.3840 eV   Re[Sigma]=     -47.931925 meV Im[Sigma]=      68.505936 meV     Z=       1.012206 lam=      -0.012059
     E(   2 )=  -8.5864 eV   Re[Sigma]=     -26.484806 meV Im[Sigma]=      58.374606 meV     Z=       0.994038 lam=       0.005998
     E(   3 )=  -7.0104 eV   Re[Sigma]=      -4.599684 meV Im[Sigma]=      87.707884 meV     Z=       1.015633 lam=      -0.015392
     E(   4 )=  -4.0915 eV   Re[Sigma]=      25.706277 meV Im[Sigma]=     143.418479 meV     Z=       1.027685 lam=      -0.026939
     -------------------------------------------------------------------


     ik =      83 coord.:    0.3333333   0.1666667   0.6666667
     -------------------------------------------------------------------
     E(   1 )= -13.5146 eV   Re[Sigma]=     -44.733635 meV Im[Sigma]=      57.861381 meV     Z=       0.999762 lam=       0.000238
     E(   2 )= -11.9136 eV   Re[Sigma]=      -2.667175 meV Im[Sigma]=      62.462851 meV     Z=       1.008328 lam=      -0.008259
     E(   3 )=  -7.5784 eV   Re[Sigma]=     -17.423816 meV Im[Sigma]=      90.621080 meV     Z=       1.018796 lam=      -0.018449
     E(   4 )=  -5.4111 eV   Re[Sigma]=      -0.932880 meV Im[Sigma]=     104.559921 meV     Z=       1.019678 lam=      -0.019298
     -------------------------------------------------------------------


     ik =      84 coord.:    0.3333333   0.1666667   0.8333333
     -------------------------------------------------------------------
     E(   1 )= -16.3840 eV   Re[Sigma]=     -47.931926 meV Im[Sigma]=      68.505950 meV     Z=       1.012206 lam=      -0.012059
     E(   2 )=  -8.5864 eV   Re[Sigma]=     -26.484803 meV Im[Sigma]=      58.374609 meV     Z=       0.994038 lam=       0.005998
     E(   3 )=  -7.0104 eV   Re[Sigma]=      -4.599693 meV Im[Sigma]=      87.707871 meV     Z=       1.015633 lam=      -0.015392
     E(   4 )=  -4.0915 eV   Re[Sigma]=      25.706271 meV Im[Sigma]=     143.418466 meV     Z=       1.027685 lam=      -0.026939
     -------------------------------------------------------------------


     ik =      85 coord.:    0.3333333   0.3333333   0.0000000
     -------------------------------------------------------------------
     E(   1 )= -17.3627 eV   Re[Sigma]=     -57.537748 meV Im[Sigma]=      47.188689 meV     Z=       0.997318 lam=       0.002689
     E(   2 )=  -6.7571 eV   Re[Sigma]=     -16.041682 meV Im[Sigma]=     107.218674 meV     Z=       1.007505 lam=      -0.007449
     E(   3 )=  -5.2091 eV   Re[Sigma]=       1.478001 meV Im[Sigma]=     110.267886 meV     Z=       1.019325 lam=      -0.018959
     E(   4 )=  -5.2091 eV   Re[Sigma]=       1.478001 meV Im[Sigma]=     110.267886 meV     Z=       1.019325 lam=      -0.018959
     -------------------------------------------------------------------


     ik =      86 coord.:    0.3333333   0.3333333   0.1666667
     -------------------------------------------------------------------
     E(   1 )= -18.5798 eV   Re[Sigma]=     -59.739271 meV Im[Sigma]=      43.178356 meV     Z=       1.007120 lam=      -0.007069
     E(   2 )=  -6.8153 eV   Re[Sigma]=      -8.705035 meV Im[Sigma]=     101.821250 meV     Z=       1.010369 lam=      -0.010262
     E(   3 )=  -3.3726 eV   Re[Sigma]=      47.167455 meV Im[Sigma]=     161.062274 meV     Z=       1.029125 lam=      -0.028301
     E(   4 )=  -2.6774 eV   Re[Sigma]=      78.558473 meV Im[Sigma]=     166.879823 meV     Z=       1.042501 lam=      -0.040768
     -------------------------------------------------------------------


     ik =      87 coord.:    0.3333333   0.3333333   0.3333333
     -------------------------------------------------------------------
     E(   1 )= -18.3959 eV   Re[Sigma]=     -56.957898 meV Im[Sigma]=      43.534978 meV     Z=       1.004062 lam=      -0.004046
     E(   2 )=  -9.2172 eV   Re[Sigma]=     -17.359451 meV Im[Sigma]=      43.322249 meV     Z=       0.990934 lam=       0.009149
     E(   3 )=  -2.0888 eV   Re[Sigma]=      95.978621 meV Im[Sigma]=     140.311183 meV     Z=       1.020305 lam=      -0.019901
     E(   4 )=  -2.0888 eV   Re[Sigma]=      95.978621 meV Im[Sigma]=     140.311183 meV     Z=       1.020305 lam=      -0.019901
     -------------------------------------------------------------------


     ik =      88 coord.:    0.3333333   0.3333333   0.5000000
     -------------------------------------------------------------------
     E(   1 )= -16.6834 eV   Re[Sigma]=     -52.611190 meV Im[Sigma]=      66.272696 meV     Z=       1.014628 lam=      -0.014417
[...]
      202        3     -7.3620     -9.1884     82.2534      1.0178     -0.0174
      203        3     -7.0104     -4.5997     87.7079      1.0156     -0.0154
      204        3     -5.2837     -0.0834    121.8816      1.0229     -0.0223
      205        3     -3.3726     47.1674    161.0624      1.0291     -0.0283
      206        3     -7.0104     -4.5997     87.7079      1.0156     -0.0154
      207        3     -7.5784    -17.4239     90.6211      1.0188     -0.0184
      208        3     -7.0104     -4.5997     87.7079      1.0156     -0.0154
      209        3     -3.3726     47.1674    161.0624      1.0291     -0.0283
      210        3     -3.7366     39.6364    162.7442      1.0289     -0.0281
      211        3     -1.6770    112.9214    117.0021      1.0070     -0.0069
      212        3     -3.3726     47.1674    161.0623      1.0291     -0.0283
      213        3     -4.5402     13.2330    140.0468      1.0232     -0.0227
      214        3     -5.2837     -0.0834    121.8816      1.0229     -0.0223
      215        3     -3.7366     39.6364    162.7442      1.0289     -0.0281
      216        3     -0.4637    132.9709     77.0150      1.0031     -0.0031
  
        1        4      0.3164    143.0851     40.7104      0.9826      0.0177
        2        4     -0.4637    132.9709     77.0150      1.0031     -0.0031
        3        4     -2.0888     95.9786    140.3112      1.0203     -0.0199
        4        4     -2.9337     56.0868    163.9585      1.0432     -0.0414
        5        4     -2.0888     95.9786    140.3112      1.0203     -0.0199
        6        4     -0.4637    132.9709     77.0150      1.0031     -0.0031
        7        4     -0.4637    132.9709     77.0150      1.0031     -0.0031
        8        4     -1.6770    112.9214    117.0021      1.0070     -0.0069
        9        4     -2.6774     78.5585    166.8798      1.0425     -0.0408
       10        4     -3.9016     27.7579    142.3084      1.0265     -0.0258
       11        4     -2.6703     72.3042    157.7083      1.0404     -0.0388
       12        4     -0.9280    116.4774     85.6958      1.0056     -0.0056
       13        4     -2.0888     95.9786    140.3112      1.0203     -0.0199
       14        4     -2.6774     78.5585    166.8798      1.0425     -0.0408
       15        4     -5.2091      1.4780    110.2679      1.0193     -0.0190
       16        4     -5.8087     -6.4394     82.4338      1.0067     -0.0067
       17        4     -4.5536     11.5145    129.5938      1.0210     -0.0206
       18        4     -2.6703     72.3042    157.7083      1.0404     -0.0388
       19        4     -2.9337     56.0868    163.9585      1.0432     -0.0414
       20        4     -3.9016     27.7579    142.3084      1.0265     -0.0258
       21        4     -5.8087     -6.4394     82.4338      1.0067     -0.0067
       22        4     -6.7479     -1.6920     66.2489      1.0056     -0.0055
       23        4     -5.8087     -6.4394     82.4338      1.0067     -0.0067
       24        4     -3.9016     27.7579    142.3084      1.0265     -0.0258
       25        4     -2.0888     95.9786    140.3112      1.0203     -0.0199
       26        4     -2.6703     72.3042    157.7083      1.0404     -0.0388
       27        4     -4.5536     11.5145    129.5938      1.0210     -0.0206
       28        4     -5.8087     -6.4394     82.4338      1.0067     -0.0067
       29        4     -5.2091      1.4779    110.2679      1.0193     -0.0190
       30        4     -2.6774     78.5585    166.8799      1.0425     -0.0408
       31        4     -0.4637    132.9709     77.0150      1.0031     -0.0031
       32        4     -0.9280    116.4774     85.6958      1.0056     -0.0056
       33        4     -2.6703     72.3042    157.7083      1.0404     -0.0388
       34        4     -3.9016     27.7579    142.3084      1.0265     -0.0258
       35        4     -2.6774     78.5585    166.8799      1.0425     -0.0408
       36        4     -1.6770    112.9214    117.0021      1.0070     -0.0069
       37        4     -0.4637    132.9709     77.0150      1.0031     -0.0031
       38        4     -1.6770    112.9214    117.0021      1.0070     -0.0069
       39        4     -2.6774     78.5585    166.8798      1.0425     -0.0408
       40        4     -3.9016     27.7579    142.3084      1.0265     -0.0258
       41        4     -2.6703     72.3042    157.7083      1.0404     -0.0388
       42        4     -0.9280    116.4774     85.6958      1.0056     -0.0056
       43        4     -1.6770    112.9214    117.0021      1.0070     -0.0069
       44        4     -0.4637    132.9709     77.0150      1.0031     -0.0031
       45        4     -0.9280    116.4774     85.6957      1.0056     -0.0056
       46        4     -2.6703     72.3042    157.7083      1.0404     -0.0388
       47        4     -3.9016     27.7579    142.3084      1.0265     -0.0258
       48        4     -2.6774     78.5584    166.8798      1.0425     -0.0408
       49        4     -2.6774     78.5585    166.8798      1.0425     -0.0408
       50        4     -0.9280    116.4774     85.6957      1.0056     -0.0056
       51        4     -2.6774     78.5585    166.8798      1.0425     -0.0408
       52        4     -4.0915     25.7063    143.4185      1.0277     -0.0269
       53        4     -5.4111     -0.9329    104.5599      1.0197     -0.0193
       54        4     -4.0915     25.7063    143.4185      1.0277     -0.0269
       55        4     -3.9016     27.7579    142.3084      1.0265     -0.0258
       56        4     -2.6703     72.3042    157.7083      1.0404     -0.0388
       57        4     -4.0915     25.7063    143.4185      1.0277     -0.0269
       58        4     -5.8087     -6.4394     82.4338      1.0067     -0.0067
       59        4     -7.6378     -9.5928     69.8451      1.0119     -0.0117
       60        4     -5.4111     -0.9329    104.5599      1.0197     -0.0193
       61        4     -2.6703     72.3042    157.7083      1.0404     -0.0388
       62        4     -3.9016     27.7579    142.3084      1.0265     -0.0258
       63        4     -5.4111     -0.9329    104.5599      1.0197     -0.0193
       64        4     -7.6378     -9.5928     69.8451      1.0119     -0.0117
       65        4     -5.8087     -6.4394     82.4338      1.0067     -0.0067
       66        4     -4.0915     25.7062    143.4185      1.0277     -0.0269
       67        4     -0.9280    116.4774     85.6958      1.0056     -0.0056
       68        4     -2.6774     78.5585    166.8798      1.0425     -0.0408
       69        4     -4.0915     25.7063    143.4185      1.0277     -0.0269
       70        4     -5.4111     -0.9329    104.5599      1.0197     -0.0193
       71        4     -4.0915     25.7062    143.4185      1.0277     -0.0269
       72        4     -2.6774     78.5585    166.8799      1.0425     -0.0408
       73        4     -2.0888     95.9786    140.3112      1.0203     -0.0199
       74        4     -2.6774     78.5585    166.8798      1.0425     -0.0408
       75        4     -5.2091      1.4780    110.2679      1.0193     -0.0190
       76        4     -5.8087     -6.4394     82.4338      1.0067     -0.0067
       77        4     -4.5536     11.5145    129.5938      1.0210     -0.0206
       78        4     -2.6703     72.3042    157.7083      1.0404     -0.0388
       79        4     -2.6774     78.5585    166.8798      1.0425     -0.0408
       80        4     -0.9280    116.4774     85.6958      1.0056     -0.0056
       81        4     -2.6774     78.5585    166.8798      1.0425     -0.0408
       82        4     -4.0915     25.7063    143.4185      1.0277     -0.0269
       83        4     -5.4111     -0.9329    104.5599      1.0197     -0.0193
       84        4     -4.0915     25.7063    143.4185      1.0277     -0.0269
       85        4     -5.2091      1.4780    110.2679      1.0193     -0.0190
       86        4     -2.6774     78.5585    166.8798      1.0425     -0.0408
       87        4     -2.0888     95.9786    140.3112      1.0203     -0.0199
       88        4     -2.6703     72.3042    157.7083      1.0404     -0.0388
       89        4     -4.5536     11.5145    129.5938      1.0210     -0.0206
       90        4     -5.8087     -6.4394     82.4338      1.0067     -0.0067
       91        4     -5.8087     -6.4394     82.4338      1.0067     -0.0067
       92        4     -4.0915     25.7063    143.4185      1.0277     -0.0269
       93        4     -2.6703     72.3042    157.7083      1.0404     -0.0388
       94        4     -3.9016     27.7579    142.3084      1.0265     -0.0258
       95        4     -5.4111     -0.9329    104.5599      1.0197     -0.0193
       96        4     -7.6378     -9.5928     69.8451      1.0119     -0.0117
       97        4     -4.5536     11.5145    129.5938      1.0210     -0.0206
       98        4     -5.4111     -0.9329    104.5599      1.0197     -0.0193
       99        4     -4.5536     11.5145    129.5938      1.0210     -0.0206
      100        4     -5.4111     -0.9329    104.5599      1.0197     -0.0193
      101        4     -4.5536     11.5145    129.5938      1.0210     -0.0206
      102        4     -5.4111     -0.9329    104.5599      1.0197     -0.0193
      103        4     -2.6703     72.3042    157.7083      1.0404     -0.0388
      104        4     -4.0915     25.7063    143.4185      1.0277     -0.0269
      105        4     -5.8087     -6.4394     82.4338      1.0067     -0.0067
      106        4     -7.6378     -9.5928     69.8451      1.0119     -0.0117
      107        4     -5.4111     -0.9329    104.5599      1.0197     -0.0193
      108        4     -3.9016     27.7579    142.3084      1.0265     -0.0258
      109        4     -2.9337     56.0868    163.9585      1.0432     -0.0414
      110        4     -3.9016     27.7579    142.3084      1.0265     -0.0258
      111        4     -5.8087     -6.4394     82.4338      1.0067     -0.0067
      112        4     -6.7479     -1.6920     66.2489      1.0056     -0.0055
      113        4     -5.8087     -6.4394     82.4338      1.0067     -0.0067
      114        4     -3.9016     27.7579    142.3084      1.0265     -0.0258
      115        4     -3.9016     27.7579    142.3084      1.0265     -0.0258
      116        4     -2.6703     72.3042    157.7083      1.0404     -0.0388
      117        4     -4.0915     25.7063    143.4185      1.0277     -0.0269
      118        4     -5.8087     -6.4394     82.4338      1.0067     -0.0067
      119        4     -7.6378     -9.5928     69.8450      1.0119     -0.0117
      120        4     -5.4111     -0.9329    104.5599      1.0197     -0.0193
      121        4     -5.8087     -6.4394     82.4338      1.0067     -0.0067
      122        4     -4.0915     25.7063    143.4185      1.0277     -0.0269
      123        4     -2.6703     72.3042    157.7083      1.0404     -0.0388
      124        4     -3.9016     27.7579    142.3084      1.0265     -0.0258
      125        4     -5.4111     -0.9329    104.5599      1.0197     -0.0193
      126        4     -7.6378     -9.5928     69.8450      1.0119     -0.0117
      127        4     -6.7479     -1.6920     66.2489      1.0056     -0.0055
      128        4     -5.8087     -6.4394     82.4338      1.0067     -0.0067
      129        4     -3.9016     27.7579    142.3084      1.0265     -0.0258
      130        4     -2.9337     56.0868    163.9585      1.0432     -0.0414
      131        4     -3.9016     27.7579    142.3084      1.0265     -0.0258
      132        4     -5.8087     -6.4394     82.4338      1.0067     -0.0067
      133        4     -5.8087     -6.4394     82.4339      1.0067     -0.0067
      134        4     -7.6378     -9.5928     69.8450      1.0119     -0.0117
      135        4     -5.4111     -0.9329    104.5599      1.0197     -0.0193
      136        4     -3.9016     27.7579    142.3084      1.0265     -0.0258
      137        4     -2.6703     72.3042    157.7083      1.0404     -0.0388
      138        4     -4.0915     25.7063    143.4185      1.0277     -0.0269
      139        4     -3.9016     27.7579    142.3084      1.0265     -0.0258
      140        4     -5.4111     -0.9329    104.5599      1.0197     -0.0193
      141        4     -7.6378     -9.5928     69.8451      1.0119     -0.0117
      142        4     -5.8087     -6.4394     82.4338      1.0067     -0.0067
      143        4     -4.0915     25.7063    143.4185      1.0277     -0.0269
      144        4     -2.6703     72.3042    157.7083      1.0404     -0.0388
      145        4     -2.0888     95.9786    140.3112      1.0203     -0.0199
      146        4     -2.6703     72.3042    157.7083      1.0404     -0.0388
      147        4     -4.5536     11.5145    129.5938      1.0210     -0.0206
      148        4     -5.8087     -6.4394     82.4338      1.0067     -0.0067
      149        4     -5.2091      1.4780    110.2679      1.0193     -0.0190
      150        4     -2.6774     78.5585    166.8799      1.0425     -0.0408
      151        4     -2.6703     72.3042    157.7083      1.0404     -0.0388
      152        4     -3.9016     27.7579    142.3084      1.0265     -0.0258
      153        4     -5.4111     -0.9329    104.5599      1.0197     -0.0193
      154        4     -7.6378     -9.5928     69.8450      1.0119     -0.0117
      155        4     -5.8087     -6.4394     82.4338      1.0067     -0.0067
      156        4     -4.0915     25.7063    143.4185      1.0277     -0.0269
      157        4     -4.5536     11.5145    129.5938      1.0210     -0.0206
      158        4     -5.4111     -0.9329    104.5599      1.0197     -0.0193
      159        4     -4.5536     11.5145    129.5938      1.0210     -0.0206
      160        4     -5.4111     -0.9329    104.5599      1.0197     -0.0193
      161        4     -4.5536     11.5145    129.5938      1.0210     -0.0206
      162        4     -5.4111     -0.9329    104.5599      1.0197     -0.0193
      163        4     -5.8087     -6.4394     82.4338      1.0067     -0.0067
      164        4     -7.6378     -9.5928     69.8450      1.0119     -0.0117
      165        4     -5.4111     -0.9329    104.5599      1.0197     -0.0193
      166        4     -3.9016     27.7579    142.3084      1.0265     -0.0258
      167        4     -2.6703     72.3042    157.7083      1.0404     -0.0388
      168        4     -4.0915     25.7063    143.4185      1.0277     -0.0269
      169        4     -5.2091      1.4779    110.2679      1.0193     -0.0190
      170        4     -5.8087     -6.4394     82.4338      1.0067     -0.0067
      171        4     -4.5536     11.5145    129.5938      1.0210     -0.0206
      172        4     -2.6703     72.3042    157.7083      1.0404     -0.0388
      173        4     -2.0888     95.9786    140.3112      1.0203     -0.0199
      174        4     -2.6774     78.5585    166.8799      1.0425     -0.0408
      175        4     -2.6774     78.5585    166.8799      1.0425     -0.0408
      176        4     -4.0915     25.7062    143.4185      1.0277     -0.0269
      177        4     -5.4111     -0.9329    104.5599      1.0197     -0.0193
      178        4     -4.0915     25.7062    143.4185      1.0277     -0.0269
      179        4     -2.6774     78.5585    166.8798      1.0425     -0.0408
      180        4     -0.9280    116.4774     85.6958      1.0056     -0.0056
      181        4     -0.4637    132.9709     77.0150      1.0031     -0.0031
      182        4     -0.9280    116.4774     85.6958      1.0056     -0.0056
      183        4     -2.6703     72.3042    157.7083      1.0404     -0.0388
      184        4     -3.9016     27.7579    142.3084      1.0265     -0.0258
      185        4     -2.6774     78.5585    166.8799      1.0425     -0.0408
      186        4     -1.6770    112.9214    117.0021      1.0070     -0.0069
      187        4     -0.9280    116.4774     85.6958      1.0056     -0.0056
      188        4     -2.6774     78.5585    166.8798      1.0425     -0.0408
      189        4     -4.0915     25.7063    143.4185      1.0277     -0.0269
      190        4     -5.4111     -0.9329    104.5599      1.0197     -0.0193
      191        4     -4.0915     25.7062    143.4185      1.0277     -0.0269
      192        4     -2.6774     78.5585    166.8798      1.0425     -0.0408
      193        4     -2.6703     72.3042    157.7083      1.0404     -0.0388
      194        4     -4.0915     25.7063    143.4185      1.0277     -0.0269
      195        4     -5.8087     -6.4394     82.4338      1.0067     -0.0067
      196        4     -7.6378     -9.5928     69.8451      1.0119     -0.0117
      197        4     -5.4111     -0.9329    104.5599      1.0197     -0.0193
      198        4     -3.9016     27.7579    142.3084      1.0265     -0.0258
      199        4     -3.9016     27.7579    142.3084      1.0265     -0.0258
      200        4     -5.4111     -0.9329    104.5599      1.0197     -0.0193
      201        4     -7.6378     -9.5928     69.8451      1.0119     -0.0117
      202        4     -5.8087     -6.4394     82.4338      1.0067     -0.0067
      203        4     -4.0915     25.7062    143.4185      1.0277     -0.0269
      204        4     -2.6703     72.3042    157.7083      1.0404     -0.0388
      205        4     -2.6774     78.5585    166.8799      1.0425     -0.0408
      206        4     -4.0915     25.7062    143.4185      1.0277     -0.0269
      207        4     -5.4111     -0.9329    104.5599      1.0197     -0.0193
      208        4     -4.0915     25.7062    143.4185      1.0277     -0.0269
      209        4     -2.6774     78.5585    166.8799      1.0425     -0.0408
      210        4     -0.9280    116.4774     85.6958      1.0056     -0.0056
      211        4     -1.6770    112.9214    117.0021      1.0070     -0.0069
      212        4     -2.6774     78.5585    166.8799      1.0425     -0.0408
      213        4     -3.9016     27.7579    142.3084      1.0265     -0.0258
      214        4     -2.6703     72.3042    157.7083      1.0404     -0.0388
      215        4     -0.9280    116.4774     85.6958      1.0056     -0.0056
      216        4     -0.4637    132.9709     77.0150      1.0031     -0.0031
  
     ===================================================================
     Memory usage:  VmHWM =        26Mb
                   VmPeak =       356Mb
     ===================================================================


     Unfolding on the coarse grid
     elphon_wrap  :      0.01s CPU      0.01s WALL (       1 calls)

     INITIALIZATION: 

     init_vloc    :      0.00s CPU      0.00s WALL (       1 calls)
     init_us_1    :      0.01s CPU      0.01s WALL (       1 calls)



     Electron-Phonon interpolation
     ephwann      :     19.03s CPU     19.31s WALL (       1 calls)
     ep-interp    :     17.52s CPU     17.80s WALL (     216 calls)

     Ham: step 1  :      0.00s CPU      0.00s WALL (       1 calls)
     Ham: step 2  :      0.00s CPU      0.00s WALL (       1 calls)
     ep: step 1   :      0.00s CPU      0.00s WALL (     162 calls)
     ep: step 2   :     17.74s CPU     18.01s WALL (       1 calls)
     DynW2B       :      0.01s CPU      0.01s WALL (     216 calls)
     HamW2B       :      1.89s CPU      1.91s WALL (   93960 calls)
     ephW2Bp      :      0.78s CPU      0.91s WALL (     216 calls)
     ephW2B       :      4.84s CPU      4.87s WALL (   46656 calls)


     Total program execution
     EPW          :     19.16s CPU     19.43s WALL

     ===============================================================================
     The functionality-dependent EPW.bib file was created with suggested citations. 
     Please consider citing the papers listed in EPW.bib.                           
     ===============================================================================
                                                                                    
