
     Program PWSCF v.6.7GPU starts on  4Feb2021 at 15:28:55 

     This program is part of the open-source Quantum ESPRESSO suite
     for quantum simulation of materials; please cite
         "P. Giannozzi et al., J. Phys.:Condens. Matter 21 395502 (2009);
         "P. Giannozzi et al., J. Phys.:Condens. Matter 29 465901 (2017);
         "P. Giannozzi et al., J. Chem. Phys. 152 154105 (2020);
          URL http://www.quantum-espresso.org", 
     in publications or presentations arising from this work. More details at
     http://www.quantum-espresso.org/quote

     Serial version
     Reading input from vc-relax1.in

     Current dimensions of program PWSCF are:
     Max number of different atomic species (ntypx) = 10
     Max number of k-points (npk) =  40000
     Max angular momentum in pseudopotentials (lmaxx) =  3

     File ./pwscf.md deleted, as requested

     G-vector sticks info
     --------------------
     sticks:   dense  smooth     PW     G-vecs:    dense   smooth      PW
     Sum         349     349    121                 4159     4159     833

     Using Slab Decomposition



     bravais-lattice index     =           14
     lattice parameter (alat)  =       7.0103  a.u.
     unit-cell volume          =     245.3705 (a.u.)^3
     number of atoms/cell      =            2
     number of atomic types    =            1
     number of electrons       =        10.00
     number of Kohn-Sham states=            9
     kinetic-energy cutoff     =      25.0000  Ry
     charge density cutoff     =     100.0000  Ry
     scf convergence threshold =      1.0E-07
     mixing beta               =       0.7000
     number of iterations used =            8  plain     mixing
     energy convergence thresh.=      1.0E-04
     force convergence thresh. =      1.0E-03
     press convergence thresh. =      5.0E-01
     Exchange-correlation= SLA  PZ   NOGX NOGC
                           (   1   1   0   0   0   0   0)
     nstep                     =           50


     celldm(1)=   7.010336  celldm(2)=   1.000000  celldm(3)=   1.000000
     celldm(4)=   0.495175  celldm(5)=   0.495175  celldm(6)=   0.495175

     crystal axes: (cart. coord. in units of alat)
               a(1) = (   1.000000   0.000000   0.000000 )  
               a(2) = (   0.495175   0.868793   0.000000 )  
               a(3) = (   0.495175   0.287729   0.819765 )  

     reciprocal axes: (cart. coord. in units 2 pi/alat)
               b(1) = (  1.000000 -0.569957 -0.403996 )  
               b(2) = (  0.000000  1.151022 -0.403996 )  
               b(3) = (  0.000000  0.000000  1.219862 )  


     PseudoPot. # 1 for As read from file:
     /users/fdossant/codes/gitlab_q-e/test-suite/..//pseudo/As.pz-bhs.UPF
     MD5 check sum: 2c53d8691f3db84e0fbdf898b12bc293
     Pseudo is Norm-conserving, Zval =  5.0
     Generated by new atomic code, or converted to UPF format
     Using radial grid of  525 points,  2 beta functions with: 
                l(1) =   0
                l(2) =   1

     atomic species   valence    mass     pseudopotential
        As             5.00    74.90000     As( 1.00)

      cell mass =   0.00700 AMU/(a.u.)^2 

      2 Sym. Ops., with inversion, found



   Cartesian axes

     site n.     atom                  positions (alat units)
         1           As  tau(   1) = (   0.5772212   0.3354030   0.2377400  )
         2           As  tau(   2) = (  -0.5772212  -0.3354030  -0.2377400  )

     number of k points=    32  Methfessel-Paxton smearing, width (Ry)=  0.0050
                       cart. coord. in units 2pi/alat
        k(    1) = (   0.1250000   0.0726331   0.0514837), wk =   0.0625000
        k(    2) = (   0.1250000   0.0726331   0.3564493), wk =   0.0625000
        k(    3) = (   0.1250000   0.0726331  -0.5584473), wk =   0.0625000
        k(    4) = (   0.1250000   0.0726331  -0.2534818), wk =   0.0625000
        k(    5) = (   0.1250000   0.3603885  -0.0495153), wk =   0.0625000
        k(    6) = (   0.1250000   0.3603885   0.2554502), wk =   0.0625000
        k(    7) = (   0.1250000   0.3603885  -0.6594464), wk =   0.0625000
        k(    8) = (   0.1250000   0.3603885  -0.3544809), wk =   0.0625000
        k(    9) = (   0.1250000  -0.5028777   0.2534818), wk =   0.0625000
        k(   10) = (   0.1250000  -0.5028777   0.5584473), wk =   0.0625000
        k(   11) = (   0.1250000  -0.5028777  -0.3564493), wk =   0.0625000
        k(   12) = (   0.1250000  -0.5028777  -0.0514837), wk =   0.0625000
        k(   13) = (   0.1250000  -0.2151223   0.1524828), wk =   0.0625000
        k(   14) = (   0.1250000  -0.2151223   0.4574483), wk =   0.0625000
        k(   15) = (   0.1250000  -0.2151223  -0.4574483), wk =   0.0625000
        k(   16) = (   0.1250000  -0.2151223  -0.1524828), wk =   0.0625000
        k(   17) = (   0.3750000  -0.0698561  -0.0495153), wk =   0.0625000
        k(   18) = (   0.3750000  -0.0698561   0.2554502), wk =   0.0625000
        k(   19) = (   0.3750000  -0.0698561  -0.6594464), wk =   0.0625000
        k(   20) = (   0.3750000  -0.0698561  -0.3544809), wk =   0.0625000
        k(   21) = (   0.3750000   0.2178993  -0.1505144), wk =   0.0625000
        k(   22) = (   0.3750000   0.2178993   0.1544512), wk =   0.0625000
        k(   23) = (   0.3750000   0.2178993  -0.7604454), wk =   0.0625000
        k(   24) = (   0.3750000   0.2178993  -0.4554799), wk =   0.0625000
        k(   25) = (   0.3750000  -0.6453669   0.1524828), wk =   0.0625000
        k(   26) = (   0.3750000  -0.6453669   0.4574483), wk =   0.0625000
        k(   27) = (   0.3750000  -0.6453669  -0.4574483), wk =   0.0625000
        k(   28) = (   0.3750000  -0.6453669  -0.1524828), wk =   0.0625000
        k(   29) = (   0.3750000  -0.3576115   0.0514837), wk =   0.0625000
        k(   30) = (   0.3750000  -0.3576115   0.3564493), wk =   0.0625000
        k(   31) = (   0.3750000  -0.3576115  -0.5584473), wk =   0.0625000
        k(   32) = (   0.3750000  -0.3576115  -0.2534818), wk =   0.0625000

     Dense  grid:     4159 G-vectors     FFT dimensions: (  24,  24,  24)

     Estimated max dynamical RAM per process >       5.86 MB

     Initial potential from superposition of free atoms

     starting charge    9.99960, renormalised to   10.00000
     Starting wfcs are    8 randomized atomic wfcs +    1 random wfcs

     total cpu time spent up to now is        0.2 secs

     Self-consistent Calculation

     iteration #  1     ecut=    25.00 Ry     beta= 0.70
     Davidson diagonalization with overlap
     ethr =  1.00E-02,  avg # of iterations =  4.2

     Threshold (ethr) on eigenvalues was too large:
     Diagonalizing with lowered threshold

     Davidson diagonalization with overlap
     ethr =  1.54E-04,  avg # of iterations =  1.5

     total cpu time spent up to now is        0.9 secs

     total energy              =     -25.43995377 Ry
     estimated scf accuracy    <       0.01555766 Ry

     iteration #  2     ecut=    25.00 Ry     beta= 0.70
     Davidson diagonalization with overlap
     ethr =  1.56E-04,  avg # of iterations =  1.0

     total cpu time spent up to now is        1.1 secs

     total energy              =     -25.44012700 Ry
     estimated scf accuracy    <       0.00088637 Ry

     iteration #  3     ecut=    25.00 Ry     beta= 0.70
     Davidson diagonalization with overlap
     ethr =  8.86E-06,  avg # of iterations =  1.8

     total cpu time spent up to now is        1.3 secs

     total energy              =     -25.44015971 Ry
     estimated scf accuracy    <       0.00000515 Ry

     iteration #  4     ecut=    25.00 Ry     beta= 0.70
     Davidson diagonalization with overlap
     ethr =  5.15E-08,  avg # of iterations =  3.2

     total cpu time spent up to now is        1.7 secs

     total energy              =     -25.44016728 Ry
     estimated scf accuracy    <       0.00000066 Ry

     iteration #  5     ecut=    25.00 Ry     beta= 0.70
     Davidson diagonalization with overlap
     ethr =  6.60E-09,  avg # of iterations =  1.4

     total cpu time spent up to now is        1.9 secs

     End of self-consistent calculation

          k = 0.1250 0.0726 0.0515 (   531 PWs)   bands (ev):

    -6.9959   4.5199   5.9668   5.9668   8.4358  11.0403  11.7602  11.7603
    16.5645

          k = 0.1250 0.0726 0.3564 (   522 PWs)   bands (ev):

    -5.9249   0.3918   5.3512   5.6502   9.2996  10.5304  11.7007  13.5632
    15.7171

          k = 0.1250 0.0726-0.5584 (   520 PWs)   bands (ev):

    -4.3490  -2.4704   4.7884   6.1554   7.8797  10.8149  12.5850  13.8262
    17.7262

          k = 0.1250 0.0726-0.2535 (   525 PWs)   bands (ev):

    -6.3694   1.3043   4.9860   7.1722   8.5435  10.8048  12.4703  13.9614
    15.3510

          k = 0.1250 0.3604-0.0495 (   522 PWs)   bands (ev):

    -5.9249   0.3918   5.3512   5.6502   9.2996  10.5304  11.7007  13.5632
    15.7167

          k = 0.1250 0.3604 0.2555 (   519 PWs)   bands (ev):

    -5.5427   1.1266   3.5658   4.2978   7.5160  10.4216  13.7076  13.7748
    16.9047

          k = 0.1250 0.3604-0.6594 (   510 PWs)   bands (ev):

    -3.8393  -1.8099   2.3271   4.2467   8.0540  11.6204  13.3234  15.7203
    17.3491

          k = 0.1250 0.3604-0.3545 (   521 PWs)   bands (ev):

    -4.7124  -1.4722   3.0017   6.6927   7.7778  12.3034  13.0676  13.4305
    16.0963

          k = 0.1250-0.5029 0.2535 (   520 PWs)   bands (ev):

    -4.3489  -2.4704   4.7884   6.1554   7.8797  10.8149  12.5850  13.8262
    17.7262

          k = 0.1250-0.5029 0.5584 (   510 PWs)   bands (ev):

    -3.8393  -1.8099   2.3271   4.2467   8.0540  11.6204  13.3234  15.7203
    17.3491

          k = 0.1250-0.5029-0.3564 (   510 PWs)   bands (ev):

    -4.0541  -1.5061   3.7085   3.7298   6.0243  10.0592  15.9114  17.7152
    18.4777

          k = 0.1250-0.5029-0.0515 (   521 PWs)   bands (ev):

    -4.7124  -1.4722   3.0017   6.6927   7.7778  12.3034  13.0676  13.4305
    16.0963

          k = 0.1250-0.2151 0.1525 (   525 PWs)   bands (ev):

    -6.3694   1.3043   4.9860   7.1722   8.5435  10.8048  12.4703  13.9614
    15.3510

          k = 0.1250-0.2151 0.4574 (   521 PWs)   bands (ev):

    -4.7124  -1.4722   3.0017   6.6927   7.7778  12.3035  13.0675  13.4305
    16.0963

          k = 0.1250-0.2151-0.4574 (   521 PWs)   bands (ev):

    -4.7124  -1.4722   3.0017   6.6927   7.7778  12.3034  13.0676  13.4305
    16.0963

          k = 0.1250-0.2151-0.1525 (   525 PWs)   bands (ev):

    -6.3694   1.3043   4.9860   7.1722   8.5435  10.8048  12.4703  13.9614
    15.3510

          k = 0.3750-0.0699-0.0495 (   522 PWs)   bands (ev):

    -5.9249   0.3918   5.3512   5.6502   9.2996  10.5304  11.7007  13.5632
    15.7167

          k = 0.3750-0.0699 0.2555 (   519 PWs)   bands (ev):

    -5.5427   1.1265   3.5658   4.2978   7.5160  10.4216  13.7076  13.7748
    16.9047

          k = 0.3750-0.0699-0.6594 (   510 PWs)   bands (ev):

    -3.8393  -1.8099   2.3271   4.2467   8.0540  11.6204  13.3234  15.7203
    17.3491

          k = 0.3750-0.0699-0.3545 (   521 PWs)   bands (ev):

    -4.7124  -1.4722   3.0017   6.6927   7.7778  12.3034  13.0675  13.4305
    16.0963

          k = 0.3750 0.2179-0.1505 (   519 PWs)   bands (ev):

    -5.5427   1.1266   3.5658   4.2978   7.5160  10.4216  13.7076  13.7748
    16.9047

          k = 0.3750 0.2179 0.1545 (   522 PWs)   bands (ev):

    -5.8586   0.8362   5.8840   5.8841   7.4111  10.0629  10.0629  12.1194
    17.3945

          k = 0.3750 0.2179-0.7604 (   520 PWs)   bands (ev):

    -4.8492  -0.0497   2.4338   4.7831   7.5089  11.6828  12.0644  14.4760
    17.7702

          k = 0.3750 0.2179-0.4555 (   510 PWs)   bands (ev):

    -4.0541  -1.5061   3.7085   3.7298   6.0243  10.0592  15.9114  17.7151
    18.4777

          k = 0.3750-0.6454 0.1525 (   510 PWs)   bands (ev):

    -3.8393  -1.8099   2.3271   4.2467   8.0540  11.6204  13.3234  15.7203
    17.3491

          k = 0.3750-0.6454 0.4574 (   520 PWs)   bands (ev):

    -4.8492  -0.0497   2.4338   4.7831   7.5089  11.6828  12.0644  14.4760
    17.7703

          k = 0.3750-0.6454-0.4574 (   520 PWs)   bands (ev):

    -4.8492  -0.0497   2.4338   4.7831   7.5089  11.6828  12.0644  14.4760
    17.7702

          k = 0.3750-0.6454-0.1525 (   510 PWs)   bands (ev):

    -3.8393  -1.8099   2.3271   4.2467   8.0540  11.6204  13.3234  15.7203
    17.3491

          k = 0.3750-0.3576 0.0515 (   521 PWs)   bands (ev):

    -4.7124  -1.4722   3.0017   6.6927   7.7778  12.3034  13.0675  13.4305
    16.0963

          k = 0.3750-0.3576 0.3564 (   510 PWs)   bands (ev):

    -4.0541  -1.5061   3.7085   3.7298   6.0243  10.0592  15.9114  17.7151
    18.4777

          k = 0.3750-0.3576-0.5584 (   510 PWs)   bands (ev):

    -3.8393  -1.8099   2.3271   4.2467   8.0540  11.6204  13.3234  15.7203
    17.3491

          k = 0.3750-0.3576-0.2535 (   520 PWs)   bands (ev):

    -4.3490  -2.4704   4.7884   6.1554   7.8797  10.8149  12.5850  13.8262
    17.7262

     the Fermi energy is     9.7241 ev

!    total energy              =     -25.44016736 Ry
     estimated scf accuracy    <       0.00000001 Ry
     smearing contrib. (-TS)   =       0.00000000 Ry
     internal energy E=F+TS    =     -25.44016736 Ry

     convergence has been achieved in   5 iterations

     Forces acting on atoms (cartesian axes, Ry/au):

     atom    1 type  1   force =    -0.10321841   -0.05997568   -0.04251193
     atom    2 type  1   force =     0.10321841    0.05997568    0.04251193

     Total force =     0.179212     Total SCF correction =     0.000012


     Computing stress (Cartesian axis) and pressure

          total   stress  (Ry/bohr**3)                   (kbar)     P=      217.54
   0.00123512  -0.00028462  -0.00020174          181.69      -41.87      -29.68
  -0.00028462   0.00155955  -0.00011722          -41.87      229.42      -17.24
  -0.00020174  -0.00011722   0.00164184          -29.68      -17.24      241.52


     Wentzcovitch Damped Cell Dynamics Minimization:
     convergence thresholds EPSE = 1.00E-04  EPSF = 1.00E-03

     Entering Dynamics;  it =     1   time =  0.00000 pico-seconds

  new lattice vectors (alat unit) :
   1.011834507  -0.002727125  -0.001933045
   0.498665540   0.880425467  -0.001932970
   0.498665534   0.289757038   0.831380607
  new unit-cell volume =    255.9453 (a.u.)^3
  new positions in cryst coord
As       0.288384546   0.288384595   0.288384593
As      -0.288384546  -0.288384595  -0.288384593
  new positions in cart coord (alat unit)
As       0.579412352   0.336676146   0.238642459
As      -0.579412352  -0.336676146  -0.238642459

     Ekin =     0.00000000 Ry    T =    0.0 K  Etot =      -25.44016736
     new unit-cell volume =    255.94531 a.u.^3 (    37.92718 Ang^3 )
     density =      6.55859 g/cm^3

CELL_PARAMETERS (alat=  7.01033620)
   1.011834507  -0.002727125  -0.001933045
   0.498665540   0.880425467  -0.001932970
   0.498665534   0.289757038   0.831380607

ATOMIC_POSITIONS (crystal)
As            0.2883845459        0.2883845948        0.2883845931
As           -0.2883845459       -0.2883845948       -0.2883845931



     Writing output data file ./pwscf.save/
     NEW-OLD atomic charge density approx. for the potential
     extrapolated charge   10.41315, renormalised to   10.00000

     total cpu time spent up to now is        2.2 secs

     Self-consistent Calculation

     iteration #  1     ecut=    25.00 Ry     beta= 0.70
     Davidson diagonalization with overlap
     ethr =  1.00E-06,  avg # of iterations =  4.2

     total cpu time spent up to now is        2.7 secs

     total energy              =     -25.45861681 Ry
     estimated scf accuracy    <       0.00082419 Ry

     iteration #  2     ecut=    25.00 Ry     beta= 0.70
     Davidson diagonalization with overlap
     ethr =  8.24E-06,  avg # of iterations =  3.1

     total cpu time spent up to now is        3.1 secs

     total energy              =     -25.46013194 Ry
     estimated scf accuracy    <       0.00067846 Ry

     iteration #  3     ecut=    25.00 Ry     beta= 0.70
     Davidson diagonalization with overlap
     ethr =  6.78E-06,  avg # of iterations =  1.0

     total cpu time spent up to now is        3.3 secs

     total energy              =     -25.46011046 Ry
     estimated scf accuracy    <       0.00014927 Ry

     iteration #  4     ecut=    25.00 Ry     beta= 0.70
     Davidson diagonalization with overlap
     ethr =  1.49E-06,  avg # of iterations =  1.0

     total cpu time spent up to now is        3.6 secs

     total energy              =     -25.46009270 Ry
     estimated scf accuracy    <       0.00004635 Ry

     iteration #  5     ecut=    25.00 Ry     beta= 0.70
     Davidson diagonalization with overlap
     ethr =  4.64E-07,  avg # of iterations =  2.4

     total cpu time spent up to now is        3.8 secs

     total energy              =     -25.46010052 Ry
     estimated scf accuracy    <       0.00000107 Ry

     iteration #  6     ecut=    25.00 Ry     beta= 0.70
     Davidson diagonalization with overlap
     ethr =  1.07E-08,  avg # of iterations =  2.2

     total cpu time spent up to now is        4.1 secs

     total energy              =     -25.46010083 Ry
     estimated scf accuracy    <       0.00000020 Ry

     iteration #  7     ecut=    25.00 Ry     beta= 0.70
     Davidson diagonalization with overlap
     ethr =  2.03E-09,  avg # of iterations =  1.0

     total cpu time spent up to now is        4.4 secs

     End of self-consistent calculation

          k = 0.1238 0.0720 0.0510 (   531 PWs)   bands (ev):

    -7.1389   3.6956   5.5400   5.5400   7.8026  10.3999  11.1877  11.1877
    15.8503

          k = 0.1244 0.0723 0.3512 (   522 PWs)   bands (ev):

    -6.1038  -0.0927   4.9491   5.2925   8.6211   9.7784  10.9546  12.8746
    15.0275

          k = 0.1227 0.0713-0.5495 (   520 PWs)   bands (ev):

    -4.5987  -2.7948   4.4623   5.7105   7.2601  10.1666  11.8235  13.0623
    17.0367

          k = 0.1233 0.0716-0.2492 (   525 PWs)   bands (ev):

    -6.5394   0.7862   4.6176   6.5829   7.9753  10.2972  11.5900  13.1955
    14.7697

          k = 0.1244 0.3554-0.0481 (   522 PWs)   bands (ev):

    -6.1038  -0.0927   4.9491   5.2925   8.6211   9.7784  10.9546  12.8746
    15.0275

          k = 0.1250 0.3557 0.2521 (   519 PWs)   bands (ev):

    -5.7325   0.5605   3.2351   3.9402   6.9283   9.9142  12.8590  13.0476
    16.0007

          k = 0.1233 0.3547-0.6486 (   510 PWs)   bands (ev):

    -4.1083  -2.1862   2.0666   3.8450   7.4613  10.8723  12.7555  14.9539
    16.4086

          k = 0.1238 0.3550-0.3484 (   521 PWs)   bands (ev):

    -4.9484  -1.8628   2.7437   6.1567   7.2477  11.5343  12.2784  12.8610
    15.3162

          k = 0.1227-0.4949 0.2492 (   520 PWs)   bands (ev):

    -4.5987  -2.7948   4.4622   5.7105   7.2601  10.1666  11.8235  13.0622
    17.0367

          k = 0.1233-0.4945 0.5495 (   510 PWs)   bands (ev):

    -4.1083  -2.1861   2.0666   3.8450   7.4613  10.8723  12.7555  14.9539
    16.4086

          k = 0.1215-0.4955-0.3512 (   510 PWs)   bands (ev):

    -4.3345  -1.8252   3.2422   3.3820   5.5124   9.6600  15.0078  16.7381
    17.3743

          k = 0.1221-0.4952-0.0510 (   521 PWs)   bands (ev):

    -4.9484  -1.8628   2.7437   6.1567   7.2477  11.5343  12.2784  12.8610
    15.3162

          k = 0.1233-0.2115 0.1501 (   525 PWs)   bands (ev):

    -6.5394   0.7862   4.6176   6.5829   7.9753  10.2972  11.5900  13.1955
    14.7697

          k = 0.1238-0.2111 0.4504 (   521 PWs)   bands (ev):

    -4.9484  -1.8629   2.7437   6.1567   7.2477  11.5343  12.2784  12.8610
    15.3162

          k = 0.1221-0.2121-0.4504 (   521 PWs)   bands (ev):

    -4.9484  -1.8629   2.7437   6.1567   7.2477  11.5343  12.2784  12.8610
    15.3162

          k = 0.1227-0.2118-0.1501 (   525 PWs)   bands (ev):

    -6.5394   0.7862   4.6176   6.5829   7.9753  10.2972  11.5900  13.1955
    14.7697

          k = 0.3703-0.0679-0.0481 (   522 PWs)   bands (ev):

    -6.1038  -0.0927   4.9491   5.2925   8.6211   9.7784  10.9546  12.8746
    15.0275

          k = 0.3709-0.0676 0.2521 (   519 PWs)   bands (ev):

    -5.7325   0.5605   3.2351   3.9402   6.9283   9.9142  12.8590  13.0476
    16.0007

          k = 0.3692-0.0686-0.6486 (   510 PWs)   bands (ev):

    -4.1083  -2.1862   2.0666   3.8450   7.4613  10.8723  12.7555  14.9539
    16.4086

          k = 0.3698-0.0682-0.3484 (   521 PWs)   bands (ev):

    -4.9484  -1.8629   2.7437   6.1567   7.2477  11.5343  12.2784  12.8610
    15.3162

          k = 0.3709 0.2155-0.1472 (   519 PWs)   bands (ev):

    -5.7325   0.5605   3.2351   3.9402   6.9283   9.9142  12.8590  13.0476
    16.0007

          k = 0.3715 0.2159 0.1530 (   522 PWs)   bands (ev):

    -6.0211   0.3364   5.4803   5.4803   6.7059   9.4592   9.4592  11.2677
    16.7047

          k = 0.3698 0.2149-0.7477 (   520 PWs)   bands (ev):

    -5.0510  -0.5732   2.1761   4.4290   6.9022  10.9013  11.3372  13.7575
    16.9829

          k = 0.3703 0.2152-0.4475 (   510 PWs)   bands (ev):

    -4.3345  -1.8252   3.2422   3.3820   5.5124   9.6600  15.0078  16.7381
    17.3743

          k = 0.3692-0.6347 0.1501 (   510 PWs)   bands (ev):

    -4.1083  -2.1862   2.0666   3.8450   7.4613  10.8723  12.7555  14.9539
    16.4086

          k = 0.3698-0.6344 0.4504 (   520 PWs)   bands (ev):

    -5.0510  -0.5732   2.1761   4.4290   6.9022  10.9013  11.3372  13.7575
    16.9829

          k = 0.3680-0.6354-0.4504 (   520 PWs)   bands (ev):

    -5.0510  -0.5732   2.1761   4.4290   6.9022  10.9013  11.3372  13.7575
    16.9829

          k = 0.3686-0.6350-0.1501 (   510 PWs)   bands (ev):

    -4.1083  -2.1862   2.0666   3.8450   7.4613  10.8723  12.7555  14.9539
    16.4086

          k = 0.3698-0.3513 0.0510 (   521 PWs)   bands (ev):

    -4.9484  -1.8628   2.7437   6.1567   7.2477  11.5343  12.2784  12.8610
    15.3162

          k = 0.3703-0.3510 0.3512 (   510 PWs)   bands (ev):

    -4.3345  -1.8252   3.2422   3.3820   5.5124   9.6600  15.0078  16.7381
    17.3743

          k = 0.3686-0.3520-0.5495 (   510 PWs)   bands (ev):

    -4.1083  -2.1861   2.0666   3.8450   7.4613  10.8723  12.7555  14.9539
    16.4086

          k = 0.3692-0.3516-0.2492 (   520 PWs)   bands (ev):

    -4.5987  -2.7948   4.4623   5.7105   7.2601  10.1666  11.8235  13.0623
    17.0367

     the Fermi energy is     9.1605 ev

!    total energy              =     -25.46010084 Ry
     estimated scf accuracy    <       0.00000001 Ry
     smearing contrib. (-TS)   =       0.00000000 Ry
     internal energy E=F+TS    =     -25.46010084 Ry

     convergence has been achieved in   7 iterations

     Forces acting on atoms (cartesian axes, Ry/au):

     atom    1 type  1   force =    -0.08519763   -0.04950538   -0.03509027
     atom    2 type  1   force =     0.08519763    0.04950538    0.03509027

     Total force =     0.147924     Total SCF correction =     0.000032


     Computing stress (Cartesian axis) and pressure

          total   stress  (Ry/bohr**3)                   (kbar)     P=      143.02
   0.00086717  -0.00012269  -0.00008696          127.57      -18.05      -12.79
  -0.00012269   0.00100702  -0.00005053          -18.05      148.14       -7.43
  -0.00008696  -0.00005053   0.00104248          -12.79       -7.43      153.35


     Entering Dynamics;  it =     2   time =  0.00726 pico-seconds

  new lattice vectors (alat unit) :
   1.035646619  -0.006592369  -0.004672735
   0.507098597   0.903027142  -0.004672604
   0.507098647   0.294657242   0.853614040
  new unit-cell volume =    277.0130 (a.u.)^3
  new positions in cryst coord
As       0.284847362   0.284847385   0.284847399
As      -0.284847362  -0.284847385  -0.284847399
  new positions in cart coord (alat unit)
As       0.583892647   0.339279450   0.240487743
As      -0.583892647  -0.339279450  -0.240487743

     Ekin =     0.02015785 Ry    T =  707.3 K  Etot =      -25.43994299
     new unit-cell volume =    277.01301 a.u.^3 (    41.04909 Ang^3 )
     density =      6.05979 g/cm^3

CELL_PARAMETERS (alat=  7.01033620)
   1.035646619  -0.006592369  -0.004672735
   0.507098597   0.903027142  -0.004672604
   0.507098647   0.294657242   0.853614040

ATOMIC_POSITIONS (crystal)
As            0.2848473624        0.2848473849        0.2848473987
As           -0.2848473624       -0.2848473849       -0.2848473987



     Writing output data file ./pwscf.save/
     NEW-OLD atomic charge density approx. for the potential
     extrapolated charge   10.76050, renormalised to   10.00000

     total cpu time spent up to now is        4.7 secs

     Self-consistent Calculation

     iteration #  1     ecut=    25.00 Ry     beta= 0.70
     Davidson diagonalization with overlap
     ethr =  1.00E-06,  avg # of iterations =  4.8

     total cpu time spent up to now is        5.2 secs

     total energy              =     -25.47745304 Ry
     estimated scf accuracy    <       0.00269187 Ry

     iteration #  2     ecut=    25.00 Ry     beta= 0.70
     Davidson diagonalization with overlap
     ethr =  2.69E-05,  avg # of iterations =  3.1

     total cpu time spent up to now is        5.6 secs

     total energy              =     -25.48276189 Ry
     estimated scf accuracy    <       0.00243435 Ry

     iteration #  3     ecut=    25.00 Ry     beta= 0.70
     Davidson diagonalization with overlap
     ethr =  2.43E-05,  avg # of iterations =  1.0

     total cpu time spent up to now is        5.8 secs

     total energy              =     -25.48267520 Ry
     estimated scf accuracy    <       0.00056778 Ry

     iteration #  4     ecut=    25.00 Ry     beta= 0.70
     Davidson diagonalization with overlap
     ethr =  5.68E-06,  avg # of iterations =  1.0

     total cpu time spent up to now is        6.1 secs

     total energy              =     -25.48260189 Ry
     estimated scf accuracy    <       0.00018845 Ry

     iteration #  5     ecut=    25.00 Ry     beta= 0.70
     Davidson diagonalization with overlap
     ethr =  1.88E-06,  avg # of iterations =  2.1

     total cpu time spent up to now is        6.3 secs

     total energy              =     -25.48262705 Ry
     estimated scf accuracy    <       0.00000650 Ry

     iteration #  6     ecut=    25.00 Ry     beta= 0.70
     Davidson diagonalization with overlap
     ethr =  6.50E-08,  avg # of iterations =  2.5

     total cpu time spent up to now is        6.6 secs

     total energy              =     -25.48263044 Ry
     estimated scf accuracy    <       0.00000043 Ry

     iteration #  7     ecut=    25.00 Ry     beta= 0.70
     Davidson diagonalization with overlap
     ethr =  4.28E-09,  avg # of iterations =  1.8

     total cpu time spent up to now is        6.9 secs

     End of self-consistent calculation

          k = 0.1214 0.0705 0.0500 (   531 PWs)   bands (ev):

    -7.3956   2.1405   4.8134   4.8134   6.7361   9.2816  10.1559  10.1559
    14.5874

          k = 0.1227 0.0713 0.3418 (   522 PWs)   bands (ev):

    -6.4262  -0.9952   4.2048   4.6911   7.4544   8.4353   9.6016  11.6647
    13.8032

          k = 0.1187 0.0690-0.5337 (   520 PWs)   bands (ev):

    -5.0423  -3.4005   3.9115   4.8911   6.1713   8.9980  10.4170  11.5750
    15.8398

          k = 0.1201 0.0698-0.2418 (   525 PWs)   bands (ev):

    -6.8442  -0.1813   3.9899   5.5435   6.9368   9.3855  10.0526  11.7986
    13.7046

          k = 0.1227 0.3461-0.0459 (   522 PWs)   bands (ev):

    -6.4262  -0.9952   4.2048   4.6911   7.4544   8.4353   9.6016  11.6647
    13.8032

          k = 0.1240 0.3469 0.2459 (   519 PWs)   bands (ev):

    -6.0763  -0.5007   2.6581   3.3347   5.8634   9.0444  11.4133  11.7445
    14.3725

          k = 0.1201 0.3446-0.6296 (   510 PWs)   bands (ev):

    -4.5949  -2.8756   1.6091   3.1160   6.3907   9.5725  11.7629  13.5184
    14.7114

          k = 0.1214 0.3454-0.3378 (   521 PWs)   bands (ev):

    -5.3726  -2.5754   2.2982   5.1804   6.2806  10.1400  10.8752  11.7935
    13.9317

          k = 0.1187-0.4807 0.2418 (   520 PWs)   bands (ev):

    -5.0423  -3.4005   3.9115   4.8911   6.1713   8.9980  10.4170  11.5750
    15.8398

          k = 0.1201-0.4799 0.5337 (   510 PWs)   bands (ev):

    -4.5949  -2.8756   1.6091   3.1160   6.3907   9.5725  11.7629  13.5184
    14.7114

          k = 0.1161-0.4822-0.3418 (   510 PWs)   bands (ev):

    -4.8395  -2.4290   2.3697   2.8293   4.5959   8.9676  13.3662  14.9483
    15.4147

          k = 0.1174-0.4815-0.0500 (   521 PWs)   bands (ev):

    -5.3726  -2.5754   2.2982   5.1804   6.2807  10.1400  10.8752  11.7935
    13.9317

          k = 0.1201-0.2051 0.1459 (   525 PWs)   bands (ev):

    -6.8442  -0.1813   3.9899   5.5435   6.9368   9.3855  10.0526  11.7986
    13.7046

          k = 0.1214-0.2043 0.4377 (   521 PWs)   bands (ev):

    -5.3726  -2.5754   2.2982   5.1804   6.2807  10.1400  10.8752  11.7935
    13.9317

          k = 0.1174-0.2066-0.4377 (   521 PWs)   bands (ev):

    -5.3726  -2.5754   2.2982   5.1804   6.2807  10.1400  10.8752  11.7935
    13.9317

          k = 0.1187-0.2059-0.1459 (   525 PWs)   bands (ev):

    -6.8442  -0.1813   3.9899   5.5435   6.9368   9.3855  10.0526  11.7986
    13.7046

          k = 0.3615-0.0648-0.0459 (   522 PWs)   bands (ev):

    -6.4262  -0.9952   4.2048   4.6911   7.4544   8.4353   9.6016  11.6647
    13.8032

          k = 0.3628-0.0640 0.2459 (   519 PWs)   bands (ev):

    -6.0763  -0.5007   2.6581   3.3347   5.8634   9.0444  11.4133  11.7445
    14.3725

          k = 0.3588-0.0663-0.6296 (   510 PWs)   bands (ev):

    -4.5949  -2.8756   1.6091   3.1160   6.3907   9.5725  11.7629  13.5184
    14.7115

          k = 0.3602-0.0656-0.3378 (   521 PWs)   bands (ev):

    -5.3726  -2.5754   2.2982   5.1804   6.2806  10.1400  10.8752  11.7935
    13.9317

          k = 0.3628 0.2108-0.1419 (   519 PWs)   bands (ev):

    -6.0763  -0.5007   2.6581   3.3347   5.8634   9.0444  11.4133  11.7445
    14.3725

          k = 0.3641 0.2116 0.1500 (   522 PWs)   bands (ev):

    -6.3147  -0.6760   4.8048   4.8048   5.6082   8.3783   8.3783   9.7416
    15.4922

          k = 0.3602 0.2093-0.7255 (   520 PWs)   bands (ev):

    -5.4148  -1.5595   1.7266   3.8322   5.8418   9.5553  10.0386  12.4679
    15.5950

          k = 0.3615 0.2100-0.4337 (   510 PWs)   bands (ev):

    -4.8395  -2.4290   2.3697   2.8293   4.5959   8.9676  13.3662  14.9483
    15.4147

          k = 0.3588-0.6160 0.1459 (   510 PWs)   bands (ev):

    -4.5949  -2.8756   1.6091   3.1160   6.3907   9.5725  11.7629  13.5184
    14.7115

          k = 0.3602-0.6152 0.4377 (   520 PWs)   bands (ev):

    -5.4148  -1.5595   1.7266   3.8322   5.8418   9.5553  10.0386  12.4679
    15.5950

          k = 0.3562-0.6176-0.4377 (   520 PWs)   bands (ev):

    -5.4148  -1.5595   1.7266   3.8322   5.8418   9.5553  10.0386  12.4679
    15.5950

          k = 0.3575-0.6168-0.1459 (   510 PWs)   bands (ev):

    -4.5949  -2.8756   1.6091   3.1160   6.3907   9.5725  11.7629  13.5184
    14.7114

          k = 0.3602-0.3404 0.0500 (   521 PWs)   bands (ev):

    -5.3726  -2.5754   2.2982   5.1804   6.2807  10.1400  10.8752  11.7935
    13.9317

          k = 0.3615-0.3396 0.3418 (   510 PWs)   bands (ev):

    -4.8395  -2.4290   2.3697   2.8293   4.5959   8.9676  13.3662  14.9483
    15.4147

          k = 0.3575-0.3419-0.5337 (   510 PWs)   bands (ev):

    -4.5949  -2.8756   1.6091   3.1160   6.3907   9.5725  11.7629  13.5184
    14.7114

          k = 0.3588-0.3412-0.2418 (   520 PWs)   bands (ev):

    -5.0423  -3.4005   3.9115   4.8911   6.1713   8.9980  10.4170  11.5750
    15.8398

     the Fermi energy is     8.0652 ev

!    total energy              =     -25.48263046 Ry
     estimated scf accuracy    <       0.00000009 Ry
     smearing contrib. (-TS)   =       0.00000000 Ry
     internal energy E=F+TS    =     -25.48263046 Ry

     convergence has been achieved in   7 iterations

     Forces acting on atoms (cartesian axes, Ry/au):

     atom    1 type  1   force =    -0.05291729   -0.03074837   -0.02179504
     atom    2 type  1   force =     0.05291729    0.03074837    0.02179504

     Total force =     0.091877     Total SCF correction =     0.000171


     Computing stress (Cartesian axis) and pressure

          total   stress  (Ry/bohr**3)                   (kbar)     P=       33.13
   0.00030126   0.00008879   0.00006294           44.32       13.06        9.26
   0.00008879   0.00020004   0.00003657           13.06       29.43        5.38
   0.00006294   0.00003657   0.00017437            9.26        5.38       25.65


     Entering Dynamics;  it =     3   time =  0.01451 pico-seconds

  new lattice vectors (alat unit) :
   1.063130215  -0.004069641  -0.002884574
   0.519207719   0.927759583  -0.002884505
   0.519207807   0.301693446   0.877355980
  new unit-cell volume =    299.4185 (a.u.)^3
  new positions in cryst coord
As       0.280292920   0.280292945   0.280292951
As      -0.280292920  -0.280292945  -0.280292951
  new positions in cart coord (alat unit)
As       0.589048421   0.343466321   0.244299665
As      -0.589048421  -0.343466321  -0.244299665

     Ekin =     0.04391698 Ry    T = 1124.1 K  Etot =      -25.43871348
     new unit-cell volume =    299.41849 a.u.^3 (    44.36924 Ang^3 )
     density =      5.60633 g/cm^3

CELL_PARAMETERS (alat=  7.01033620)
   1.063130215  -0.004069641  -0.002884574
   0.519207719   0.927759583  -0.002884505
   0.519207807   0.301693446   0.877355980

ATOMIC_POSITIONS (crystal)
As            0.2802929199        0.2802929453        0.2802929508
As           -0.2802929199       -0.2802929453       -0.2802929508



     Writing output data file ./pwscf.save/
     NEW-OLD atomic charge density approx. for the potential
     extrapolated charge   10.74827, renormalised to   10.00000

     total cpu time spent up to now is        7.1 secs

     Self-consistent Calculation

     iteration #  1     ecut=    25.00 Ry     beta= 0.70
     Davidson diagonalization with overlap
     ethr =  1.00E-06,  avg # of iterations =  5.2

     total cpu time spent up to now is        7.7 secs

     total energy              =     -25.48343753 Ry
     estimated scf accuracy    <       0.00271623 Ry

     iteration #  2     ecut=    25.00 Ry     beta= 0.70
     Davidson diagonalization with overlap
     ethr =  2.72E-05,  avg # of iterations =  3.1

     total cpu time spent up to now is        8.1 secs

     total energy              =     -25.48876779 Ry
     estimated scf accuracy    <       0.00242367 Ry

     iteration #  3     ecut=    25.00 Ry     beta= 0.70
     Davidson diagonalization with overlap
     ethr =  2.42E-05,  avg # of iterations =  1.0

     total cpu time spent up to now is        8.3 secs

     total energy              =     -25.48865555 Ry
     estimated scf accuracy    <       0.00056347 Ry

     iteration #  4     ecut=    25.00 Ry     beta= 0.70
     Davidson diagonalization with overlap
     ethr =  5.63E-06,  avg # of iterations =  1.0

     total cpu time spent up to now is        8.6 secs

     total energy              =     -25.48861414 Ry
     estimated scf accuracy    <       0.00013528 Ry

     iteration #  5     ecut=    25.00 Ry     beta= 0.70
     Davidson diagonalization with overlap
     ethr =  1.35E-06,  avg # of iterations =  2.6

     total cpu time spent up to now is        8.9 secs

     total energy              =     -25.48863885 Ry
     estimated scf accuracy    <       0.00000258 Ry

     iteration #  6     ecut=    25.00 Ry     beta= 0.70
     Davidson diagonalization with overlap
     ethr =  2.58E-08,  avg # of iterations =  2.2

     total cpu time spent up to now is        9.1 secs

     total energy              =     -25.48864017 Ry
     estimated scf accuracy    <       0.00000030 Ry

     iteration #  7     ecut=    25.00 Ry     beta= 0.70
     Davidson diagonalization with overlap
     ethr =  3.02E-09,  avg # of iterations =  1.1

     total cpu time spent up to now is        9.4 secs

     End of self-consistent calculation

          k = 0.1180 0.0689 0.0490 (   531 PWs)   bands (ev):

    -7.6347   0.6494   4.2085   4.2110   5.7405   8.3141   9.1788   9.1966
    13.4580

          k = 0.1187 0.0693 0.3333 (   522 PWs)   bands (ev):

    -6.7269  -1.8793   3.4757   4.2087   6.4765   7.1954   8.3133  10.5235
    12.7043

          k = 0.1164 0.0680-0.5197 (   520 PWs)   bands (ev):

    -5.4459  -3.9915   3.4651   4.0761   5.2016   7.9221   9.0430  10.0225
    14.8037

          k = 0.1172 0.0684-0.2354 (   525 PWs)   bands (ev):

    -7.1260  -1.1201   3.4696   4.6009   5.9314   8.4560   8.7502  10.4551
    12.6474

          k = 0.1188 0.3376-0.0439 (   522 PWs)   bands (ev):

    -6.7268  -1.8793   3.4757   4.2086   6.4765   7.1953   8.3133  10.5234
    12.7042

          k = 0.1195 0.3381 0.2404 (   519 PWs)   bands (ev):

    -6.3977  -1.5517   2.1535   2.8367   4.8356   8.3387  10.1766  10.5376
    12.8427

          k = 0.1172 0.3367-0.6126 (   510 PWs)   bands (ev):

    -5.0458  -3.5392   1.1978   2.4206   5.3794   8.4358  10.8757  12.1374
    13.1274

          k = 0.1180 0.3372-0.3282 (   521 PWs)   bands (ev):

    -5.7684  -3.2430   1.9111   4.2427   5.3505   8.7948   9.6223  10.7206
    12.6991

          k = 0.1164-0.4686 0.2347 (   520 PWs)   bands (ev):

    -5.4459  -3.9914   3.4650   4.0760   5.2015   7.9220   9.0430  10.0224
    14.8038

          k = 0.1172-0.4682 0.5191 (   510 PWs)   bands (ev):

    -5.0457  -3.5392   1.1978   2.4206   5.3794   8.4358  10.8757  12.1374
    13.1273

          k = 0.1149-0.4695-0.3339 (   510 PWs)   bands (ev):

    -5.3008  -3.0397   1.5630   2.3727   3.7175   8.3761  11.8076  13.2716
    13.5963

          k = 0.1156-0.4691-0.0496 (   521 PWs)   bands (ev):

    -5.7612  -3.2539   1.9157   4.2480   5.3444   8.7892   9.6209  10.7100
    12.6932

          k = 0.1172-0.1999 0.1418 (   525 PWs)   bands (ev):

    -7.1260  -1.1200   3.4695   4.6009   5.9313   8.4560   8.7502  10.4551
    12.6475

          k = 0.1180-0.1994 0.4262 (   521 PWs)   bands (ev):

    -5.7685  -3.2430   1.9111   4.2427   5.3506   8.7948   9.6224  10.7207
    12.6991

          k = 0.1157-0.2008-0.4268 (   521 PWs)   bands (ev):

    -5.7612  -3.2540   1.9157   4.2480   5.3445   8.7894   9.6211  10.7100
    12.6932

          k = 0.1164-0.2003-0.1425 (   525 PWs)   bands (ev):

    -7.1236  -1.1248   3.4654   4.6017   5.9414   8.4536   8.7481  10.4453
    12.6477

          k = 0.3524-0.0626-0.0445 (   522 PWs)   bands (ev):

    -6.7263  -1.8726   3.4707   4.2046   6.4648   7.1846   8.3066  10.5389
    12.7112

          k = 0.3531-0.0622 0.2398 (   519 PWs)   bands (ev):

    -6.4022  -1.5414   2.1480   2.8435   4.8322   8.3391  10.1649  10.5423
    12.8489

          k = 0.3508-0.0635-0.6132 (   510 PWs)   bands (ev):

    -5.0542  -3.5321   1.1994   2.4229   5.3836   8.4500  10.8817  12.1241
    13.1204

          k = 0.3516-0.0631-0.3289 (   521 PWs)   bands (ev):

    -5.7633  -3.2499   1.9167   4.2387   5.3505   8.8041   9.6021  10.7099
    12.6939

          k = 0.3531 0.2061-0.1374 (   519 PWs)   bands (ev):

    -6.4022  -1.5415   2.1480   2.8436   4.8322   8.3391  10.1649  10.5422
    12.8488

          k = 0.3539 0.2066 0.1469 (   522 PWs)   bands (ev):

    -6.5917  -1.7764   4.2690   4.2701   4.8358   7.3764   7.3907   8.3320
    14.3969

          k = 0.3516 0.2052-0.7061 (   520 PWs)   bands (ev):

    -5.7541  -2.5524   1.3350   3.3523   4.9034   8.4169   8.8459  11.2797
    14.3245

          k = 0.3524 0.2057-0.4217 (   510 PWs)   bands (ev):

    -5.3148  -3.0255   1.5634   2.3823   3.7197   8.3797  11.8089  13.2634
    13.5946

          k = 0.3508-0.6001 0.1412 (   510 PWs)   bands (ev):

    -5.0541  -3.5321   1.1994   2.4228   5.3835   8.4500  10.8816  12.1241
    13.1203

          k = 0.3516-0.5996 0.4255 (   520 PWs)   bands (ev):

    -5.7540  -2.5524   1.3350   3.3522   4.9034   8.4169   8.8459  11.2796
    14.3246

          k = 0.3493-0.6010-0.4275 (   520 PWs)   bands (ev):

    -5.7520  -2.5490   1.3335   3.3445   4.8909   8.4162   8.8441  11.2953
    14.3269

          k = 0.3500-0.6005-0.1431 (   510 PWs)   bands (ev):

    -5.0495  -3.5337   1.1983   2.4201   5.3816   8.4255  10.8804  12.1258
    13.1370

          k = 0.3516-0.3313 0.0483 (   521 PWs)   bands (ev):

    -5.7634  -3.2498   1.9166   4.2387   5.3506   8.8040   9.6020  10.7099
    12.6939

          k = 0.3524-0.3309 0.3327 (   510 PWs)   bands (ev):

    -5.3149  -3.0254   1.5634   2.3822   3.7198   8.3798  11.8089  13.2633
    13.5946

          k = 0.3500-0.3323-0.5203 (   510 PWs)   bands (ev):

    -5.0496  -3.5337   1.1983   2.4201   5.3817   8.4256  10.8804  12.1257
    13.1370

          k = 0.3508-0.3318-0.2360 (   520 PWs)   bands (ev):

    -5.4356  -3.9985   3.4569   4.0828   5.1872   7.9081   9.0356  10.0316
    14.8080

     the Fermi energy is     6.8410 ev

!    total energy              =     -25.48864017 Ry
     estimated scf accuracy    <       0.00000004 Ry
     smearing contrib. (-TS)   =       0.00000000 Ry
     internal energy E=F+TS    =     -25.48864017 Ry

     convergence has been achieved in   7 iterations

     Forces acting on atoms (cartesian axes, Ry/au):

     atom    1 type  1   force =    -0.02095984   -0.01239389   -0.00881257
     atom    2 type  1   force =     0.02095984    0.01239389    0.00881257

     Total force =     0.036622     Total SCF correction =     0.000148


     Computing stress (Cartesian axis) and pressure

          total   stress  (Ry/bohr**3)                   (kbar)     P=      -45.67
  -0.00015182   0.00018646   0.00013258          -22.33       27.43       19.50
   0.00018646  -0.00036066   0.00008368           27.43      -53.05       12.31
   0.00013258   0.00008368  -0.00041884           19.50       12.31      -61.61


     Entering Dynamics;  it =     4   time =  0.02177 pico-seconds

  new lattice vectors (alat unit) :
   1.053240343  -0.001020258  -0.000718773
   0.532944168   0.912785632  -0.000623009
   0.532947851   0.309778676   0.860325580
  new unit-cell volume =    285.2655 (a.u.)^3
  new positions in cryst coord
As       0.275742897   0.275404259   0.275411139
As      -0.275742897  -0.275404259  -0.275411139
  new positions in cart coord (alat unit)
As       0.583978412   0.336420220   0.236573472
As      -0.583978412  -0.336420220  -0.236573472

     Ekin =     0.04765234 Ry    T = 1306.7 K  Etot =      -25.44098783
     new unit-cell volume =    285.26548 a.u.^3 (    42.27198 Ang^3 )
     density =      5.88448 g/cm^3

CELL_PARAMETERS (alat=  7.01033620)
   1.053240343  -0.001020258  -0.000718773
   0.532944168   0.912785632  -0.000623009
   0.532947851   0.309778676   0.860325580

ATOMIC_POSITIONS (crystal)
As            0.2757428971        0.2754042589        0.2754111393
As           -0.2757428971       -0.2754042589       -0.2754111393



     Writing output data file ./pwscf.save/
     NEW-OLD atomic charge density approx. for the potential
     extrapolated charge    9.50389, renormalised to   10.00000

     total cpu time spent up to now is        9.6 secs

     Self-consistent Calculation

     iteration #  1     ecut=    25.00 Ry     beta= 0.70
     Davidson diagonalization with overlap
     ethr =  1.00E-06,  avg # of iterations =  5.0

     total cpu time spent up to now is       10.2 secs

     total energy              =     -25.49457696 Ry
     estimated scf accuracy    <       0.00267197 Ry

     iteration #  2     ecut=    25.00 Ry     beta= 0.70
     Davidson diagonalization with overlap
     ethr =  2.67E-05,  avg # of iterations =  2.8

     total cpu time spent up to now is       10.5 secs

     total energy              =     -25.49725950 Ry
     estimated scf accuracy    <       0.00121285 Ry

     iteration #  3     ecut=    25.00 Ry     beta= 0.70
     Davidson diagonalization with overlap
     ethr =  1.21E-05,  avg # of iterations =  1.0

     total cpu time spent up to now is       10.8 secs

     total energy              =     -25.49726248 Ry
     estimated scf accuracy    <       0.00015816 Ry

     iteration #  4     ecut=    25.00 Ry     beta= 0.70
     Davidson diagonalization with overlap
     ethr =  1.58E-06,  avg # of iterations =  2.0

     total cpu time spent up to now is       11.0 secs

     total energy              =     -25.49728706 Ry
     estimated scf accuracy    <       0.00000095 Ry

     iteration #  5     ecut=    25.00 Ry     beta= 0.70
     Davidson diagonalization with overlap
     ethr =  9.50E-09,  avg # of iterations =  3.1

     total cpu time spent up to now is       11.3 secs

     total energy              =     -25.49728860 Ry
     estimated scf accuracy    <       0.00000034 Ry

     iteration #  6     ecut=    25.00 Ry     beta= 0.70
     Davidson diagonalization with overlap
     ethr =  3.40E-09,  avg # of iterations =  1.8

     total cpu time spent up to now is       11.6 secs

     End of self-consistent calculation

          k = 0.1188 0.0676 0.0474 (   531 PWs)   bands (ev):

    -7.3389   1.2995   4.9323   5.0112   6.1799   9.2178   9.8940   9.9884
    14.0190

          k = 0.1190 0.0677 0.3378 (   522 PWs)   bands (ev):

    -6.3720  -1.3147   3.7772   5.0330   7.3565   7.7798   8.7004  11.3727
    13.3250

          k = 0.1184 0.0675-0.5335 (   520 PWs)   bands (ev):

    -4.9525  -3.5715   4.1903   4.3968   5.7711   8.6940   9.3682  10.3028
    15.4017

          k = 0.1186 0.0675-0.2431 (   525 PWs)   bands (ev):

    -6.7928  -0.4252   4.1804   5.0293   6.3767   9.0834   9.5243  11.0062
    13.1011

          k = 0.1190 0.3413-0.0513 (   522 PWs)   bands (ev):

    -6.3686  -1.3048   3.7725   5.0200   7.3384   7.7683   8.6900  11.3718
    13.3175

          k = 0.1192 0.3414 0.2391 (   519 PWs)   bands (ev):

    -6.0294  -0.9776   2.5840   3.4829   5.0890   9.4094  11.1206  11.3973
    13.3359

          k = 0.1186 0.3412-0.6322 (   510 PWs)   bands (ev):

    -4.5677  -2.9838   1.5747   2.6830   5.8569   9.2904  11.7916  12.9737
    13.6347

          k = 0.1188 0.3412-0.3417 (   521 PWs)   bands (ev):

    -5.3243  -2.6994   2.4384   4.5548   5.7806   9.2193  10.5250  11.4452
    13.2224

          k = 0.1184-0.4798 0.2447 (   520 PWs)   bands (ev):

    -4.9434  -3.5665   4.1740   4.3897   5.7559   8.6735   9.3566  10.2926
    15.4192

          k = 0.1186-0.4797 0.5351 (   510 PWs)   bands (ev):

    -4.5627  -2.9845   1.5700   2.6822   5.8562   9.2749  11.7874  12.9684
    13.6303

          k = 0.1180-0.4799-0.3362 (   510 PWs)   bands (ev):

    -4.8810  -2.3484   1.7251   2.9907   3.9753   9.2074  12.4710  13.9101
    14.2474

          k = 0.1182-0.4799-0.0457 (   521 PWs)   bands (ev):

    -5.3490  -2.6449   2.4212   4.5137   5.8070   9.1812  10.4698  11.5060
    13.2345

          k = 0.1186-0.2061 0.1460 (   525 PWs)   bands (ev):

    -6.7914  -0.4184   4.1638   5.0339   6.3718   9.0826   9.5133  11.0051
    13.1011

          k = 0.1188-0.2060 0.4365 (   521 PWs)   bands (ev):

    -5.3263  -2.7046   2.4429   4.5613   5.7883   9.2168  10.5415  11.4493
    13.2214

          k = 0.1182-0.2062-0.4348 (   521 PWs)   bands (ev):

    -5.3546  -2.6488   2.4226   4.5238   5.8166   9.1927  10.5005  11.5158
    13.2396

          k = 0.1184-0.2062-0.1444 (   525 PWs)   bands (ev):

    -6.8001  -0.3742   4.1378   5.0397   6.3091   9.0508   9.5363  11.0585
    13.1223

          k = 0.3559-0.0709-0.0497 (   522 PWs)   bands (ev):

    -6.3619  -1.3170   3.7909   5.0032   7.3563   7.7859   8.7020  11.2644
    13.2931

          k = 0.3561-0.0708 0.2408 (   519 PWs)   bands (ev):

    -6.0048  -1.0303   2.5913   3.4924   5.0957   9.3941  11.1456  11.3498
    13.2927

          k = 0.3555-0.0711-0.6305 (   510 PWs)   bands (ev):

    -4.5256  -3.0102   1.5743   2.6576   5.8114   9.2317  11.7779  13.0455
    13.6547

          k = 0.3557-0.0710-0.3401 (   521 PWs)   bands (ev):

    -5.3354  -2.6526   2.4010   4.5482   5.7600   9.1292  10.5338  11.5062
    13.2256

          k = 0.3561 0.2028-0.1483 (   519 PWs)   bands (ev):

    -6.0046  -1.0291   2.5829   3.5083   5.0912   9.3883  11.1335  11.3421
    13.2920

          k = 0.3563 0.2029 0.1421 (   522 PWs)   bands (ev):

    -6.1981  -1.6442   5.0761   5.1159   6.0166   7.9421   8.0009   8.9887
    15.1496

          k = 0.3557 0.2026-0.7292 (   520 PWs)   bands (ev):

    -5.2659  -2.2676   1.7455   4.0585   5.4521   9.4534   9.5271  12.3389
    14.8043

          k = 0.3559 0.2027-0.4388 (   510 PWs)   bands (ev):

    -4.8207  -2.4236   1.7248   3.0066   3.9353   9.1925  12.4482  13.8959
    14.3352

          k = 0.3555-0.6183 0.1477 (   510 PWs)   bands (ev):

    -4.5227  -3.0057   1.5723   2.6520   5.8002   9.2191  11.7828  13.0437
    13.6504

          k = 0.3557-0.6182 0.4381 (   520 PWs)   bands (ev):

    -5.2632  -2.2658   1.7499   4.0456   5.4409   9.4584   9.5171  12.3469
    14.8268

          k = 0.3551-0.6185-0.4332 (   520 PWs)   bands (ev):

    -5.2665  -2.2792   1.7704   4.0494   5.4729   9.4824   9.4974  12.2808
    14.8837

          k = 0.3553-0.6184-0.1428 (   510 PWs)   bands (ev):

    -4.5335  -3.0013   1.5651   2.6691   5.8032   9.3028  11.7704  13.0262
    13.5696

          k = 0.3557-0.3446 0.0490 (   521 PWs)   bands (ev):

    -5.3318  -2.6540   2.4042   4.5447   5.7581   9.1151  10.5193  11.4999
    13.2203

          k = 0.3559-0.3445 0.3394 (   510 PWs)   bands (ev):

    -4.8168  -2.4241   1.7256   2.9893   3.9425   9.1928  12.4494  13.8881
    14.3335

          k = 0.3553-0.3448-0.5319 (   510 PWs)   bands (ev):

    -4.5313  -3.0065   1.5624   2.6739   5.8134   9.2998  11.7622  13.0231
    13.5692

          k = 0.3555-0.3447-0.2414 (   520 PWs)   bands (ev):

    -4.9741  -3.5163   4.1711   4.3400   5.7845   8.6985   9.3597  10.2151
    15.4654

     the Fermi energy is     7.5643 ev

!    total energy              =     -25.49728864 Ry
     estimated scf accuracy    <          1.6E-09 Ry
     smearing contrib. (-TS)   =       0.00000030 Ry
     internal energy E=F+TS    =     -25.49728894 Ry

     convergence has been achieved in   6 iterations

     Forces acting on atoms (cartesian axes, Ry/au):

     atom    1 type  1   force =    -0.00950426   -0.00434109   -0.00289182
     atom    2 type  1   force =     0.00950426    0.00434109    0.00289182

     Total force =     0.015332     Total SCF correction =     0.000030


     Computing stress (Cartesian axis) and pressure

          total   stress  (Ry/bohr**3)                   (kbar)     P=      -22.09
  -0.00004062   0.00010026   0.00007168           -5.98       14.75       10.54
   0.00010026  -0.00019156   0.00002144           14.75      -28.18        3.15
   0.00007168   0.00002144  -0.00021828           10.54        3.15      -32.11


     Entering Dynamics;  it =     5   time =  0.02903 pico-seconds

  new lattice vectors (alat unit) :
   1.055125584   0.004331518   0.003068903
   0.549614444   0.912566738   0.002897891
   0.549613440   0.318984464   0.859461775
  new unit-cell volume =    283.7261 (a.u.)^3
  new positions in cryst coord
As       0.266399369   0.275320775   0.277299734
As      -0.266399369  -0.275320775  -0.277299734
  new positions in cart coord (alat unit)
As       0.584812725   0.340856802   0.239943925
As      -0.584812725  -0.340856802  -0.239943925

     Ekin =     0.02806665 Ry    T = 1226.2 K  Etot =      -25.46922199
     new unit-cell volume =    283.72613 a.u.^3 (    42.04387 Ang^3 )
     density =      5.91641 g/cm^3

CELL_PARAMETERS (alat=  7.01033620)
   1.055125584   0.004331518   0.003068903
   0.549614444   0.912566738   0.002897891
   0.549613440   0.318984464   0.859461775

ATOMIC_POSITIONS (crystal)
As            0.2663993687        0.2753207754        0.2772997337
As           -0.2663993687       -0.2753207754       -0.2772997337



     Writing output data file ./pwscf.save/
     NEW-OLD atomic charge density approx. for the potential
     extrapolated charge    9.94575, renormalised to   10.00000

     total cpu time spent up to now is       11.8 secs

     Self-consistent Calculation

     iteration #  1     ecut=    25.00 Ry     beta= 0.70
     Davidson diagonalization with overlap
     ethr =  1.00E-06,  avg # of iterations =  5.3

     total cpu time spent up to now is       12.4 secs

     total energy              =     -25.49846599 Ry
     estimated scf accuracy    <       0.00025559 Ry

     iteration #  2     ecut=    25.00 Ry     beta= 0.70
     Davidson diagonalization with overlap
     ethr =  2.56E-06,  avg # of iterations =  2.0

     total cpu time spent up to now is       12.7 secs

     total energy              =     -25.49853135 Ry
     estimated scf accuracy    <       0.00004216 Ry

     iteration #  3     ecut=    25.00 Ry     beta= 0.70
     Davidson diagonalization with overlap
     ethr =  4.22E-07,  avg # of iterations =  1.8

     total cpu time spent up to now is       12.9 secs

     WARNING: integrated charge=     9.99738936, expected=    10.00000000

     total energy              =     -25.50012952 Ry
     estimated scf accuracy    <       0.00000235 Ry

     iteration #  4     ecut=    25.00 Ry     beta= 0.70
     Davidson diagonalization with overlap
     ethr =  2.35E-08,  avg # of iterations =  2.1

     total cpu time spent up to now is       13.2 secs

     WARNING: integrated charge=     9.99725961, expected=    10.00000000

     total energy              =     -25.50020336 Ry
     estimated scf accuracy    <       0.00000013 Ry

     iteration #  5     ecut=    25.00 Ry     beta= 0.70
     Davidson diagonalization with overlap
     ethr =  1.29E-09,  avg # of iterations =  1.5

     total cpu time spent up to now is       13.4 secs

     End of self-consistent calculation

          k = 0.1181 0.0657 0.0455 (   531 PWs)   bands (ev):

    -7.2826   1.2677   5.1891   5.2352   6.1187   9.4524   9.9914  10.1405
    14.0713

          k = 0.1172 0.0653 0.3371 (   522 PWs)   bands (ev):

    -6.3178  -1.2249   3.7685   5.2281   7.5359   7.8373   8.7484  11.3596
    13.5833

          k = 0.1198 0.0666-0.5376 (   520 PWs)   bands (ev):

    -4.9182  -3.4089   4.3179   4.4362   5.8307   8.8073   9.3244  10.0653
    15.1583

          k = 0.1189 0.0661-0.2460 (   525 PWs)   bands (ev):

    -6.7276  -0.2801   4.3813   4.9346   6.4423   8.9609   9.6817  10.9961
    13.1442

          k = 0.1172 0.3405-0.0559 (   522 PWs)   bands (ev):

    -6.3051  -1.2133   3.7377   5.2231   7.5091   7.8153   8.6983  11.3904
    13.5262

          k = 0.1164 0.3401 0.2357 (   519 PWs)   bands (ev):

    -5.9614  -1.0198   2.7014   3.7327   5.0319   9.8745  11.3326  11.5148
    13.1985

          k = 0.1189 0.3413-0.6391 (   510 PWs)   bands (ev):

    -4.4729  -2.9125   1.6509   2.6739   5.9441   9.4238  12.0662  13.1259
    13.5057

          k = 0.1181 0.3409-0.3475 (   521 PWs)   bands (ev):

    -5.2564  -2.5338   2.4875   4.5478   5.7966   9.0562  10.6262  11.6960
    13.1805

          k = 0.1197-0.4838 0.2484 (   520 PWs)   bands (ev):

    -4.8595  -3.4467   4.2800   4.4192   5.8073   8.7711   9.2833  10.0515
    15.2041

          k = 0.1189-0.4842 0.5400 (   510 PWs)   bands (ev):

    -4.4383  -2.9471   1.6502   2.6644   5.9599   9.3632  12.1172  13.1262
    13.4523

          k = 0.1214-0.4830-0.3347 (   510 PWs)   bands (ev):

    -4.7340  -2.3736   1.7551   3.2153   3.9012   9.5377  12.4339  13.6831
    14.2483

          k = 0.1206-0.4834-0.0431 (   521 PWs)   bands (ev):

    -5.2421  -2.5530   2.5780   4.4325   5.8012   9.0177  10.5545  11.6716
    13.2883

          k = 0.1189-0.2091 0.1470 (   525 PWs)   bands (ev):

    -6.7210  -0.2797   4.3529   4.9676   6.3990   8.9802   9.6787  10.9716
    13.1028

          k = 0.1181-0.2095 0.4386 (   521 PWs)   bands (ev):

    -5.2631  -2.5426   2.4880   4.5725   5.8315   9.0271  10.6596  11.7415
    13.1463

          k = 0.1206-0.2082-0.4362 (   521 PWs)   bands (ev):

    -5.2682  -2.5360   2.5493   4.4668   5.8521   9.0092  10.6132  11.7549
    13.2554

          k = 0.1197-0.2086-0.1446 (   525 PWs)   bands (ev):

    -6.7233  -0.2644   4.3803   5.0511   6.1319   8.9991   9.8440  10.9817
    12.9728

          k = 0.3559-0.0772-0.0535 (   522 PWs)   bands (ev):

    -6.2708  -1.2702   3.6572   5.3391   7.6450   7.8073   8.5684  11.3234
    13.3211

          k = 0.3550-0.0776 0.2381 (   519 PWs)   bands (ev):

    -5.9334  -1.0239   2.6888   3.7002   5.0363   9.6595  11.3299  11.5211
    13.3208

          k = 0.3576-0.0764-0.6366 (   510 PWs)   bands (ev):

    -4.4877  -2.8058   1.6340   2.6222   5.7273   9.4590  11.8101  13.0993
    13.7304

          k = 0.3567-0.0768-0.3451 (   521 PWs)   bands (ev):

    -5.2240  -2.5395   2.5690   4.4606   5.6115   9.0258  10.6569  11.5423
    13.3943

          k = 0.3550 0.1976-0.1549 (   519 PWs)   bands (ev):

    -5.9370  -1.0061   2.6703   3.7209   5.0262   9.6168  11.3031  11.5178
    13.3617

          k = 0.3542 0.1972 0.1366 (   522 PWs)   bands (ev):

    -6.1355  -1.8111   5.2624   5.4932   6.4232   7.9779   8.2153   9.0972
    15.2209

          k = 0.3567 0.1984-0.7381 (   520 PWs)   bands (ev):

    -5.1951  -2.3196   1.8937   4.2598   5.5293   9.6390   9.7530  12.5601
    14.7743

          k = 0.3559 0.1980-0.4465 (   510 PWs)   bands (ev):

    -4.7705  -2.1956   1.5961   3.2159   3.8576   9.3044  12.4198  13.8921
    14.3115

          k = 0.3575-0.6267 0.1494 (   510 PWs)   bands (ev):

    -4.4770  -2.8003   1.6331   2.6059   5.6949   9.4302  11.8395  13.0851
    13.7227

          k = 0.3567-0.6272 0.4410 (   520 PWs)   bands (ev):

    -5.1801  -2.3291   1.8878   4.2498   5.5132   9.6239   9.7550  12.5881
    14.8018

          k = 0.3592-0.6259-0.4337 (   520 PWs)   bands (ev):

    -5.1447  -2.4173   1.8483   4.3351   5.6374   9.5309   9.8364  12.5378
    14.8259

          k = 0.3584-0.6263-0.1422 (   510 PWs)   bands (ev):

    -4.3943  -2.9440   1.6541   2.6144   5.7893   9.4283  12.0982  13.0844
    13.4564

          k = 0.3567-0.3520 0.0480 (   521 PWs)   bands (ev):

    -5.2043  -2.5657   2.5990   4.4507   5.5942   9.0068  10.6340  11.4962
    13.3958

          k = 0.3559-0.3524 0.3395 (   510 PWs)   bands (ev):

    -4.7364  -2.2491   1.6240   3.1872   3.8628   9.3331  12.4117  13.8390
    14.3201

          k = 0.3584-0.3511-0.5352 (   510 PWs)   bands (ev):

    -4.3687  -2.9854   1.6541   2.6213   5.8359   9.3935  12.1234  13.0827
    13.4337

          k = 0.3576-0.3516-0.2436 (   520 PWs)   bands (ev):

    -4.7412  -3.5681   4.1606   4.4263   5.9112   8.8084   9.2255   9.9577
    15.3671

     the Fermi energy is     7.7110 ev

     WARNING: integrated charge=     9.99706063, expected=    10.00000000

!    total energy              =     -25.50021276 Ry
     estimated scf accuracy    <          9.8E-09 Ry
     smearing contrib. (-TS)   =       0.00005763 Ry
     internal energy E=F+TS    =     -25.50027039 Ry

     convergence has been achieved in   5 iterations

     Forces acting on atoms (cartesian axes, Ry/au):

     atom    1 type  1   force =     0.00455420   -0.00191007   -0.00177050
     atom    2 type  1   force =    -0.00455420    0.00191007    0.00177050

     Total force =     0.007419     Total SCF correction =     0.000074


     Computing stress (Cartesian axis) and pressure

          total   stress  (Ry/bohr**3)                   (kbar)     P=      -24.12
  -0.00012616   0.00003062   0.00002817          -18.56        4.50        4.14
   0.00003062  -0.00017127   0.00000437            4.50      -25.19        0.64
   0.00002817   0.00000437  -0.00019436            4.14        0.64      -28.59


     Entering Dynamics;  it =     6   time =  0.03628 pico-seconds

  new lattice vectors (alat unit) :
   1.057743408   0.010226663   0.007135849
   0.567119552   0.911152913   0.006510584
   0.567027064   0.317252610   0.857066426
  new unit-cell volume =    281.2988 (a.u.)^3
  new positions in cryst coord
As       0.266521601   0.275377744   0.277345164
As      -0.266521601  -0.275377744  -0.277345164
  new positions in cart coord (alat unit)
As       0.595345783   0.341625337   0.241397956
As      -0.595345783  -0.341625337  -0.241397956

     Ekin =     0.01866404 Ry    T = 1111.9 K  Etot =      -25.48154872
     new unit-cell volume =    281.29879 a.u.^3 (    41.68418 Ang^3 )
     density =      5.96746 g/cm^3

CELL_PARAMETERS (alat=  7.01033620)
   1.057743408   0.010226663   0.007135849
   0.567119552   0.911152913   0.006510584
   0.567027064   0.317252610   0.857066426

ATOMIC_POSITIONS (crystal)
As            0.2665216008        0.2753777438        0.2773451638
As           -0.2665216008       -0.2753777438       -0.2773451638



     Writing output data file ./pwscf.save/
     NEW-OLD atomic charge density approx. for the potential
     extrapolated charge    9.91077, renormalised to   10.00000

     total cpu time spent up to now is       13.7 secs

     Self-consistent Calculation

     iteration #  1     ecut=    25.00 Ry     beta= 0.70
     Davidson diagonalization with overlap
     ethr =  1.00E-06,  avg # of iterations =  4.3

     total cpu time spent up to now is       14.2 secs

     total energy              =     -25.49870725 Ry
     estimated scf accuracy    <       0.00007739 Ry

     iteration #  2     ecut=    25.00 Ry     beta= 0.70
     Davidson diagonalization with overlap
     ethr =  7.74E-07,  avg # of iterations =  3.2

     total cpu time spent up to now is       14.5 secs

     total energy              =     -25.49878514 Ry
     estimated scf accuracy    <       0.00004162 Ry

     iteration #  3     ecut=    25.00 Ry     beta= 0.70
     Davidson diagonalization with overlap
     ethr =  4.16E-07,  avg # of iterations =  1.1

     total cpu time spent up to now is       14.7 secs

     total energy              =     -25.49878767 Ry
     estimated scf accuracy    <       0.00000414 Ry

     iteration #  4     ecut=    25.00 Ry     beta= 0.70
     Davidson diagonalization with overlap
     ethr =  4.14E-08,  avg # of iterations =  1.0

     total cpu time spent up to now is       15.0 secs

     total energy              =     -25.49878748 Ry
     estimated scf accuracy    <       0.00000086 Ry

     iteration #  5     ecut=    25.00 Ry     beta= 0.70
     Davidson diagonalization with overlap
     ethr =  8.63E-09,  avg # of iterations =  2.9

     total cpu time spent up to now is       15.3 secs

     End of self-consistent calculation

          k = 0.1173 0.0639 0.0446 (   531 PWs)   bands (ev):

    -7.2722   1.3511   5.3792   5.3979   6.1666   9.5703  10.0931  10.3151
    14.3012

          k = 0.1153 0.0630 0.3379 (   522 PWs)   bands (ev):

    -6.3031  -1.1154   3.7417   5.3491   7.7807   7.9847   8.9638  11.4375
    13.7560

          k = 0.1212 0.0656-0.5420 (   520 PWs)   bands (ev):

    -4.8771  -3.3194   4.3143   4.5237   6.0044   8.9538   9.4924  10.0037
    15.0613

          k = 0.1192 0.0648-0.2487 (   525 PWs)   bands (ev):

    -6.7009  -0.1344   4.5322   4.9466   6.4338   9.0536   9.7973  11.1256
    13.2606

          k = 0.1153 0.3402-0.0564 (   522 PWs)   bands (ev):

    -6.2933  -1.1112   3.7138   5.3548   7.7666   7.9732   8.9232  11.4720
    13.7068

          k = 0.1133 0.3394 0.2370 (   519 PWs)   bands (ev):

    -5.9432  -0.9528   2.7766   3.8392   5.1763  10.0411  11.6182  11.7084
    13.3985

          k = 0.1192 0.3420-0.6430 (   510 PWs)   bands (ev):

    -4.4208  -2.8285   1.7204   2.7009   6.0337   9.6429  12.1862  13.2784
    13.5661

          k = 0.1172 0.3411-0.3497 (   521 PWs)   bands (ev):

    -5.2275  -2.4073   2.5224   4.6439   5.7794   9.1394  10.8503  11.9347
    13.3521

          k = 0.1212-0.4888 0.2466 (   520 PWs)   bands (ev):

    -4.8242  -3.3638   4.2899   4.5151   5.9924   8.9354   9.4584  10.0015
    15.0858

          k = 0.1193-0.4897 0.5399 (   510 PWs)   bands (ev):

    -4.3889  -2.8642   1.7243   2.6914   6.0499   9.5921  12.2415  13.2765
    13.5278

          k = 0.1252-0.4871-0.3401 (   510 PWs)   bands (ev):

    -4.6293  -2.3402   1.8226   3.2891   3.9540   9.5709  12.5308  13.7837
    14.3731

          k = 0.1232-0.4879-0.0468 (   521 PWs)   bands (ev):

    -5.1704  -2.4778   2.6433   4.5483   5.7626   9.0403  10.7387  11.8011
    13.3744

          k = 0.1192-0.2125 0.1456 (   525 PWs)   bands (ev):

    -6.6951  -0.1410   4.5140   4.9805   6.3978   9.0696   9.8045  11.1030
    13.2179

          k = 0.1173-0.2133 0.4389 (   521 PWs)   bands (ev):

    -5.2317  -2.4122   2.5185   4.6646   5.8055   9.1117  10.8739  11.9686
    13.3194

          k = 0.1232-0.2107-0.4410 (   521 PWs)   bands (ev):

    -5.1929  -2.4548   2.6116   4.5739   5.8040   9.0216  10.7713  11.8801
    13.3354

          k = 0.1212-0.2116-0.1477 (   525 PWs)   bands (ev):

    -6.6815  -0.1115   4.4661   5.0759   6.1630   9.0640   9.9070  11.0534
    13.0581

          k = 0.3557-0.0838-0.0585 (   522 PWs)   bands (ev):

    -6.2447  -1.0931   3.6017   5.3833   7.7713   7.8843   8.7260  11.4564
    13.5033

          k = 0.3538-0.0847 0.2348 (   519 PWs)   bands (ev):

    -5.9345  -0.9223   2.7062   3.9116   5.1439   9.8102  11.5610  11.7019
    13.5490

          k = 0.3597-0.0821-0.6451 (   510 PWs)   bands (ev):

    -4.4778  -2.6811   1.7200   2.6424   5.7884   9.7261  12.0339  13.2347
    13.8033

          k = 0.3577-0.0829-0.3518 (   521 PWs)   bands (ev):

    -5.1545  -2.4193   2.6153   4.5053   5.5651   9.0814  10.7115  11.6793
    13.5057

          k = 0.3537 0.1925-0.1595 (   519 PWs)   bands (ev):

    -5.9394  -0.9043   2.6961   3.9186   5.1363   9.7748  11.5437  11.7059
    13.5946

          k = 0.3518 0.1917 0.1339 (   522 PWs)   bands (ev):

    -6.1718  -1.7785   5.4762   5.6427   6.7129   8.1605   8.4887   9.3511
    15.3022

          k = 0.3577 0.1943-0.7461 (   520 PWs)   bands (ev):

    -5.2312  -2.2349   1.9673   4.4373   5.7530   9.8671  10.0085  12.7523
    14.8424

          k = 0.3557 0.1934-0.4528 (   510 PWs)   bands (ev):

    -4.7414  -2.1125   1.6601   3.3984   3.8922   9.3738  12.5482  14.0696
    14.4044

          k = 0.3597-0.6365 0.1435 (   510 PWs)   bands (ev):

    -4.4711  -2.6783   1.7209   2.6316   5.7654   9.7097  12.0618  13.2183
    13.8007

          k = 0.3577-0.6374 0.4368 (   520 PWs)   bands (ev):

    -5.2185  -2.2447   1.9563   4.4376   5.7455   9.8387  10.0293  12.7768
    14.8457

          k = 0.3637-0.6347-0.4432 (   520 PWs)   bands (ev):

    -5.1679  -2.3022   1.9382   4.4218   5.7742   9.7415  10.0707  12.8332
    14.9740

          k = 0.3617-0.6356-0.1499 (   510 PWs)   bands (ev):

    -4.3593  -2.8112   1.7106   2.6225   5.8483   9.5733  12.2892  13.1480
    13.5858

          k = 0.3577-0.3601 0.0425 (   521 PWs)   bands (ev):

    -5.1361  -2.4476   2.6433   4.5009   5.5499   9.0720  10.7026  11.6349
    13.5102

          k = 0.3558-0.3610 0.3358 (   510 PWs)   bands (ev):

    -4.7069  -2.1697   1.6885   3.3827   3.8915   9.3997  12.5393  14.0222
    14.4129

          k = 0.3617-0.3584-0.5441 (   510 PWs)   bands (ev):

    -4.3334  -2.8503   1.7131   2.6247   5.8864   9.5389  12.3180  13.1498
    13.5647

          k = 0.3597-0.3593-0.2508 (   520 PWs)   bands (ev):

    -4.6310  -3.4793   4.1354   4.4506   5.9717   8.8250   9.3145   9.9033
    15.3026

     the Fermi energy is     7.8307 ev

!    total energy              =     -25.49878777 Ry
     estimated scf accuracy    <       0.00000002 Ry
     smearing contrib. (-TS)   =       0.00003933 Ry
     internal energy E=F+TS    =     -25.49882709 Ry

     convergence has been achieved in   5 iterations

     Forces acting on atoms (cartesian axes, Ry/au):

     atom    1 type  1   force =     0.00351757   -0.00278151   -0.00290076
     atom    2 type  1   force =    -0.00351757    0.00278151    0.00290076

     Total force =     0.007553     Total SCF correction =     0.000108


     Computing stress (Cartesian axis) and pressure

          total   stress  (Ry/bohr**3)                   (kbar)     P=      -11.99
  -0.00008547  -0.00004741  -0.00003232          -12.57       -6.97       -4.75
  -0.00004741  -0.00007438   0.00001163           -6.97      -10.94        1.71
  -0.00003232   0.00001163  -0.00008463           -4.75        1.71      -12.45


     Entering Dynamics;  it =     7   time =  0.04354 pico-seconds

  new lattice vectors (alat unit) :
   1.060492796   0.007255252   0.004870586
   0.561310569   0.908891464   0.004131192
   0.561144732   0.316785959   0.853935173
  new unit-cell volume =    281.3427 (a.u.)^3
  new positions in cryst coord
As       0.266875782   0.275242244   0.277120978
As      -0.266875782  -0.275242244  -0.277120978
  new positions in cart coord (alat unit)
As       0.593021202   0.339889612   0.239080271
As      -0.593021202  -0.339889612  -0.239080271

     Ekin =     0.00765079 Ry    T =  971.4 K  Etot =      -25.49113698
     new unit-cell volume =    281.34268 a.u.^3 (    41.69068 Ang^3 )
     density =      5.96653 g/cm^3

CELL_PARAMETERS (alat=  7.01033620)
   1.060492796   0.007255252   0.004870586
   0.561310569   0.908891464   0.004131192
   0.561144732   0.316785959   0.853935173

ATOMIC_POSITIONS (crystal)
As            0.2668757818        0.2752422439        0.2771209783
As           -0.2668757818       -0.2752422439       -0.2771209783



     Writing output data file ./pwscf.save/
     NEW-OLD atomic charge density approx. for the potential
     extrapolated charge   10.00156, renormalised to   10.00000

     total cpu time spent up to now is       15.5 secs

     Self-consistent Calculation

     iteration #  1     ecut=    25.00 Ry     beta= 0.70
     Davidson diagonalization with overlap
     ethr =  1.00E-06,  avg # of iterations =  4.1

     Threshold (ethr) on eigenvalues was too large:
     Diagonalizing with lowered threshold

     Davidson diagonalization with overlap
     ethr =  3.84E-08,  avg # of iterations =  1.1

     total cpu time spent up to now is       16.2 secs

     total energy              =     -25.49896138 Ry
     estimated scf accuracy    <       0.00000384 Ry

     iteration #  2     ecut=    25.00 Ry     beta= 0.70
     Davidson diagonalization with overlap
     ethr =  3.84E-08,  avg # of iterations =  1.4

     total cpu time spent up to now is       16.5 secs

     total energy              =     -25.49896176 Ry
     estimated scf accuracy    <       0.00000027 Ry

     iteration #  3     ecut=    25.00 Ry     beta= 0.70
     Davidson diagonalization with overlap
     ethr =  2.65E-09,  avg # of iterations =  2.0

     total cpu time spent up to now is       16.7 secs

     End of self-consistent calculation

          k = 0.1172 0.0649 0.0453 (   531 PWs)   bands (ev):

    -7.2648   1.3685   5.3151   5.4076   6.1856   9.5688  10.0791  10.3139
    14.2750

          k = 0.1159 0.0644 0.3391 (   522 PWs)   bands (ev):

    -6.2877  -1.1117   3.7667   5.3217   7.7214   7.9639   8.9171  11.4267
    13.7170

          k = 0.1199 0.0659-0.5424 (   520 PWs)   bands (ev):

    -4.8615  -3.3152   4.3258   4.4907   5.9670   8.9313   9.4509  10.0260
    15.1601

          k = 0.1186 0.0654-0.2486 (   525 PWs)   bands (ev):

    -6.6965  -0.1272   4.4859   4.9786   6.4398   9.0570   9.7842  11.1372
    13.2477

          k = 0.1158 0.3413-0.0563 (   522 PWs)   bands (ev):

    -6.2801  -1.1101   3.7406   5.3343   7.7129   7.9536   8.8841  11.4636
    13.6731

          k = 0.1144 0.3408 0.2375 (   519 PWs)   bands (ev):

    -5.9255  -0.9580   2.7550   3.8623   5.1501   9.9959  11.5696  11.6612
    13.3704

          k = 0.1185 0.3423-0.6440 (   510 PWs)   bands (ev):

    -4.4019  -2.8287   1.7120   2.6909   5.9893   9.6011  12.1907  13.2943
    13.5880

          k = 0.1171 0.3418-0.3502 (   521 PWs)   bands (ev):

    -5.2175  -2.4034   2.5271   4.6148   5.8051   9.1021  10.7817  11.9128
    13.3140

          k = 0.1201-0.4879 0.2485 (   520 PWs)   bands (ev):

    -4.8147  -3.3595   4.3061   4.4908   5.9575   8.9176   9.4256  10.0302
    15.1775

          k = 0.1187-0.4884 0.5423 (   510 PWs)   bands (ev):

    -4.3739  -2.8616   1.7174   2.6820   6.0042   9.5531  12.2454  13.2986
    13.5581

          k = 0.1228-0.4869-0.3392 (   510 PWs)   bands (ev):

    -4.6298  -2.3451   1.8108   3.3211   3.9302   9.5731  12.5427  13.8230
    14.4375

          k = 0.1214-0.4874-0.0454 (   521 PWs)   bands (ev):

    -5.1720  -2.4820   2.6335   4.5500   5.7794   9.0802  10.7622  11.7859
    13.3918

          k = 0.1186-0.2115 0.1469 (   525 PWs)   bands (ev):

    -6.6914  -0.1379   4.4786   5.0052   6.4104   9.0749   9.7926  11.1167
    13.2078

          k = 0.1173-0.2120 0.4407 (   521 PWs)   bands (ev):

    -5.2201  -2.4071   2.5207   4.6334   5.8256   9.0730  10.8032  11.9449
    13.2845

          k = 0.1213-0.2105-0.4408 (   521 PWs)   bands (ev):

    -5.1912  -2.4583   2.6019   4.5710   5.8144   9.0552  10.7849  11.8590
    13.3535

          k = 0.1200-0.2110-0.1470 (   525 PWs)   bands (ev):

    -6.6824  -0.1541   4.5059   5.0741   6.2252   9.1079   9.9193  11.0569
    13.0662

          k = 0.3544-0.0811-0.0564 (   522 PWs)   bands (ev):

    -6.2506  -1.1294   3.6430   5.4219   7.7896   7.9178   8.7347  11.5110
    13.4927

          k = 0.3531-0.0816 0.2374 (   519 PWs)   bands (ev):

    -5.9246  -0.9131   2.7216   3.8586   5.1377   9.8022  11.5371  11.7045
    13.5219

          k = 0.3571-0.0801-0.6441 (   510 PWs)   bands (ev):

    -4.4586  -2.7013   1.7001   2.6645   5.8199   9.6906  11.9943  13.2155
    13.7771

          k = 0.3558-0.0806-0.3503 (   521 PWs)   bands (ev):

    -5.1691  -2.4466   2.6322   4.5303   5.6435   9.1367  10.7561  11.6832
    13.5000

          k = 0.3530 0.1953-0.1580 (   519 PWs)   bands (ev):

    -5.9299  -0.8935   2.7148   3.8582   5.1328   9.7691  11.5248  11.7090
    13.5653

          k = 0.3517 0.1948 0.1358 (   522 PWs)   bands (ev):

    -6.1478  -1.7634   5.4169   5.6421   6.6648   8.1374   8.4260   9.3155
    15.3186

          k = 0.3557 0.1963-0.7457 (   520 PWs)   bands (ev):

    -5.2001  -2.2377   1.9694   4.3892   5.7093   9.8321   9.9657  12.7374
    14.9001

          k = 0.3543 0.1958-0.4519 (   510 PWs)   bands (ev):

    -4.7371  -2.1022   1.6638   3.3374   3.9222   9.3811  12.5659  14.0396
    14.4076

          k = 0.3573-0.6339 0.1468 (   510 PWs)   bands (ev):

    -4.4545  -2.6988   1.7027   2.6554   5.8045   9.6763  12.0171  13.1983
    13.7782

          k = 0.3559-0.6344 0.4406 (   520 PWs)   bands (ev):

    -5.1892  -2.2470   1.9566   4.3943   5.7039   9.8090   9.9846  12.7609
    14.8940

          k = 0.3600-0.6329-0.4409 (   520 PWs)   bands (ev):

    -5.1515  -2.3064   1.9103   4.4394   5.7653   9.7264  10.0488  12.7964
    14.8942

          k = 0.3586-0.6334-0.1471 (   510 PWs)   bands (ev):

    -4.3663  -2.8255   1.7181   2.6430   5.8863   9.5701  12.2600  13.2061
    13.5986

          k = 0.3558-0.3575 0.0452 (   521 PWs)   bands (ev):

    -5.1525  -2.4741   2.6575   4.5281   5.6287   9.1329  10.7557  11.6411
    13.5078

          k = 0.3545-0.3580 0.3390 (   510 PWs)   bands (ev):

    -4.7047  -2.1589   1.6901   3.3290   3.9175   9.4066  12.5605  13.9960
    14.4239

          k = 0.3585-0.3565-0.5425 (   510 PWs)   bands (ev):

    -4.3419  -2.8613   1.7206   2.6435   5.9159   9.5357  12.2922  13.2188
    13.5792

          k = 0.3572-0.3570-0.2487 (   520 PWs)   bands (ev):

    -4.6606  -3.5089   4.2043   4.4972   5.9960   8.8938   9.3489  10.0039
    15.2921

     the Fermi energy is     7.8668 ev

!    total energy              =     -25.49896181 Ry
     estimated scf accuracy    <       0.00000002 Ry
     smearing contrib. (-TS)   =       0.00006570 Ry
     internal energy E=F+TS    =     -25.49902750 Ry

     convergence has been achieved in   3 iterations

     Forces acting on atoms (cartesian axes, Ry/au):

     atom    1 type  1   force =     0.00346139   -0.00303032   -0.00294426
     atom    2 type  1   force =    -0.00346139    0.00303032    0.00294426

     Total force =     0.007724     Total SCF correction =     0.000123


     Computing stress (Cartesian axis) and pressure

          total   stress  (Ry/bohr**3)                   (kbar)     P=      -13.78
  -0.00010404  -0.00001702  -0.00000698          -15.31       -2.50       -1.03
  -0.00001702  -0.00008652  -0.00000408           -2.50      -12.73       -0.60
  -0.00000698  -0.00000408  -0.00009042           -1.03       -0.60      -13.30


     Entering Dynamics;  it =     8   time =  0.05080 pico-seconds

  new lattice vectors (alat unit) :
   1.057993829   0.007000395   0.004757499
   0.560439044   0.905526361   0.004015495
   0.560328591   0.315813062   0.849770464
  new unit-cell volume =    278.3334 (a.u.)^3
  new positions in cryst coord
As       0.267533532   0.275011078   0.276750319
As      -0.267533532  -0.275011078  -0.276750319
  new positions in cart coord (alat unit)
As       0.592246887   0.338303986   0.237551343
As      -0.592246887  -0.338303986  -0.237551343

     Ekin =     0.00044845 Ry    T =  834.8 K  Etot =      -25.49851335
     new unit-cell volume =    278.33337 a.u.^3 (    41.24475 Ang^3 )
     density =      6.03104 g/cm^3

CELL_PARAMETERS (alat=  7.01033620)
   1.057993829   0.007000395   0.004757499
   0.560439044   0.905526361   0.004015495
   0.560328591   0.315813062   0.849770464

ATOMIC_POSITIONS (crystal)
As            0.2675335315        0.2750110776        0.2767503188
As           -0.2675335315       -0.2750110776       -0.2767503188



     Writing output data file ./pwscf.save/
     NEW-OLD atomic charge density approx. for the potential
     extrapolated charge    9.89189, renormalised to   10.00000

     total cpu time spent up to now is       17.0 secs

     Self-consistent Calculation

     iteration #  1     ecut=    25.00 Ry     beta= 0.70
     Davidson diagonalization with overlap
     ethr =  1.00E-06,  avg # of iterations =  3.0

     total cpu time spent up to now is       17.4 secs

     total energy              =     -25.49908917 Ry
     estimated scf accuracy    <       0.00005744 Ry

     iteration #  2     ecut=    25.00 Ry     beta= 0.70
     Davidson diagonalization with overlap
     ethr =  5.74E-07,  avg # of iterations =  3.0

     total cpu time spent up to now is       17.8 secs

     total energy              =     -25.49918508 Ry
     estimated scf accuracy    <       0.00005454 Ry

     iteration #  3     ecut=    25.00 Ry     beta= 0.70
     Davidson diagonalization with overlap
     ethr =  5.45E-07,  avg # of iterations =  1.0

     total cpu time spent up to now is       18.0 secs

     WARNING: integrated charge=     9.99875782, expected=    10.00000000

     total energy              =     -25.50058221 Ry
     estimated scf accuracy    <       0.00001068 Ry

     iteration #  4     ecut=    25.00 Ry     beta= 0.70
     Davidson diagonalization with overlap
     ethr =  1.07E-07,  avg # of iterations =  1.0

     total cpu time spent up to now is       18.2 secs

     WARNING: integrated charge=     9.99746371, expected=    10.00000000

     total energy              =     -25.50058652 Ry
     estimated scf accuracy    <       0.00000410 Ry

     iteration #  5     ecut=    25.00 Ry     beta= 0.70
     Davidson diagonalization with overlap
     ethr =  4.10E-08,  avg # of iterations =  2.0

     total cpu time spent up to now is       18.5 secs

     End of self-consistent calculation

          k = 0.1175 0.0651 0.0454 (   531 PWs)   bands (ev):

    -7.2161   1.5421   5.4408   5.5298   6.3306   9.7259  10.2480  10.4603
    14.4221

          k = 0.1162 0.0646 0.3407 (   522 PWs)   bands (ev):

    -6.2257  -0.9794   3.8496   5.4378   7.8767   8.1254   9.0544  11.6106
    13.8534

          k = 0.1202 0.0661-0.5451 (   520 PWs)   bands (ev):

    -4.7706  -3.2290   4.4236   4.5880   6.0988   9.0882   9.5913  10.1741
    15.3125

          k = 0.1188 0.0656-0.2498 (   525 PWs)   bands (ev):

    -6.6397   0.0227   4.5931   5.0982   6.5575   9.2221   9.9341  11.3025
    13.3863

[...]

    -4.1362  -2.5656   1.8707   2.8646   6.2002   9.9207  12.5152  13.7259
    14.0184

          k = 0.3572-0.3570-0.2502 (   520 PWs)   bands (ev):

    -4.5643  -3.1883   4.5812   4.7623   6.2427   9.3165   9.6514  10.4071
    15.6513

     the Fermi energy is     8.1816 ev

!    total energy              =     -25.49953460 Ry
     estimated scf accuracy    <       0.00000003 Ry
     smearing contrib. (-TS)   =       0.00005182 Ry
     internal energy E=F+TS    =     -25.49958641 Ry

     convergence has been achieved in   4 iterations

     Forces acting on atoms (cartesian axes, Ry/au):

     atom    1 type  1   force =     0.00051845    0.00037315    0.00018244
     atom    2 type  1   force =    -0.00051845   -0.00037315   -0.00018244

     Total force =     0.000939     Total SCF correction =     0.000108
     SCF correction compared to forces is large: reduce conv_thr to get better values


     Computing stress (Cartesian axis) and pressure

          total   stress  (Ry/bohr**3)                   (kbar)     P=       -0.22
   0.00000206  -0.00000161  -0.00000048            0.30       -0.24       -0.07
  -0.00000161  -0.00000233  -0.00000055           -0.24       -0.34       -0.08
  -0.00000048  -0.00000055  -0.00000422           -0.07       -0.08       -0.62


     Entering Dynamics;  it =    18   time =  0.12336 pico-seconds

  new lattice vectors (alat unit) :
   1.053136132   0.002130497   0.001313045
   0.550010055   0.898898271   0.002025658
   0.550320374   0.308599614   0.844458884
  new unit-cell volume =    274.7027 (a.u.)^3
  new positions in cryst coord
As       0.272099600   0.272068955   0.272250409
As      -0.272099600  -0.272068955  -0.272250409
  new positions in cart coord (alat unit)
As       0.586023528   0.329158392   0.230812674
As      -0.586023528  -0.329158392  -0.230812674

     Ekin =     0.00000998 Ry    T =  349.9 K  Etot =      -25.49952462
     new unit-cell volume =    274.70269 a.u.^3 (    40.70674 Ang^3 )
     density =      6.11075 g/cm^3

CELL_PARAMETERS (alat=  7.01033620)
   1.053136132   0.002130497   0.001313045
   0.550010055   0.898898271   0.002025658
   0.550320374   0.308599614   0.844458884

ATOMIC_POSITIONS (crystal)
As            0.2720995997        0.2720689550        0.2722504086
As           -0.2720995997       -0.2720689550       -0.2722504086



     Writing output data file ./pwscf.save/
     NEW-OLD atomic charge density approx. for the potential
     extrapolated charge   10.00206, renormalised to   10.00000

     total cpu time spent up to now is       33.6 secs

     Self-consistent Calculation

     iteration #  1     ecut=    25.00 Ry     beta= 0.70
     Davidson diagonalization with overlap
     ethr =  1.00E-06,  avg # of iterations =  1.0

     Threshold (ethr) on eigenvalues was too large:
     Diagonalizing with lowered threshold

     Davidson diagonalization with overlap
     ethr =  6.27E-10,  avg # of iterations =  3.2

     total cpu time spent up to now is       34.1 secs

     End of self-consistent calculation

          k = 0.1185 0.0664 0.0465 (   531 PWs)   bands (ev):

    -7.1149   1.7651   5.6168   5.6285   6.5294   9.9960  10.5499  10.5569
    14.5289

          k = 0.1181 0.0660 0.3430 (   522 PWs)   bands (ev):

    -6.0948  -0.8535   3.9933   5.6895   8.0540   8.3058   9.0479  11.8890
    13.9383

          k = 0.1192 0.0673-0.5464 (   520 PWs)   bands (ev):

    -4.5692  -3.1944   4.5908   4.7672   6.2416   9.3194   9.6558  10.4199
    15.6306

          k = 0.1189 0.0669-0.2499 (   525 PWs)   bands (ev):

    -6.5364   0.1814   4.7488   5.3134   6.7115   9.4180  10.2409  11.4661
    13.4619

          k = 0.1181 0.3451-0.0550 (   522 PWs)   bands (ev):

    -6.0938  -0.8535   3.9913   5.6901   8.0545   8.3042   9.0441  11.8881
    13.9337

          k = 0.1177 0.3446 0.2414 (   519 PWs)   bands (ev):

    -5.7232  -0.6187   2.9755   4.0523   5.3342  10.2101  11.9610  12.0545
    13.7593

          k = 0.1188 0.3459-0.6479 (   510 PWs)   bands (ev):

    -4.1449  -2.5624   1.8711   2.8653   6.2050   9.9207  12.5079  13.7227
    14.0249

          k = 0.1184 0.3455-0.3515 (   521 PWs)   bands (ev):

    -4.9951  -2.1936   2.8230   4.7896   6.1121   9.4126  11.1805  12.2032
    13.7155

          k = 0.1194-0.4908 0.2496 (   520 PWs)   bands (ev):

    -4.5655  -3.1966   4.5870   4.7664   6.2418   9.3179   9.6532  10.4171
    15.6353

          k = 0.1190-0.4912 0.5460 (   510 PWs)   bands (ev):

    -4.1425  -2.5654   1.8711   2.8653   6.2066   9.9186  12.5127  13.7216
    14.0198

          k = 0.1201-0.4899-0.3433 (   510 PWs)   bands (ev):

    -4.4663  -1.8972   1.8677   3.5190   4.1458   9.8040  12.9701  14.2988
    14.9288

          k = 0.1197-0.4903-0.0469 (   521 PWs)   bands (ev):

    -4.9958  -2.1897   2.8244   4.7832   6.1143   9.4051  11.1689  12.2072
    13.7150

          k = 0.1189-0.2122 0.1480 (   525 PWs)   bands (ev):

    -6.5362   0.1823   4.7472   5.3157   6.7062   9.4185  10.2427  11.4656
    13.4588

          k = 0.1186-0.2126 0.4445 (   521 PWs)   bands (ev):

    -4.9960  -2.1939   2.8232   4.7902   6.1166   9.4121  11.1808  12.2070
    13.7129

          k = 0.1197-0.2113-0.4449 (   521 PWs)   bands (ev):

    -4.9973  -2.1897   2.8228   4.7859   6.1188   9.4063  11.1717  12.2123
    13.7113

          k = 0.1193-0.2117-0.1484 (   525 PWs)   bands (ev):

    -6.5365   0.1882   4.7401   5.3182   6.6992   9.4144  10.2416  11.4696
    13.4603

          k = 0.3563-0.0788-0.0554 (   522 PWs)   bands (ev):

    -6.0922  -0.8521   3.9919   5.6849   8.0523   8.3011   9.0419  11.8766
    13.9318

          k = 0.3559-0.0793 0.2411 (   519 PWs)   bands (ev):

    -5.7211  -0.6230   2.9738   4.0577   5.3332  10.2076  11.9604  12.0487
    13.7557

          k = 0.3570-0.0779-0.6483 (   510 PWs)   bands (ev):

    -4.1421  -2.5630   1.8718   2.8619   6.1977   9.9162  12.5105  13.7297
    14.0285

          k = 0.3567-0.0784-0.3518 (   521 PWs)   bands (ev):

    -4.9943  -2.1886   2.8196   4.7861   6.1078   9.4009  11.1731  12.2067
    13.7133

          k = 0.3559 0.1998-0.1569 (   519 PWs)   bands (ev):

    -5.7206  -0.6230   2.9727   4.0588   5.3326  10.2031  11.9594  12.0481
    13.7584

          k = 0.3555 0.1993 0.1395 (   522 PWs)   bands (ev):

    -5.9164  -1.5560   5.7968   5.8021   7.0147   8.4944   8.4988   9.6152
    15.7197

          k = 0.3566 0.2007-0.7498 (   520 PWs)   bands (ev):

    -4.9028  -2.0735   2.1277   4.6421   5.9458  10.0621  10.3940  13.1986
    15.2256

          k = 0.3562 0.2002-0.4534 (   510 PWs)   bands (ev):

    -4.4630  -1.9007   1.8647   3.5256   4.1394   9.7994  12.9689  14.3040
    14.9395

          k = 0.3572-0.6361 0.1477 (   510 PWs)   bands (ev):

    -4.1405  -2.5633   1.8714   2.8607   6.1941   9.9154  12.5118  13.7287
    14.0276

          k = 0.3568-0.6365 0.4441 (   520 PWs)   bands (ev):

    -4.9017  -2.0750   2.1275   4.6422   5.9466  10.0599  10.3953  13.1989
    15.2282

          k = 0.3579-0.6352-0.4452 (   520 PWs)   bands (ev):

    -4.9011  -2.0759   2.1306   4.6388   5.9465  10.0585  10.3944  13.1954
    15.2407

          k = 0.3576-0.6356-0.1488 (   510 PWs)   bands (ev):

    -4.1396  -2.5635   1.8695   2.8620   6.1942   9.9194  12.5094  13.7226
    14.0205

          k = 0.3567-0.3574 0.0462 (   521 PWs)   bands (ev):

    -4.9938  -2.1890   2.8214   4.7840   6.1077   9.3992  11.1707  12.2054
    13.7144

          k = 0.3564-0.3579 0.3426 (   510 PWs)   bands (ev):

    -4.4621  -1.9036   1.8675   3.5241   4.1406   9.8030  12.9687  14.2998
    14.9382

          k = 0.3575-0.3566-0.5467 (   510 PWs)   bands (ev):

    -4.1388  -2.5663   1.8697   2.8632   6.1993   9.9181  12.5128  13.7225
    14.0163

          k = 0.3571-0.3570-0.2503 (   520 PWs)   bands (ev):

    -4.5653  -3.1911   4.5809   4.7614   6.2403   9.3141   9.6497  10.4071
    15.6454

     the Fermi energy is     8.1786 ev

!    total energy              =     -25.49953488 Ry
     estimated scf accuracy    <       0.00000006 Ry
     smearing contrib. (-TS)   =       0.00005190 Ry
     internal energy E=F+TS    =     -25.49958679 Ry

     convergence has been achieved in   1 iterations

     Forces acting on atoms (cartesian axes, Ry/au):

     atom    1 type  1   force =     0.00049380    0.00034464    0.00015258
     atom    2 type  1   force =    -0.00049380   -0.00034464   -0.00015258

     Total force =     0.000879     Total SCF correction =     0.000306
     SCF correction compared to forces is large: reduce conv_thr to get better values


     Computing stress (Cartesian axis) and pressure

          total   stress  (Ry/bohr**3)                   (kbar)     P=       -0.83
  -0.00000327  -0.00000150  -0.00000110           -0.48       -0.22       -0.16
  -0.00000150  -0.00000648  -0.00000064           -0.22       -0.95       -0.09
  -0.00000110  -0.00000064  -0.00000722           -0.16       -0.09       -1.06


     Entering Dynamics;  it =    19   time =  0.13062 pico-seconds

  new lattice vectors (alat unit) :
   1.052990547   0.002005600   0.001291500
   0.549970083   0.898775578   0.001963135
   0.550215912   0.308454411   0.844319140
  new unit-cell volume =    274.6110 (a.u.)^3
  new positions in cryst coord
As       0.272116964   0.272095722   0.272265183
As      -0.272116964  -0.272095722  -0.272265183
  new positions in cart coord (alat unit)
As       0.585985734   0.329080144   0.230764305
As      -0.585985734  -0.329080144  -0.230764305

     Ekin =     0.00000202 Ry    T =  330.5 K  Etot =      -25.49953286
     new unit-cell volume =    274.61103 a.u.^3 (    40.69316 Ang^3 )
     density =      6.11279 g/cm^3

CELL_PARAMETERS (alat=  7.01033620)
   1.052990547   0.002005600   0.001291500
   0.549970083   0.898775578   0.001963135
   0.550215912   0.308454411   0.844319140

ATOMIC_POSITIONS (crystal)
As            0.2721169640        0.2720957223        0.2722651830
As           -0.2721169640       -0.2720957223       -0.2722651830



     Writing output data file ./pwscf.save/
     NEW-OLD atomic charge density approx. for the potential
     extrapolated charge    9.99666, renormalised to   10.00000

     total cpu time spent up to now is       34.4 secs

     Self-consistent Calculation

     iteration #  1     ecut=    25.00 Ry     beta= 0.70
     Davidson diagonalization with overlap
     ethr =  1.00E-06,  avg # of iterations =  1.0

     Threshold (ethr) on eigenvalues was too large:
     Diagonalizing with lowered threshold

     Davidson diagonalization with overlap
     ethr =  2.15E-09,  avg # of iterations =  2.8

     total cpu time spent up to now is       34.9 secs

     total energy              =     -25.49953538 Ry
     estimated scf accuracy    <       0.00000022 Ry

     iteration #  2     ecut=    25.00 Ry     beta= 0.70
     Davidson diagonalization with overlap
     ethr =  2.18E-09,  avg # of iterations =  2.1

     total cpu time spent up to now is       35.2 secs

     End of self-consistent calculation

          k = 0.1185 0.0664 0.0465 (   531 PWs)   bands (ev):

    -7.1135   1.7716   5.6196   5.6310   6.5351   9.9999  10.5552  10.5612
    14.5344

          k = 0.1182 0.0660 0.3430 (   522 PWs)   bands (ev):

    -6.0931  -0.8493   3.9971   5.6915   8.0583   8.3112   9.0534  11.8951
    13.9423

          k = 0.1193 0.0673-0.5464 (   520 PWs)   bands (ev):

    -4.5671  -3.1914   4.5948   4.7691   6.2461   9.3243   9.6616  10.4270
    15.6388

          k = 0.1189 0.0669-0.2500 (   525 PWs)   bands (ev):

    -6.5349   0.1859   4.7507   5.3185   6.7158   9.4249  10.2447  11.4727
    13.4682

          k = 0.1181 0.3451-0.0550 (   522 PWs)   bands (ev):

    -6.0922  -0.8498   3.9953   5.6927   8.0597   8.3104   9.0504  11.8944
    13.9382

          k = 0.1178 0.3447 0.2415 (   519 PWs)   bands (ev):

    -5.7212  -0.6141   2.9780   4.0543   5.3393  10.2131  11.9673  12.0598
    13.7660

          k = 0.1188 0.3459-0.6480 (   510 PWs)   bands (ev):

    -4.1423  -2.5595   1.8734   2.8688   6.2094   9.9257  12.5119  13.7291
    14.0317

          k = 0.1185 0.3455-0.3515 (   521 PWs)   bands (ev):

    -4.9934  -2.1903   2.8253   4.7943   6.1171   9.4191  11.1871  12.2090
    13.7210

          k = 0.1193-0.4908 0.2496 (   520 PWs)   bands (ev):

    -4.5640  -3.1938   4.5914   4.7692   6.2470   9.3238   9.6598  10.4248
    15.6423

          k = 0.1190-0.4912 0.5461 (   510 PWs)   bands (ev):

    -4.1402  -2.5624   1.8736   2.8687   6.2110   9.9244  12.5166  13.7286
    14.0272

          k = 0.1201-0.4900-0.3434 (   510 PWs)   bands (ev):

    -4.4635  -1.8947   1.8716   3.5209   4.1501   9.8071  12.9770  14.3066
    14.9377

          k = 0.1197-0.4904-0.0469 (   521 PWs)   bands (ev):

    -4.9939  -2.1871   2.8267   4.7884   6.1190   9.4121  11.1765  12.2122
    13.7203

          k = 0.1189-0.2122 0.1481 (   525 PWs)   bands (ev):

    -6.5347   0.1864   4.7502   5.3204   6.7109   9.4254  10.2470  11.4723
    13.4654

          k = 0.1186-0.2126 0.4445 (   521 PWs)   bands (ev):

    -4.9942  -2.1904   2.8251   4.7945   6.1209   9.4188  11.1868  12.2123
    13.7187

          k = 0.1197-0.2113-0.4449 (   521 PWs)   bands (ev):

    -4.9950  -2.1867   2.8250   4.7904   6.1229   9.4127  11.1777  12.2165
    13.7164

          k = 0.1193-0.2118-0.1484 (   525 PWs)   bands (ev):

    -6.5349   0.1922   4.7424   5.3230   6.7044   9.4217  10.2452  11.4756
    13.4664

          k = 0.3563-0.0789-0.0554 (   522 PWs)   bands (ev):

    -6.0905  -0.8478   3.9956   5.6871   8.0563   8.3067   9.0475  11.8841
    13.9361

          k = 0.3560-0.0793 0.2411 (   519 PWs)   bands (ev):

    -5.7193  -0.6180   2.9758   4.0604   5.3380  10.2106  11.9658  12.0542
    13.7629

          k = 0.3571-0.0780-0.6483 (   510 PWs)   bands (ev):

    -4.1399  -2.5597   1.8741   2.8654   6.2021   9.9220  12.5151  13.7357
    14.0353

          k = 0.3567-0.0784-0.3519 (   521 PWs)   bands (ev):

    -4.9923  -2.1856   2.8221   4.7903   6.1126   9.4080  11.1786  12.2111
    13.7185

          k = 0.3559 0.1998-0.1569 (   519 PWs)   bands (ev):

    -5.7190  -0.6178   2.9753   4.0606   5.3377  10.2065  11.9655  12.0539
    13.7654

          k = 0.3556 0.1993 0.1396 (   522 PWs)   bands (ev):

    -5.9147  -1.5510   5.7989   5.8045   7.0184   8.4991   8.5030   9.6211
    15.7257

          k = 0.3567 0.2006-0.7499 (   520 PWs)   bands (ev):

    -4.9009  -2.0689   2.1300   4.6441   5.9501  10.0671  10.3988  13.2039
    15.2329

          k = 0.3563 0.2002-0.4534 (   510 PWs)   bands (ev):

    -4.4608  -1.8975   1.8686   3.5272   4.1441   9.8029  12.9760  14.3118
    14.9472

          k = 0.3572-0.6361 0.1477 (   510 PWs)   bands (ev):

    -4.1385  -2.5602   1.8740   2.8644   6.1994   9.9219  12.5159  13.7349
    14.0345

          k = 0.3568-0.6365 0.4442 (   520 PWs)   bands (ev):

    -4.9000  -2.0704   2.1294   4.6449   5.9514  10.0653  10.4003  13.2037
    15.2342

          k = 0.3579-0.6353-0.4453 (   520 PWs)   bands (ev):

    -4.8992  -2.0711   2.1326   4.6408   5.9505  10.0637  10.3991  13.2014
    15.2469

          k = 0.3575-0.6357-0.1488 (   510 PWs)   bands (ev):

    -4.1374  -2.5604   1.8718   2.8656   6.1993   9.9242  12.5136  13.7289
    14.0278

          k = 0.3568-0.3575 0.0462 (   521 PWs)   bands (ev):

    -4.9919  -2.1860   2.8236   4.7885   6.1126   9.4071  11.1771  12.2102
    13.7201

          k = 0.3564-0.3579 0.3427 (   510 PWs)   bands (ev):

    -4.4601  -1.9004   1.8712   3.5268   4.1449   9.8063  12.9759  14.3085
    14.9462

          k = 0.3575-0.3566-0.5468 (   510 PWs)   bands (ev):

    -4.1367  -2.5628   1.8721   2.8665   6.2036   9.9231  12.5175  13.7290
    14.0240

          k = 0.3571-0.3571-0.2503 (   520 PWs)   bands (ev):

    -4.5631  -3.1885   4.5855   4.7634   6.2446   9.3189   9.6557  10.4153
    15.6525

     the Fermi energy is     8.1838 ev

!    total energy              =     -25.49953552 Ry
     estimated scf accuracy    <       0.00000007 Ry
     smearing contrib. (-TS)   =       0.00005080 Ry
     internal energy E=F+TS    =     -25.49958632 Ry

     convergence has been achieved in   2 iterations

     Forces acting on atoms (cartesian axes, Ry/au):

     atom    1 type  1   force =     0.00035013    0.00026642    0.00009408
     atom    2 type  1   force =    -0.00035013   -0.00026642   -0.00009408

     Total force =     0.000636     Total SCF correction =     0.000267
     SCF correction compared to forces is large: reduce conv_thr to get better values


     Computing stress (Cartesian axis) and pressure

          total   stress  (Ry/bohr**3)                   (kbar)     P=       -0.27
   0.00000065  -0.00000102  -0.00000119            0.10       -0.15       -0.18
  -0.00000102  -0.00000277   0.00000012           -0.15       -0.41        0.02
  -0.00000119   0.00000012  -0.00000329           -0.18        0.02       -0.48


     Wentzcovitch Damped Cell Dynamics Minimization:
     convergence achieved, Efinal=   -25.49953552

------------------------------------------------------------------------

     Final estimate of lattice vectors (input alat units)
   1.052990547   0.002005600   0.001291500
   0.549970083   0.898775578   0.001963135
   0.550215912   0.308454411   0.844319140
  final unit-cell volume =    274.6110 (a.u.)^3
  input alat =       7.0103 (a.u.)
Begin final coordinates
     new unit-cell volume =    274.61103 a.u.^3 (    40.69316 Ang^3 )
     density =      6.11279 g/cm^3

CELL_PARAMETERS (alat=  7.01033620)
   1.052990547   0.002005600   0.001291500
   0.549970083   0.898775578   0.001963135
   0.550215912   0.308454411   0.844319140

ATOMIC_POSITIONS (crystal)
As            0.2721169640        0.2720957223        0.2722651830
As           -0.2721169640       -0.2720957223       -0.2722651830
End final coordinates



     Writing output data file ./pwscf.save/

     init_run     :      0.22s CPU      0.22s WALL (       1 calls)
     electrons    :     29.04s CPU     30.01s WALL (      20 calls)
     update_pot   :      1.81s CPU      1.81s WALL (      19 calls)
     forces       :      0.81s CPU      0.82s WALL (      20 calls)
     stress       :      2.18s CPU      2.22s WALL (      20 calls)

     Called by init_run:
     wfcinit      :      0.09s CPU      0.10s WALL (       1 calls)
     potinit      :      0.04s CPU      0.04s WALL (       1 calls)
     hinit0       :      0.08s CPU      0.08s WALL (       1 calls)

     Called by electrons:
     c_bands      :     24.24s CPU     25.11s WALL (     101 calls)
     sum_band     :      4.57s CPU      4.66s WALL (     101 calls)
     v_of_rho     :      0.17s CPU      0.17s WALL (     110 calls)
     mix_rho      :      0.05s CPU      0.05s WALL (     101 calls)

     Called by c_bands:
     init_us_2    :      0.74s CPU      0.76s WALL (    7776 calls)
     cegterg      :     23.68s CPU     24.53s WALL (    3232 calls)

     Called by *egterg:
     cdiaghg      :      1.28s CPU      1.32s WALL (    9123 calls)
     h_psi        :     20.89s CPU     21.65s WALL (   10115 calls)
     g_psi        :      0.22s CPU      0.23s WALL (    6851 calls)

     Called by h_psi:
     h_psi:calbec :      0.22s CPU      0.23s WALL (   10115 calls)
     vloc_psi     :     20.31s CPU     21.05s WALL (   10115 calls)
     add_vuspsi   :      0.18s CPU      0.19s WALL (   10115 calls)

     General routines
     calbec       :      0.27s CPU      0.28s WALL (   13315 calls)
     fft          :      0.06s CPU      0.06s WALL (     440 calls)
     ffts         :      0.01s CPU      0.01s WALL (     101 calls)
     fftw         :     21.43s CPU     22.16s WALL (  180874 calls)


     PWSCF        :     34.20s CPU     35.39s WALL


   This run was terminated on:  15:29:31   4Feb2021            

=------------------------------------------------------------------------------=
   JOB DONE.
=------------------------------------------------------------------------------=
