
     Program PWSCF v.7.2 starts on  9Jun2023 at 10:33:15 
        Git branch: remove-duplicated-makov_payne
        Last git commit: ddfd363429aefcc35449809c125ba5f368307fd5-dirty
        Last git commit date: Thu Jun 8 16:56:04 2023 +0200
        Last git commit subject: removed duplicated code of the makov payne correct

     This program is part of the open-source Quantum ESPRESSO suite
     for quantum simulation of materials; please cite
         "P. Giannozzi et al., J. Phys.:Condens. Matter 21 395502 (2009);
         "P. Giannozzi et al., J. Phys.:Condens. Matter 29 465901 (2017);
         "P. Giannozzi et al., J. Chem. Phys. 152 154105 (2020);
          URL http://www.quantum-espresso.org", 
     in publications or presentations arising from this work. More details at
     http://www.quantum-espresso.org/quote

     Parallel version (MPI), running on     1 processors

     MPI processes distributed on     1 nodes
     21659 MiB available memory on the printing compute node when the environment starts

     Reading input from cluster6.in

     Current dimensions of program PWSCF are:
     Max number of different atomic species (ntypx) = 10
     Max number of k-points (npk) =  40000
     Max angular momentum in pseudopotentials (lmaxx) =  4
     file N.pbe-kjpaw.UPF: wavefunction(s)  2P renormalized

     gamma-point specific algorithms are used

     Subspace diagonalization in iterative solution of the eigenvalue problem:
     a serial algorithm will be used


     G-vector sticks info
     --------------------
     sticks:   dense  smooth     PW     G-vecs:    dense   smooth      PW
     Sum        1369    1369    349                38401    38401    4801

     Using Slab Decomposition



     bravais-lattice index     =            1
     lattice parameter (alat)  =      12.0000  a.u.
     unit-cell volume          =    1728.0000 (a.u.)^3
     number of atoms/cell      =            3
     number of atomic types    =            2
     number of electrons       =         8.00
     number of Kohn-Sham states=            7
     kinetic-energy cutoff     =      30.0000  Ry
     charge density cutoff     =     120.0000  Ry
     scf convergence threshold =      1.0E-07
     mixing beta               =       0.7000
     number of iterations used =            8  plain     mixing
     Exchange-correlation= SLA  PW   PBX  PBC
                           (   1   4   3   4   0   0   0)

     celldm(1)=  12.000000  celldm(2)=   0.000000  celldm(3)=   0.000000
     celldm(4)=   0.000000  celldm(5)=   0.000000  celldm(6)=   0.000000

     crystal axes: (cart. coord. in units of alat)
               a(1) = (   1.000000   0.000000   0.000000 )  
               a(2) = (   0.000000   1.000000   0.000000 )  
               a(3) = (   0.000000   0.000000   1.000000 )  

     reciprocal axes: (cart. coord. in units 2 pi/alat)
               b(1) = (  1.000000  0.000000  0.000000 )  
               b(2) = (  0.000000  1.000000  0.000000 )  
               b(3) = (  0.000000  0.000000  1.000000 )  


     PseudoPot. # 1 for N  read from file:
     /scratch/rbertoss/q-e/test-suite/..//pseudo/N.pbe-kjpaw.UPF
     MD5 check sum: 5f9733fda631a654e402ab8de17a7a3d
     Pseudo is Projector augmented-wave + core cor, Zval =  5.0
     Generated using "atomic" code by A. Dal Corso  (Quantum ESPRESSO distribution)
     Shape of augmentation charge: BESSEL
     Using radial grid of 1085 points,  4 beta functions with: 
                l(1) =   0
                l(2) =   0
                l(3) =   1
                l(4) =   1
     Q(r) pseudized with 0 coefficients 


     PseudoPot. # 2 for H  read from file:
     /scratch/rbertoss/q-e/test-suite/..//pseudo/H.pbe-kjpaw.UPF
     MD5 check sum: a225a3f3a1be5237eb8f6a7e61cbb4ee
     Pseudo is Projector augmented-wave, Zval =  1.0
     Generated using "atomic" code by A. Dal Corso (espresso distribution)
     Shape of augmentation charge: PSQ
     Using radial grid of  929 points,  2 beta functions with: 
                l(1) =   0
                l(2) =   0
     Q(r) pseudized with 0 coefficients 


     atomic species   valence    mass     pseudopotential
        N              5.00     1.00000     N ( 1.00)
        H              1.00     1.00000     H ( 1.00)

      4 Sym. Ops. (no inversion) found



   Cartesian axes

     site n.     atom                  positions (alat units)
         1           N   tau(   1) = (   0.0000000   0.0000000   0.0000000  )
         2           H   tau(   2) = (   0.0833333   0.0833333   0.0833333  )
         3           H   tau(   3) = (  -0.0833333  -0.0833333   0.0833333  )

     number of k points=     1
                       cart. coord. in units 2pi/alat
        k(    1) = (   0.0000000   0.0000000   0.0000000), wk =   2.0000000

     Dense  grid:    19201 G-vectors     FFT dimensions: (  45,  45,  45)

     Estimated max dynamical RAM per process >      29.21 MB

     Check: negative core charge=   -0.000005

     Initial potential from superposition of free atoms

     starting charge       7.0000, renormalised to       8.0000

     negative rho (up, down):  7.729E-04 0.000E+00
     Starting wfcs are    6 randomized atomic wfcs +    1 random wfcs
     Checking if some PAW data can be deallocated... 

     total cpu time spent up to now is        0.7 secs

     per-process dynamical memory:    20.9 Mb

     Self-consistent Calculation

     iteration #  1     ecut=    30.00 Ry     beta= 0.70
     Davidson diagonalization with overlap
     ethr =  1.00E-02,  avg # of iterations =  6.0

     total cpu time spent up to now is        0.9 secs

     total energy              =     -29.51940326 Ry
     estimated scf accuracy    <       1.58637065 Ry

     iteration #  2     ecut=    30.00 Ry     beta= 0.70
     Davidson diagonalization with overlap
     ethr =  1.00E-02,  avg # of iterations =  3.0

     total cpu time spent up to now is        1.1 secs

     total energy              =     -30.54654039 Ry
     estimated scf accuracy    <       3.13324304 Ry

     iteration #  3     ecut=    30.00 Ry     beta= 0.70
     Davidson diagonalization with overlap
     ethr =  1.00E-02,  avg # of iterations =  2.0

     total cpu time spent up to now is        1.3 secs

     total energy              =     -30.59999015 Ry
     estimated scf accuracy    <       0.56695142 Ry

     iteration #  4     ecut=    30.00 Ry     beta= 0.70
     Davidson diagonalization with overlap
     ethr =  7.09E-03,  avg # of iterations =  2.0

     total cpu time spent up to now is        1.5 secs

     total energy              =     -30.59201837 Ry
     estimated scf accuracy    <       0.15877030 Ry

     iteration #  5     ecut=    30.00 Ry     beta= 0.70
     Davidson diagonalization with overlap
     ethr =  1.98E-03,  avg # of iterations =  1.0

     negative rho (up, down):  2.845E-05 0.000E+00

     total cpu time spent up to now is        1.7 secs

     total energy              =     -30.56625744 Ry
     estimated scf accuracy    <       0.06325253 Ry

     iteration #  6     ecut=    30.00 Ry     beta= 0.70
     Davidson diagonalization with overlap
     ethr =  7.91E-04,  avg # of iterations =  2.0

     total cpu time spent up to now is        1.9 secs

     total energy              =     -30.50233338 Ry
     estimated scf accuracy    <       1.43955982 Ry

     iteration #  7     ecut=    30.00 Ry     beta= 0.70
     Davidson diagonalization with overlap
     ethr =  7.91E-04,  avg # of iterations =  1.0

     total cpu time spent up to now is        2.0 secs

     total energy              =     -30.59185199 Ry
     estimated scf accuracy    <       0.00591367 Ry

     iteration #  8     ecut=    30.00 Ry     beta= 0.70
     Davidson diagonalization with overlap
     ethr =  7.39E-05,  avg # of iterations =  7.0

     total cpu time spent up to now is        2.2 secs

     total energy              =     -30.59099841 Ry
     estimated scf accuracy    <       0.01687248 Ry

     iteration #  9     ecut=    30.00 Ry     beta= 0.70
     Davidson diagonalization with overlap
     ethr =  7.39E-05,  avg # of iterations =  1.0

     total cpu time spent up to now is        2.4 secs

     total energy              =     -30.59111404 Ry
     estimated scf accuracy    <       0.01209830 Ry

     iteration # 10     ecut=    30.00 Ry     beta= 0.70
     Davidson diagonalization with overlap
     ethr =  7.39E-05,  avg # of iterations =  1.0

     total cpu time spent up to now is        2.6 secs

     total energy              =     -30.59009821 Ry
     estimated scf accuracy    <       0.01213540 Ry

     iteration # 11     ecut=    30.00 Ry     beta= 0.70
     Davidson diagonalization with overlap
     ethr =  7.39E-05,  avg # of iterations =  1.0

     total cpu time spent up to now is        2.8 secs

     total energy              =     -30.59011569 Ry
     estimated scf accuracy    <       0.00944336 Ry

     iteration # 12     ecut=    30.00 Ry     beta= 0.70
     Davidson diagonalization with overlap
     ethr =  7.39E-05,  avg # of iterations =  1.0

     total cpu time spent up to now is        3.0 secs

     total energy              =     -30.59018327 Ry
     estimated scf accuracy    <       0.00933616 Ry

     iteration # 13     ecut=    30.00 Ry     beta= 0.70
     Davidson diagonalization with overlap
     ethr =  7.39E-05,  avg # of iterations =  1.0

     total cpu time spent up to now is        3.2 secs

     total energy              =     -30.58909606 Ry
     estimated scf accuracy    <       0.00935965 Ry

     iteration # 14     ecut=    30.00 Ry     beta= 0.70
     Davidson diagonalization with overlap
     ethr =  7.39E-05,  avg # of iterations =  1.0

     total cpu time spent up to now is        3.3 secs

     total energy              =     -30.58885290 Ry
     estimated scf accuracy    <       0.00638075 Ry

     iteration # 15     ecut=    30.00 Ry     beta= 0.70
     Davidson diagonalization with overlap
     ethr =  7.39E-05,  avg # of iterations =  1.0

     negative rho (up, down):  1.311E-03 0.000E+00

     total cpu time spent up to now is        3.5 secs

     total energy              =     -30.58704374 Ry
     estimated scf accuracy    <       0.00559597 Ry

     iteration # 16     ecut=    30.00 Ry     beta= 0.70
     Davidson diagonalization with overlap
     ethr =  6.99E-05,  avg # of iterations =  2.0

     negative rho (up, down):  1.411E-03 0.000E+00

     total cpu time spent up to now is        3.7 secs

     total energy              =     -30.58788220 Ry
     estimated scf accuracy    <       0.00004173 Ry

     iteration # 17     ecut=    30.00 Ry     beta= 0.70
     Davidson diagonalization with overlap
     ethr =  5.22E-07,  avg # of iterations = 12.0

     negative rho (up, down):  1.369E-03 0.000E+00

     total cpu time spent up to now is        3.9 secs

     total energy              =     -30.58793096 Ry
     estimated scf accuracy    <       0.00004272 Ry

     iteration # 18     ecut=    30.00 Ry     beta= 0.70
     Davidson diagonalization with overlap
     ethr =  5.22E-07,  avg # of iterations =  1.0

     negative rho (up, down):  1.366E-03 0.000E+00

     total cpu time spent up to now is        4.1 secs

     total energy              =     -30.58793018 Ry
     estimated scf accuracy    <       0.00001199 Ry

     iteration # 19     ecut=    30.00 Ry     beta= 0.70
     Davidson diagonalization with overlap
     ethr =  1.50E-07,  avg # of iterations =  2.0

     negative rho (up, down):  1.380E-03 0.000E+00

     total cpu time spent up to now is        4.3 secs

     total energy              =     -30.58793171 Ry
     estimated scf accuracy    <       0.00000337 Ry

     iteration # 20     ecut=    30.00 Ry     beta= 0.70
     Davidson diagonalization with overlap
     ethr =  4.21E-08,  avg # of iterations =  2.0

     negative rho (up, down):  1.380E-03 0.000E+00

     total cpu time spent up to now is        4.5 secs

     total energy              =     -30.58793189 Ry
     estimated scf accuracy    <       0.00000239 Ry

     iteration # 21     ecut=    30.00 Ry     beta= 0.70
     Davidson diagonalization with overlap
     ethr =  2.98E-08,  avg # of iterations =  3.0

     negative rho (up, down):  1.413E-03 0.000E+00

     total cpu time spent up to now is        4.7 secs

     total energy              =     -30.58793090 Ry
     estimated scf accuracy    <       0.00000459 Ry

     iteration # 22     ecut=    30.00 Ry     beta= 0.70
     Davidson diagonalization with overlap
     ethr =  2.98E-08,  avg # of iterations =  2.0

     negative rho (up, down):  1.414E-03 0.000E+00

     total cpu time spent up to now is        4.9 secs

     total energy              =     -30.58793215 Ry
     estimated scf accuracy    <       0.00000053 Ry

     iteration # 23     ecut=    30.00 Ry     beta= 0.70
     Davidson diagonalization with overlap
     ethr =  6.61E-09,  avg # of iterations =  2.0

     negative rho (up, down):  1.418E-03 0.000E+00

     total cpu time spent up to now is        5.1 secs

     total energy              =     -30.58793212 Ry
     estimated scf accuracy    <       0.00000067 Ry

     iteration # 24     ecut=    30.00 Ry     beta= 0.70
     Davidson diagonalization with overlap
     ethr =  6.61E-09,  avg # of iterations =  1.0

     negative rho (up, down):  1.415E-03 0.000E+00

     total cpu time spent up to now is        5.3 secs

     total energy              =     -30.58793208 Ry
     estimated scf accuracy    <       0.00000018 Ry

     iteration # 25     ecut=    30.00 Ry     beta= 0.70
     Davidson diagonalization with overlap
     ethr =  2.24E-09,  avg # of iterations =  3.0

     negative rho (up, down):  1.414E-03 0.000E+00

     total cpu time spent up to now is        5.5 secs

     End of self-consistent calculation

          k = 0.0000 0.0000 0.0000 (  2401 PWs)   bands (ev):

   -17.2862  -8.5695  -3.4822  -2.0108  -1.5484   1.9817   2.2000

     highest occupied, lowest unoccupied level (ev):    -2.0108   -1.5484

!    total energy              =     -30.58793212 Ry
     total all-electron energy =      -111.886733 Ry
     estimated scf accuracy    <          2.5E-09 Ry

     The total energy is the sum of the following terms:
     one-electron contribution =     -36.19397127 Ry
     hartree contribution      =      20.56027068 Ry
     xc contribution           =      -7.40239280 Ry
     ewald contribution        =       0.75868862 Ry
     one-center paw contrib.   =      -8.31052735 Ry

     charge density inside the Wigner-Seitz cell:    8.00000000

     reference position (x0):         0.00000000    0.00000000    0.28571429 bohr

     Dipole moments (with respect to x0):
     Elect  -0.0000   0.0000   0.8136 au (Ha),  -0.0001   0.0001   2.0681 Debye
     Ionic   0.0000   0.0000   0.0000 au (Ha),   0.0000   0.0000   0.0000 Debye
     Total  -0.0000   0.0000   0.8136 au (Ha),  -0.0001   0.0001   2.0681 Debye

     Electrons quadrupole moment        -31.23996474 a.u. (Ha)
          Ions quadrupole moment          5.42857143 a.u. (Ha)
         Total quadrupole moment        -25.81139331 a.u. (Ha)

     *********    MAKOV-PAYNE CORRECTION    *********

     Makov-Payne correction with Madelung constant =   2.8373

     Makov-Payne correction     0.23644167 Ry =  3.217 eV (1st order, 1/a0)
                               -0.06096380 Ry = -0.829 eV (2nd order, 1/a0^3)
                                0.17547787 Ry =  2.387 eV (total)

!    Total+Makov-Payne energy  =     -30.41245425 Ry
     Corrected vacuum level    =      -4.28396452 eV

     convergence has been achieved in  25 iterations

     Writing all to output data dir ./pwscf.save/

     init_run     :      0.63s CPU      0.64s WALL (       1 calls)
     electrons    :      4.72s CPU      4.74s WALL (       1 calls)

     Called by init_run:
     wfcinit      :      0.06s CPU      0.07s WALL (       1 calls)
     potinit      :      0.12s CPU      0.13s WALL (       1 calls)
     hinit0       :      0.42s CPU      0.43s WALL (       1 calls)

     Called by electrons:
     c_bands      :      0.64s CPU      0.64s WALL (      25 calls)
     sum_band     :      0.56s CPU      0.56s WALL (      25 calls)
     v_of_rho     :      1.15s CPU      1.16s WALL (      26 calls)
     newd         :      0.31s CPU      0.31s WALL (      26 calls)
     PAW_pot      :      2.00s CPU      2.00s WALL (      26 calls)
     mix_rho      :      0.17s CPU      0.17s WALL (      25 calls)

     Called by c_bands:
     init_us_2    :      0.04s CPU      0.04s WALL (      51 calls)
     init_us_2:cp :      0.04s CPU      0.04s WALL (      51 calls)
     regterg      :      0.58s CPU      0.58s WALL (      25 calls)

     Called by *egterg:
     rdiaghg      :      0.00s CPU      0.00s WALL (      86 calls)
     h_psi        :      0.52s CPU      0.52s WALL (      87 calls)
     s_psi        :      0.01s CPU      0.01s WALL (      87 calls)
     g_psi        :      0.01s CPU      0.01s WALL (      61 calls)

     Called by h_psi:
     h_psi:calbec :      0.03s CPU      0.03s WALL (      87 calls)
     vloc_psi     :      0.48s CPU      0.48s WALL (      87 calls)
     add_vuspsi   :      0.01s CPU      0.01s WALL (      87 calls)

     General routines
     calbec       :      0.04s CPU      0.04s WALL (     112 calls)
     fft          :      0.29s CPU      0.29s WALL (     234 calls)
     ffts         :      0.03s CPU      0.03s WALL (      25 calls)
     fftw         :      0.41s CPU      0.41s WALL (     616 calls)

     Parallel routines

     PWSCF        :      5.44s CPU      5.47s WALL


   This run was terminated on:  10:33:21   9Jun2023            

=------------------------------------------------------------------------------=
   JOB DONE.
=------------------------------------------------------------------------------=
