
     Program PWSCF v.6.1 (svn rev. 13369) starts on  2Mar2017 at 23:50:58 

     This program is part of the open-source Quantum ESPRESSO suite
     for quantum simulation of materials; please cite
         "P. Giannozzi et al., J. Phys.:Condens. Matter 21 395502 (2009);
          URL http://www.quantum-espresso.org", 
     in publications or presentations arising from this work. More details at
     http://www.quantum-espresso.org/quote

     Serial multi-threaded version, running on    4 processor cores
     Reading input from lsda-2.in

     Current dimensions of program PWSCF are:
     Max number of different atomic species (ntypx) = 10
     Max number of k-points (npk) =  40000
     Max angular momentum in pseudopotentials (lmaxx) =  3

     Atomic positions and unit cell read from directory:
     /home/fs395/scratch/QE/espresso/test-suite/..//tempdir/pwscf.save/

               file Ni.pz-nd-rrkjus.UPF: wavefunction(s)  4S renormalized

     G-vector sticks info
     --------------------
     sticks:   dense  smooth     PW     G-vecs:    dense   smooth      PW
     Sum         421     139     55                 5601     1067     283



     bravais-lattice index     =            2
     lattice parameter (alat)  =       6.4800  a.u.
     unit-cell volume          =      68.0244 (a.u.)^3
     number of atoms/cell      =            1
     number of atomic types    =            1
     number of electrons       =        10.00
     number of Kohn-Sham states=            8
     kinetic-energy cutoff     =      24.0000  Ry
     charge density cutoff     =     288.0000  Ry
     Exchange-correlation      =  SLA  PZ   NOGX NOGC ( 1  1  0  0 0 0)

     celldm(1)=   6.480000  celldm(2)=   0.000000  celldm(3)=   0.000000
     celldm(4)=   0.000000  celldm(5)=   0.000000  celldm(6)=   0.000000

     crystal axes: (cart. coord. in units of alat)
               a(1) = (  -0.500000   0.000000   0.500000 )  
               a(2) = (   0.000000   0.500000   0.500000 )  
               a(3) = (  -0.500000   0.500000   0.000000 )  

     reciprocal axes: (cart. coord. in units 2 pi/alat)
               b(1) = ( -1.000000 -1.000000  1.000000 )  
               b(2) = (  1.000000  1.000000  1.000000 )  
               b(3) = ( -1.000000  1.000000 -1.000000 )  


     PseudoPot. # 1 for Ni read from file:
     /home/fs395/scratch/QE/espresso/test-suite/..//pseudo/Ni.pz-nd-rrkjus.UPF
     MD5 check sum: bf64e4f20c74808dea28321d1ca350c3
     Pseudo is Ultrasoft + core correction, Zval = 10.0
     Generated by new atomic code, or converted to UPF format
     Using radial grid of 1203 points,  6 beta functions with: 
                l(1) =   0
                l(2) =   0
                l(3) =   1
                l(4) =   1
                l(5) =   2
                l(6) =   2
     Q(r) pseudized with 0 coefficients 


     atomic species   valence    mass     pseudopotential
        Ni            10.00    58.69000     Ni( 1.00)

     Starting magnetic structure 
     atomic species   magnetization
        Ni           0.700

     48 Sym. Ops., with inversion, found



   Cartesian axes

     site n.     atom                  positions (alat units)
         1           Ni  tau(   1) = (   0.0000000   0.0000000   0.0000000  )

     number of k points=    60  Marzari-Vanderbilt smearing, width (Ry)=  0.0200
                       cart. coord. in units 2pi/alat
        k(    1) = (  -0.0625000   0.0625000   0.0625000), wk =   0.0039062
        k(    2) = (  -0.1875000   0.1875000  -0.0625000), wk =   0.0117188
        k(    3) = (  -0.3125000   0.3125000  -0.1875000), wk =   0.0117188
        k(    4) = (  -0.4375000   0.4375000  -0.3125000), wk =   0.0117188
        k(    5) = (   0.4375000  -0.4375000   0.5625000), wk =   0.0117188
        k(    6) = (   0.3125000  -0.3125000   0.4375000), wk =   0.0117188
        k(    7) = (   0.1875000  -0.1875000   0.3125000), wk =   0.0117188
        k(    8) = (   0.0625000  -0.0625000   0.1875000), wk =   0.0117188
        k(    9) = (  -0.0625000   0.3125000   0.0625000), wk =   0.0117188
        k(   10) = (  -0.1875000   0.4375000  -0.0625000), wk =   0.0234375
        k(   11) = (  -0.3125000   0.5625000  -0.1875000), wk =   0.0234375
        k(   12) = (   0.5625000  -0.3125000   0.6875000), wk =   0.0234375
        k(   13) = (   0.4375000  -0.1875000   0.5625000), wk =   0.0234375
        k(   14) = (   0.3125000  -0.0625000   0.4375000), wk =   0.0234375
        k(   15) = (   0.1875000   0.0625000   0.3125000), wk =   0.0234375
        k(   16) = (  -0.0625000   0.5625000   0.0625000), wk =   0.0117188
        k(   17) = (  -0.1875000   0.6875000  -0.0625000), wk =   0.0234375
        k(   18) = (   0.6875000  -0.1875000   0.8125000), wk =   0.0234375
        k(   19) = (   0.5625000  -0.0625000   0.6875000), wk =   0.0234375
        k(   20) = (   0.4375000   0.0625000   0.5625000), wk =   0.0234375
        k(   21) = (   0.3125000   0.1875000   0.4375000), wk =   0.0234375
        k(   22) = (  -0.0625000   0.8125000   0.0625000), wk =   0.0117188
        k(   23) = (   0.8125000  -0.0625000   0.9375000), wk =   0.0234375
        k(   24) = (   0.6875000   0.0625000   0.8125000), wk =   0.0234375
        k(   25) = (   0.5625000   0.1875000   0.6875000), wk =   0.0234375
        k(   26) = (   0.4375000   0.3125000   0.5625000), wk =   0.0234375
        k(   27) = (  -0.0625000  -0.9375000   0.0625000), wk =   0.0117188
        k(   28) = (  -0.1875000  -0.8125000  -0.0625000), wk =   0.0234375
        k(   29) = (  -0.3125000  -0.6875000  -0.1875000), wk =   0.0234375
        k(   30) = (  -0.0625000  -0.6875000   0.0625000), wk =   0.0117188
        k(   31) = (  -0.1875000  -0.5625000  -0.0625000), wk =   0.0234375
        k(   32) = (  -0.0625000  -0.4375000   0.0625000), wk =   0.0117188
        k(   33) = (  -0.1875000   0.1875000   0.1875000), wk =   0.0039062
        k(   34) = (  -0.3125000   0.3125000   0.0625000), wk =   0.0117188
        k(   35) = (  -0.4375000   0.4375000  -0.0625000), wk =   0.0117188
        k(   36) = (   0.4375000  -0.4375000   0.8125000), wk =   0.0117188
        k(   37) = (   0.3125000  -0.3125000   0.6875000), wk =   0.0117188
        k(   38) = (   0.1875000  -0.1875000   0.5625000), wk =   0.0117188
        k(   39) = (  -0.1875000   0.4375000   0.1875000), wk =   0.0117188
        k(   40) = (  -0.3125000   0.5625000   0.0625000), wk =   0.0234375
        k(   41) = (   0.5625000  -0.3125000   0.9375000), wk =   0.0234375
        k(   42) = (   0.4375000  -0.1875000   0.8125000), wk =   0.0234375
        k(   43) = (   0.3125000  -0.0625000   0.6875000), wk =   0.0234375
        k(   44) = (  -0.1875000   0.6875000   0.1875000), wk =   0.0117188
        k(   45) = (   0.6875000  -0.1875000   1.0625000), wk =   0.0234375
        k(   46) = (   0.5625000  -0.0625000   0.9375000), wk =   0.0234375
        k(   47) = (   0.4375000   0.0625000   0.8125000), wk =   0.0234375
        k(   48) = (  -0.1875000  -1.0625000   0.1875000), wk =   0.0117188
        k(   49) = (  -0.3125000  -0.9375000   0.0625000), wk =   0.0234375
        k(   50) = (  -0.1875000  -0.8125000   0.1875000), wk =   0.0117188
        k(   51) = (  -0.3125000   0.3125000   0.3125000), wk =   0.0039062
        k(   52) = (  -0.4375000   0.4375000   0.1875000), wk =   0.0117188
        k(   53) = (   0.4375000  -0.4375000   1.0625000), wk =   0.0117188
        k(   54) = (   0.3125000  -0.3125000   0.9375000), wk =   0.0117188
        k(   55) = (  -0.3125000   0.5625000   0.3125000), wk =   0.0117188
        k(   56) = (   0.5625000  -0.3125000   1.1875000), wk =   0.0234375
        k(   57) = (   0.4375000  -0.1875000   1.0625000), wk =   0.0234375
        k(   58) = (  -0.3125000  -1.1875000   0.3125000), wk =   0.0117188
        k(   59) = (  -0.4375000   0.4375000   0.4375000), wk =   0.0039062
        k(   60) = (   0.4375000  -0.4375000   1.3125000), wk =   0.0117188

     Dense  grid:     5601 G-vectors     FFT dimensions: (  25,  25,  25)

     Smooth grid:     1067 G-vectors     FFT dimensions: (  15,  15,  15)

     Estimated max dynamical RAM per process >       2.66MB
     Generating pointlists ...
     new r_m :   0.2917 (alat units)  1.8901 (a.u.) for type    1

     Check: negative/imaginary core charge=   -0.000015    0.000000

     The potential is recalculated from file :
     /home/fs395/scratch/QE/espresso/test-suite/..//tempdir/pwscf.save/charge-density.dat

     Starting wfc are    6 randomized atomic wfcs +    2 random wfc

     Band Structure Calculation
     Davidson diagonalization with overlap

     ethr =  1.00E-08,  avg # of iterations = 12.5

     total cpu time spent up to now is        2.1 secs

     End of band structure calculation

     Number of k-points >= 100: set verbosity='high' to print the bands.

     the Fermi energy is    15.3379 ev

     Writing output data file pwscf.save

     init_run     :      0.64s CPU      0.58s WALL (       1 calls)
     electrons    :      5.42s CPU      1.38s WALL (       1 calls)

     Called by init_run:
     wfcinit      :      0.00s CPU      0.00s WALL (       1 calls)
     potinit      :      0.02s CPU      0.01s WALL (       1 calls)

     Called by electrons:
     c_bands      :      5.41s CPU      1.38s WALL (       1 calls)
     v_of_rho     :      0.01s CPU      0.00s WALL (       1 calls)
     newd         :      0.06s CPU      0.02s WALL (       1 calls)

     Called by c_bands:
     init_us_2    :      0.03s CPU      0.01s WALL (     120 calls)
     cegterg      :      4.70s CPU      1.18s WALL (     124 calls)

     Called by sum_band:

     Called by *egterg:
     h_psi        :      3.11s CPU      0.78s WALL (    1745 calls)
     s_psi        :      0.19s CPU      0.04s WALL (    1745 calls)
     g_psi        :      0.02s CPU      0.01s WALL (    1501 calls)
     cdiaghg      :      1.00s CPU      0.25s WALL (    1621 calls)

     Called by h_psi:
     h_psi:pot    :      3.09s CPU      0.78s WALL (    1745 calls)
     h_psi:calbec :      0.18s CPU      0.04s WALL (    1745 calls)
     vloc_psi     :      2.71s CPU      0.68s WALL (    1745 calls)
     add_vuspsi   :      0.19s CPU      0.05s WALL (    1745 calls)

     General routines
     calbec       :      0.17s CPU      0.04s WALL (    1745 calls)
     fft          :      0.01s CPU      0.00s WALL (       9 calls)
     ffts         :      0.00s CPU      0.00s WALL (       2 calls)
     fftw         :      2.15s CPU      0.49s WALL (   16694 calls)
     interpolate  :      0.00s CPU      0.00s WALL (       2 calls)
     davcio       :      0.02s CPU      0.00s WALL (     120 calls)


     PWSCF        :     6.22s CPU         3.48s WALL


   This run was terminated on:  23:51: 2   2Mar2017            

=------------------------------------------------------------------------------=
   JOB DONE.
=------------------------------------------------------------------------------=
