 BEGIN_INFO
   #
   # this is a Band-XCRYSDEN-Structure-File
   # aimed at Visualization of Fermi Surface
   #
   # Case:   ni_fs.bxsf
   #
 Fermi Energy:         15.0928
 END_INFO
 BEGIN_BLOCK_BANDGRID_3D
 band_energies
 BANDGRID_3D_BANDS
    4
   17   17   17
  0.000000  0.000000  0.000000
 -1.000000 -1.000000  1.000000
  1.000000  1.000000  1.000000
 -1.000000  1.000000 -1.000000
BAND:   3
   13.0170   13.0562   13.1538   13.2459   13.2541   13.1796
   13.0825   13.0085   12.9814   13.0085   13.0825   13.1796
   13.2541   13.2459   13.1538   13.0562   13.0170   13.0562
   13.0823   13.1699   13.2676   13.2741   13.1746   13.0616
   13.1020   13.0516   13.0527   13.1072   13.1064   13.2137
   13.2666   13.2279   13.1128   13.0562   13.1538   13.1699
   13.2749   13.3854   13.3310   13.1507   12.9828   13.0266
   13.2560   13.2294   13.1831   12.9194   13.0800   13.2155
   13.2708   13.2279   13.1538   13.2459   13.2676   13.3854
   13.5835   13.4498   13.2052   12.9913   12.8889   12.9788
   13.0691   12.9087   12.6397   12.8463   13.0626   13.2155
   13.2666   13.2459   13.2541   13.2741   13.3310   13.4498
   13.5633   13.4582   13.2778   13.1182   13.0154   12.9301
   12.7512   12.4520   12.5540   12.8463   13.0800   13.2137
   13.2541   13.1796   13.1746   13.1507   13.2052   13.4582
   13.9163   13.9710   13.7700   13.5181   13.2320   12.9050
   12.5781   12.4520   12.6397   12.9194   13.1064   13.1796
   13.0825   13.0616   12.9828   12.9913   13.2778   13.9710
   14.8631   14.6452   14.2669   13.8174   13.3324   12.9050
   12.7512   12.9087   13.1831   13.1072   13.0825   13.0085
   13.1020   13.0266   12.8889   13.1182   13.7700   14.6452
   15.0775   14.9791   14.4509   13.8174   13.2320   12.9301
   13.0691   13.2294   13.0527   13.0085   12.9814   13.0516
   13.2560   12.9788   13.0154   13.5181   14.2669   14.9791
   15.1098   14.9791   14.2669   13.5181   13.0154   12.9788
   13.2560   13.0516   12.9814   13.0085   13.0527   13.2294
   13.0691   12.9301   13.2320   13.8174   14.4509   14.9791
   15.0775   14.6452   13.7700   13.1182   12.8889   13.0266
   13.1020   13.0085   13.0825   13.1072   13.1831   12.9087
   12.7512   12.9050   13.3324   13.8174   14.2669   14.6452
   14.8631   13.9710   13.2778   12.9913   12.9828   13.0616
   13.0825   13.1796   13.1064   12.9194   12.6397   12.4520
   12.5781   12.9050   13.2320   13.5181   13.7700   13.9710
   13.9163   13.4582   13.2052   13.1507   13.1746   13.1796
   13.2541   13.2137   13.0800   12.8463   12.5540   12.4520
   12.7512   12.9301   13.0154   13.1182   13.2778   13.4582
   13.5633   13.4498   13.3310   13.2741   13.2541   13.2459
   13.2666   13.2155   13.0626   12.8463   12.6397   12.9087
   13.0691   12.9788   12.8889   12.9913   13.2052   13.4498
   13.5835   13.3854   13.2676   13.2459   13.1538   13.2279
   13.2708   13.2155   13.0800   12.9194   13.1831   13.2294
   13.2560   13.0266   12.9828   13.1507   13.3310   13.3854
   13.2749   13.1699   13.1538   13.0562   13.1128   13.2279
   13.2666   13.2137   13.1064   13.1072   13.0527   13.0516
   13.1020   13.0616   13.1746   13.2741   13.2676   13.1699
   13.0823   13.0562   13.0170   13.0562   13.1538   13.2459
   13.2541   13.1796   13.0825   13.0085   12.9814   13.0085
   13.0825   13.1796   13.2541   13.2459   13.1538   13.0562
   13.0170   13.0562   13.0823   13.1699   13.2676   13.2741
   13.1746   13.0616   13.1020   13.0516   13.0527   13.1072
   13.1064   13.2137   13.2666   13.2279   13.1128   13.0562
   13.0823   13.0562   13.1128   13.2279   13.2666   13.2137
   13.1064   13.1072   13.0527   13.0516   13.1020   13.0616
   13.1746   13.2741   13.2676   13.1699   13.0823   13.1699
   13.1128   13.1699   13.2704   13.2991   13.2062   13.0527
   12.9666   13.1965   13.1735   13.1965   12.9666   13.0527
   13.2062   13.2991   13.2704   13.1699   13.2676   13.2279
   13.2704   13.3854   13.3884   13.2172   13.0020   12.8427
   12.9288   13.1592   13.1077   12.7856   12.8308   13.0327
   13.2120   13.2991   13.2676   13.2741   13.2666   13.2991
   13.3884   13.4498   13.3099   13.0977   12.9075   12.8253
   12.8700   12.8416   12.5972   12.5314   12.7882   13.0327
   13.2062   13.2741   13.1746   13.2137   13.2062   13.2172
   13.3099   13.4582   13.4613   13.3284   13.1655   13.0077
   12.8221   12.5498   12.2856   12.5314   12.8308   13.0527
   13.1746   13.0616   13.1064   13.0527   13.0020   13.0977
   13.4613   13.9710   14.0438   13.8409   13.5460   13.1886
   12.8049   12.5498   12.5972   12.7856   12.9666   13.0616
   13.1020   13.1072   12.9666   12.8427   12.9075   13.3284
   14.0438   14.6452   14.5599   14.2064   13.7130   13.1886
   12.8221   12.8416   13.1077   13.1965   13.1020   13.0516
   13.0527   13.1965   12.9288   12.8253   13.1655   13.8409
   14.5599   14.9791   14.7656   14.2064   13.5460   13.0077
   12.8700   13.1592   13.1735   13.0516   13.0527   13.0516
   13.1735   13.1592   12.8700   13.0077   13.5460   14.2064
   14.7656   14.9791   14.5599   13.8409   13.1655   12.8253
   12.9288   13.1965   13.0527   13.1072   13.1020   13.1965
   13.1077   12.8416   12.8221   13.1886   13.7130   14.2064
   14.5599   14.6452   14.0438   13.3284   12.9075   12.8427
   12.9666   13.1072   13.1064   13.0616   12.9666   12.7856
   12.5972   12.5498   12.8049   13.1886   13.5460   13.8409
   14.0438   13.9710   13.4613   13.0977   13.0020   13.0527
   13.1064   13.2137   13.1746   13.0527   12.8308   12.5314
   12.2856   12.5498   12.8221   13.0077   13.1655   13.3284
   13.4613   13.4582   13.3099   13.2172   13.2062   13.2137
   13.2666   13.2741   13.2062   13.0327   12.7882   12.5314
   12.5972   12.8416   12.8700   12.8253   12.9075   13.0977
   13.3099   13.4498   13.3884   13.2991   13.2666   13.2279
   13.2676   13.2991   13.2120   13.0327   12.8308   12.7856
   13.1077   13.1592   12.9288   12.8427   13.0020   13.2172
   13.3884   13.3854   13.2704   13.2279   13.1128   13.1699
   13.2704   13.2991   13.2062   13.0527   12.9666   13.1965
   13.1735   13.1965   12.9666   13.0527   13.2062   13.2991
   13.2704   13.1699   13.1128   13.0562   13.0823   13.1699
   13.2676   13.2741   13.1746   13.0616   13.1020   13.0516
   13.0527   13.1072   13.1064   13.2137   13.2666   13.2279
   13.1128   13.0562   13.1538   13.1699   13.2749   13.3854
   13.3310   13.1507   12.9828   13.0266   13.2560   13.2294
   13.1831   12.9194   13.0800   13.2155   13.2708   13.2279
   13.1538   13.1699   13.1128   13.1699   13.2704   13.2991
   13.2062   13.0527   12.9666   13.1965   13.1735   13.1965
   12.9666   13.0527   13.2062   13.2991   13.2704   13.1699
   13.2749   13.1699   13.1538   13.2279   13.2708   13.2155
   13.0800   12.9194   13.1831   13.2294   13.2560   13.0266
   12.9828   13.1507   13.3310   13.3854   13.2749   13.3854
   13.2704   13.2279   13.2676   13.2991   13.2120   13.0327
   12.8308   12.7856   13.1077   13.1592   12.9288   12.8427
   13.0020   13.2172   13.3884   13.3854   13.3310   13.2991
   13.2708   13.2991   13.3310   13.2172   13.0046   12.7669
   12.6075   12.7314   12.8609   12.7314   12.6075   12.7669
   13.0046   13.2172   13.3310   13.1507   13.2062   13.2155
   13.2120   13.2172   13.2052   13.0977   12.9123   12.7261
   12.6388   12.6463   12.5374   12.3264   12.4893   12.7669
   13.0020   13.1507   12.9828   13.0527   13.0800   13.0327
   13.0046   13.0977   13.2778   13.3284   13.2135   13.0342
   12.8291   12.5734   12.2770   12.3264   12.6075   12.8427
   12.9828   13.0266   12.9666   12.9194   12.8308   12.7669
   12.9123   13.3284   13.7700   13.8409   13.6471   13.3285
   12.9330   12.5734   12.5374   12.7314   12.9288   13.0266
   13.2560   13.1965   13.1831   12.7856   12.6075   12.7261
   13.2135   13.8409   14.2669   14.2064   13.8421   13.3285
   12.8291   12.6463   12.8609   13.1592   13.2560   13.2294
   13.1735   13.2294   13.1077   12.7314   12.6388   13.0342
   13.6471   14.2064   14.4509   14.2064   13.6471   13.0342
   12.6388   12.7314   13.1077   13.2294   13.1831   13.1965
   13.2560   13.1592   12.8609   12.6463   12.8291   13.3285
   13.8421   14.2064   14.2669   13.8409   13.2135   12.7261
   12.6075   12.7856   13.1831   12.9194   12.9666   13.0266
   12.9288   12.7314   12.5374   12.5734   12.9330   13.3285
   13.6471   13.8409   13.7700   13.3284   12.9123   12.7669
   12.8308   12.9194   13.0800   13.0527   12.9828   12.8427
   12.6075   12.3264   12.2770   12.5734   12.8291   13.0342
   13.2135   13.3284   13.2778   13.0977   13.0046   13.0327
   13.0800   13.2155   13.2062   13.1507   13.0020   12.7669
   12.4893   12.3264   12.5374   12.6463   12.6388   12.7261
   12.9123   13.0977   13.2052   13.2172   13.2120   13.2155
   13.2708   13.2991   13.3310   13.2172   13.0046   12.7669
   12.6075   12.7314   12.8609   12.7314   12.6075   12.7669
   13.0046   13.2172   13.3310   13.2991   13.2708   13.2279
   13.2704   13.3854   13.3884   13.2172   13.0020   12.8427
   12.9288   13.1592   13.1077   12.7856   12.8308   13.0327
   13.2120   13.2991   13.2676   13.2279   13.1538   13.1699
   13.2749   13.3854   13.3310   13.1507   12.9828   13.0266
   13.2560   13.2294   13.1831   12.9194   13.0800   13.2155
   13.2708   13.2279   13.1538   13.2459   13.2676   13.3854
   13.5835   13.4498   13.2052   12.9913   12.8889   12.9788
   13.0691   12.9087   12.6397   12.8463   13.0626   13.2155
   13.2666   13.2459   13.2676   13.2279   13.2704   13.3854
   13.3884   13.2172   13.0020   12.8427   12.9288   13.1592
   13.1077   12.7856   12.8308   13.0327   13.2120   13.2991
   13.2676   13.3854   13.2704   13.2279   13.2676   13.2991
   13.2120   13.0327   12.8308   12.7856   13.1077   13.1592
   12.9288   12.8427   13.0020   13.2172   13.3884   13.3854
   13.5835   13.3854   13.2676   13.2459   13.2666   13.2155
   13.0626   12.8463   12.6397   12.9087   13.0691   12.9788
   12.8889   12.9913   13.2052   13.4498   13.5835   13.4498
   13.3884   13.2991   13.2666   13.2741   13.2062   13.0327
   12.7882   12.5314   12.5972   12.8416   12.8700   12.8253
   12.9075   13.0977   13.3099   13.4498   13.2052   13.2172
   13.2120   13.2155   13.2062   13.1507   13.0020   12.7669
   12.4893   12.3264   12.5374   12.6463   12.6388   12.7261
   12.9123   13.0977   13.2052   12.9913   13.0020   13.0327
   13.0626   13.0327   13.0020   12.9913   12.9075   12.7261
   12.5162   12.3996   12.4088   12.3996   12.5162   12.7261
   12.9075   12.9913   12.8889   12.8427   12.8308   12.8463
   12.7882   12.7669   12.9075   13.1182   13.1655   13.0342
   12.8200   12.5594   12.2554   12.3996   12.6388   12.8253
   12.8889   12.9788   12.9288   12.7856   12.6397   12.5314
   12.4893   12.7261   13.1655   13.5181   13.5460   13.3285
   12.9722   12.5594   12.4088   12.6463   12.8700   12.9788
   13.0691   13.1592   13.1077   12.9087   12.5972   12.3264
   12.5162   13.0342   13.5460   13.8174   13.7130   13.3285
   12.8200   12.3996   12.5374   12.8416   13.0691   12.9087
   13.1077   13.1592   13.0691   12.8416   12.5374   12.3996
   12.8200   13.3285   13.7130   13.8174   13.5460   13.0342
   12.5162   12.3264   12.5972   12.9087   12.6397   12.7856
   12.9288   12.9788   12.8700   12.6463   12.4088   12.5594
   12.9722   13.3285   13.5460   13.5181   13.1655   12.7261
   12.4893   12.5314   12.6397   12.8463   12.8308   12.8427
   12.8889   12.8253   12.6388   12.3996   12.2554   12.5594
   12.8200   13.0342   13.1655   13.1182   12.9075   12.7669
   12.7882   12.8463   13.0626   13.0327   13.0020   12.9913
   12.9075   12.7261   12.5162   12.3996   12.4088   12.3996
   12.5162   12.7261   12.9075   12.9913   13.0020   13.0327
   13.0626   13.2155   13.2120   13.2172   13.2052   13.0977
   12.9123   12.7261   12.6388   12.6463   12.5374   12.3264
   12.4893   12.7669   13.0020   13.1507   13.2062   13.2155
   13.2666   13.2991   13.3884   13.4498   13.3099   13.0977
   12.9075   12.8253   12.8700   12.8416   12.5972   12.5314
   12.7882   13.0327   13.2062   13.2741   13.2666   13.2459
   13.2676   13.3854   13.5835   13.4498   13.2052   12.9913
   12.8889   12.9788   13.0691   12.9087   12.6397   12.8463
   13.0626   13.2155   13.2666   13.2459   13.2541   13.2741
   13.3310   13.4498   13.5633   13.4582   13.2778   13.1182
   13.0154   12.9301   12.7512   12.4520   12.5540   12.8463
   13.0800   13.2137   13.2541   13.2741   13.2666   13.2991
   13.3884   13.4498   13.3099   13.0977   12.9075   12.8253
   12.8700   12.8416   12.5972   12.5314   12.7882   13.0327
   13.2062   13.2741   13.3310   13.2991   13.2708   13.2991
   13.3310   13.2172   13.0046   12.7669   12.6075   12.7314
   12.8609   12.7314   12.6075   12.7669   13.0046   13.2172
   13.3310   13.4498   13.3884   13.2991   13.2666   13.2741
   13.2062   13.0327   12.7882   12.5314   12.5972   12.8416
   12.8700   12.8253   12.9075   13.0977   13.3099   13.4498
   13.5633   13.4498   13.3310   13.2741   13.2541   13.2137
   13.0800   12.8463   12.5540   12.4520   12.7512   12.9301
   13.0154   13.1182   13.2778   13.4582   13.5633   13.4582
   13.3099   13.2172   13.2062   13.2137   13.1746   13.0527
   12.8308   12.5314   12.2856   12.5498   12.8221   13.0077
   13.1655   13.3284   13.4613   13.4582   13.2778   13.0977
   13.0046   13.0327   13.0800   13.0527   12.9828   12.8427
   12.6075   12.3264   12.2770   12.5734   12.8291   13.0342
   13.2135   13.3284   13.2778   13.1182   12.9075   12.7669
   12.7882   12.8463   12.8308   12.8427   12.8889   12.8253
   12.6388   12.3996   12.2554   12.5594   12.8200   13.0342
   13.1655   13.1182   13.0154   12.8253   12.6075   12.5314
   12.5540   12.5314   12.6075   12.8253   13.0154   13.0077
   12.8291   12.5594   12.2447   12.5594   12.8291   13.0077
   13.0154   12.9301   12.8700   12.7314   12.5972   12.4520
   12.2856   12.3264   12.6388   13.0077   13.2320   13.1886
   12.9330   12.5594   12.2554   12.5734   12.8221   12.9301
   12.7512   12.8416   12.8609   12.8416   12.7512   12.5498
   12.2770   12.3996   12.8291   13.1886   13.3324   13.1886
   12.8291   12.3996   12.2770   12.5498   12.7512   12.4520
   12.5972   12.7314   12.8700   12.9301   12.8221   12.5734
   12.2554   12.5594   12.9330   13.1886   13.2320   13.0077
   12.6388   12.3264   12.2856   12.4520   12.5540   12.5314
   12.6075   12.8253   13.0154   13.0077   12.8291   12.5594
   12.2447   12.5594   12.8291   13.0077   13.0154   12.8253
   12.6075   12.5314   12.5540   12.8463   12.7882   12.7669
   12.9075   13.1182   13.1655   13.0342   12.8200   12.5594
   12.2554   12.3996   12.6388   12.8253   12.8889   12.8427
   12.8308   12.8463   13.0800   13.0327   13.0046   13.0977
   13.2778   13.3284   13.2135   13.0342   12.8291   12.5734
   12.2770   12.3264   12.6075   12.8427   12.9828   13.0527
   13.0800   13.2137   13.2062   13.2172   13.3099   13.4582
   13.4613   13.3284   13.1655   13.0077   12.8221   12.5498
   12.2856   12.5314   12.8308   13.0527   13.1746   13.2137
   13.2541   13.2741   13.3310   13.4498   13.5633   13.4582
   13.2778   13.1182   13.0154   12.9301   12.7512   12.4520
   12.5540   12.8463   13.0800   13.2137   13.2541   13.1796
   13.1746   13.1507   13.2052   13.4582   13.9163   13.9710
   13.7700   13.5181   13.2320   12.9050   12.5781   12.4520
   12.6397   12.9194   13.1064   13.1796   13.1746   13.2137
   13.2062   13.2172   13.3099   13.4582   13.4613   13.3284
   13.1655   13.0077   12.8221   12.5498   12.2856   12.5314
   12.8308   13.0527   13.1746   13.1507   13.2062   13.2155
   13.2120   13.2172   13.2052   13.0977   12.9123   12.7261
   12.6388   12.6463   12.5374   12.3264   12.4893   12.7669
   13.0020   13.1507   13.2052   13.2172   13.2120   13.2155
   13.2062   13.1507   13.0020   12.7669   12.4893   12.3264
   12.5374   12.6463   12.6388   12.7261   12.9123   13.0977
   13.2052   13.4582   13.3099   13.2172   13.2062   13.2137
   13.1746   13.0527   12.8308   12.5314   12.2856   12.5498
   12.8221   13.0077   13.1655   13.3284   13.4613   13.4582
   13.9163   13.4582   13.2052   13.1507   13.1746   13.1796
   13.1064   12.9194   12.6397   12.4520   12.5781   12.9050
   13.2320   13.5181   13.7700   13.9710   13.9163   13.9710
   13.4613   13.0977   13.0020   13.0527   13.1064   13.0616
   12.9666   12.7856   12.5972   12.5498   12.8049   13.1886
   13.5460   13.8409   14.0438   13.9710   13.7700   13.3284
   12.9123   12.7669   12.8308   12.9194   12.9666   13.0266
   12.9288   12.7314   12.5374   12.5734   12.9330   13.3285
   13.6471   13.8409   13.7700   13.5181   13.1655   12.7261
   12.4893   12.5314   12.6397   12.7856   12.9288   12.9788
   12.8700   12.6463   12.4088   12.5594   12.9722   13.3285
   13.5460   13.5181   13.2320   13.0077   12.6388   12.3264
   12.2856   12.4520   12.5972   12.7314   12.8700   12.9301
   12.8221   12.5734   12.2554   12.5594   12.9330   13.1886
   13.2320   12.9050   12.8221   12.6463   12.5374   12.5498
   12.5781   12.5498   12.5374   12.6463   12.8221   12.9050
   12.8049   12.5734   12.4088   12.5734   12.8049   12.9050
   12.5781   12.5498   12.5374   12.6463   12.8221   12.9050
   12.8049   12.5734   12.4088   12.5734   12.8049   12.9050
   12.8221   12.6463   12.5374   12.5498   12.5781   12.4520
   12.2856   12.3264   12.6388   13.0077   13.2320   13.1886
   12.9330   12.5594   12.2554   12.5734   12.8221   12.9301
   12.8700   12.7314   12.5972   12.4520   12.6397   12.5314
   12.4893   12.7261   13.1655   13.5181   13.5460   13.3285
   12.9722   12.5594   12.4088   12.6463   12.8700   12.9788
   12.9288   12.7856   12.6397   12.9194   12.8308   12.7669
   12.9123   13.3284   13.7700   13.8409   13.6471   13.3285
   12.9330   12.5734   12.5374   12.7314   12.9288   13.0266
   12.9666   12.9194   13.1064   13.0527   13.0020   13.0977
   13.4613   13.9710   14.0438   13.8409   13.5460   13.1886
   12.8049   12.5498   12.5972   12.7856   12.9666   13.0616
   13.1064   13.1796   13.1746   13.1507   13.2052   13.4582
   13.9163   13.9710   13.7700   13.5181   13.2320   12.9050
   12.5781   12.4520   12.6397   12.9194   13.1064   13.1796
   13.0825   13.0616   12.9828   12.9913   13.2778   13.9710
   14.8631   14.6452   14.2669   13.8174   13.3324   12.9050
   12.7512   12.9087   13.1831   13.1072   13.0825   13.0616
   13.1064   13.0527   13.0020   13.0977   13.4613   13.9710
   14.0438   13.8409   13.5460   13.1886   12.8049   12.5498
   12.5972   12.7856   12.9666   13.0616   12.9828   13.0527
   13.0800   13.0327   13.0046   13.0977   13.2778   13.3284
   13.2135   13.0342   12.8291   12.5734   12.2770   12.3264
   12.6075   12.8427   12.9828   12.9913   13.0020   13.0327
   13.0626   13.0327   13.0020   12.9913   12.9075   12.7261
   12.5162   12.3996   12.4088   12.3996   12.5162   12.7261
   12.9075   12.9913   13.2778   13.0977   13.0046   13.0327
   13.0800   13.0527   12.9828   12.8427   12.6075   12.3264
   12.2770   12.5734   12.8291   13.0342   13.2135   13.3284
   13.2778   13.9710   13.4613   13.0977   13.0020   13.0527
   13.1064   13.0616   12.9666   12.7856   12.5972   12.5498
   12.8049   13.1886   13.5460   13.8409   14.0438   13.9710
   14.8631   13.9710   13.2778   12.9913   12.9828   13.0616
   13.0825   13.1072   13.1831   12.9087   12.7512   12.9050
   13.3324   13.8174   14.2669   14.6452   14.8631   14.6452
   14.0438   13.3284   12.9075   12.8427   12.9666   13.1072
   13.1020   13.1965   13.1077   12.8416   12.8221   13.1886
   13.7130   14.2064   14.5599   14.6452   14.2669   13.8409
   13.2135   12.7261   12.6075   12.7856   13.1831   13.1965
   13.2560   13.1592   12.8609   12.6463   12.8291   13.3285
   13.8421   14.2064   14.2669   13.8174   13.5460   13.0342
   12.5162   12.3264   12.5972   12.9087   13.1077   13.1592
   13.0691   12.8416   12.5374   12.3996   12.8200   13.3285
   13.7130   13.8174   13.3324   13.1886   12.8291   12.3996
   12.2770   12.5498   12.7512   12.8416   12.8609   12.8416
   12.7512   12.5498   12.2770   12.3996   12.8291   13.1886
   13.3324   12.9050   12.8049   12.5734   12.4088   12.5734
   12.8049   12.9050   12.8221   12.6463   12.5374   12.5498
   12.5781   12.5498   12.5374   12.6463   12.8221   12.9050
   12.7512   12.5498   12.2770   12.3996   12.8291   13.1886
   13.3324   13.1886   12.8291   12.3996   12.2770   12.5498
   12.7512   12.8416   12.8609   12.8416   12.7512   12.9087
   12.5972   12.3264   12.5162   13.0342   13.5460   13.8174
   13.7130   13.3285   12.8200   12.3996   12.5374   12.8416
   13.0691   13.1592   13.1077   12.9087   13.1831   12.7856
   12.6075   12.7261   13.2135   13.8409   14.2669   14.2064
   13.8421   13.3285   12.8291   12.6463   12.8609   13.1592
   13.2560   13.1965   13.1831   13.1072   12.9666   12.8427
   12.9075   13.3284   14.0438   14.6452   14.5599   14.2064
   13.7130   13.1886   12.8221   12.8416   13.1077   13.1965
   13.1020   13.1072   13.0825   13.0616   12.9828   12.9913
   13.2778   13.9710   14.8631   14.6452   14.2669   13.8174
   13.3324   12.9050   12.7512   12.9087   13.1831   13.1072
   13.0825   13.0085   13.1020   13.0266   12.8889   13.1182
   13.7700   14.6452   15.0775   14.9791   14.4509   13.8174
   13.2320   12.9301   13.0691   13.2294   13.0527   13.0085
   13.1020   13.1072   12.9666   12.8427   12.9075   13.3284
   14.0438   14.6452   14.5599   14.2064   13.7130   13.1886
   12.8221   12.8416   13.1077   13.1965   13.1020   13.0266
   12.9666   12.9194   12.8308   12.7669   12.9123   13.3284
   13.7700   13.8409   13.6471   13.3285   12.9330   12.5734
   12.5374   12.7314   12.9288   13.0266   12.8889   12.8427
   12.8308   12.8463   12.7882   12.7669   12.9075   13.1182
   13.1655   13.0342   12.8200   12.5594   12.2554   12.3996
   12.6388   12.8253   12.8889   13.1182   12.9075   12.7669
   12.7882   12.8463   12.8308   12.8427   12.8889   12.8253
   12.6388   12.3996   12.2554   12.5594   12.8200   13.0342
   13.1655   13.1182   13.7700   13.3284   12.9123   12.7669
   12.8308   12.9194   12.9666   13.0266   12.9288   12.7314
   12.5374   12.5734   12.9330   13.3285   13.6471   13.8409
   13.7700   14.6452   14.0438   13.3284   12.9075   12.8427
   12.9666   13.1072   13.1020   13.1965   13.1077   12.8416
   12.8221   13.1886   13.7130   14.2064   14.5599   14.6452
   15.0775   14.6452   13.7700   13.1182   12.8889   13.0266
   13.1020   13.0085   13.0527   13.2294   13.0691   12.9301
   13.2320   13.8174   14.4509   14.9791   15.0775   14.9791
   14.5599   13.8409   13.1655   12.8253   12.9288   13.1965
   13.0527   13.0516   13.1735   13.1592   12.8700   13.0077
   13.5460   14.2064   14.7656   14.9791   14.4509   14.2064
   13.6471   13.0342   12.6388   12.7314   13.1077   13.2294
   13.1735   13.2294   13.1077   12.7314   12.6388   13.0342
   13.6471   14.2064   14.4509   13.8174   13.7130   13.3285
   12.8200   12.3996   12.5374   12.8416   13.0691   13.1592
   13.1077   12.9087   12.5972   12.3264   12.5162   13.0342
   13.5460   13.8174   13.2320   13.1886   12.9330   12.5594
   12.2554   12.5734   12.8221   12.9301   12.8700   12.7314
   12.5972   12.4520   12.2856   12.3264   12.6388   13.0077
   13.2320   12.9301   12.8221   12.5734   12.2554   12.5594
   12.9330   13.1886   13.2320   13.0077   12.6388   12.3264
   12.2856   12.4520   12.5972   12.7314   12.8700   12.9301
   13.0691   12.8416   12.5374   12.3996   12.8200   13.3285
   13.7130   13.8174   13.5460   13.0342   12.5162   12.3264
   12.5972   12.9087   13.1077   13.1592   13.0691   13.2294
   13.1077   12.7314   12.6388   13.0342   13.6471   14.2064
   14.4509   14.2064   13.6471   13.0342   12.6388   12.7314
   13.1077   13.2294   13.1735   13.2294   13.0527   13.1965
   12.9288   12.8253   13.1655   13.8409   14.5599   14.9791
   14.7656   14.2064   13.5460   13.0077   12.8700   13.1592
   13.1735   13.0516   13.0527   13.0085   13.1020   13.0266
   12.8889   13.1182   13.7700   14.6452   15.0775   14.9791
   14.4509   13.8174   13.2320   12.9301   13.0691   13.2294
   13.0527   13.0085   12.9814   13.0516   13.2560   12.9788
   13.0154   13.5181   14.2669   14.9791   15.1098   14.9791
   14.2669   13.5181   13.0154   12.9788   13.2560   13.0516
   12.9814   13.0516   13.0527   13.1965   12.9288   12.8253
   13.1655   13.8409   14.5599   14.9791   14.7656   14.2064
   13.5460   13.0077   12.8700   13.1592   13.1735   13.0516
   13.2560   13.1965   13.1831   12.7856   12.6075   12.7261
   13.2135   13.8409   14.2669   14.2064   13.8421   13.3285
   12.8291   12.6463   12.8609   13.1592   13.2560   12.9788
   12.9288   12.7856   12.6397   12.5314   12.4893   12.7261
   13.1655   13.5181   13.5460   13.3285   12.9722   12.5594
   12.4088   12.6463   12.8700   12.9788   13.0154   12.8253
   12.6075   12.5314   12.5540   12.5314   12.6075   12.8253
   13.0154   13.0077   12.8291   12.5594   12.2447   12.5594
   12.8291   13.0077   13.0154   13.5181   13.1655   12.7261
   12.4893   12.5314   12.6397   12.7856   12.9288   12.9788
   12.8700   12.6463   12.4088   12.5594   12.9722   13.3285
   13.5460   13.5181   14.2669   13.8409   13.2135   12.7261
   12.6075   12.7856   13.1831   13.1965   13.2560   13.1592
   12.8609   12.6463   12.8291   13.3285   13.8421   14.2064
   14.2669   14.9791   14.5599   13.8409   13.1655   12.8253
   12.9288   13.1965   13.0527   13.0516   13.1735   13.1592
   12.8700   13.0077   13.5460   14.2064   14.7656   14.9791
   15.1098   14.9791   14.2669   13.5181   13.0154   12.9788
   13.2560   13.0516   12.9814   13.0516   13.2560   12.9788
   13.0154   13.5181   14.2669   14.9791   15.1098   14.9791
   14.7656   14.2064   13.5460   13.0077   12.8700   13.1592
   13.1735   13.0516   13.0527   13.1965   12.9288   12.8253
   13.1655   13.8409   14.5599   14.9791   14.2669   14.2064
   13.8421   13.3285   12.8291   12.6463   12.8609   13.1592
   13.2560   13.1965   13.1831   12.7856   12.6075   12.7261
   13.2135   13.8409   14.2669   13.5181   13.5460   13.3285
   12.9722   12.5594   12.4088   12.6463   12.8700   12.9788
   12.9288   12.7856   12.6397   12.5314   12.4893   12.7261
   13.1655   13.5181   13.0154   13.0077   12.8291   12.5594
   12.2447   12.5594   12.8291   13.0077   13.0154   12.8253
   12.6075   12.5314   12.5540   12.5314   12.6075   12.8253
   13.0154   12.9788   12.8700   12.6463   12.4088   12.5594
   12.9722   13.3285   13.5460   13.5181   13.1655   12.7261
   12.4893   12.5314   12.6397   12.7856   12.9288   12.9788
   13.2560   13.1592   12.8609   12.6463   12.8291   13.3285
   13.8421   14.2064   14.2669   13.8409   13.2135   12.7261
   12.6075   12.7856   13.1831   13.1965   13.2560   13.0516
   13.1735   13.1592   12.8700   13.0077   13.5460   14.2064
   14.7656   14.9791   14.5599   13.8409   13.1655   12.8253
   12.9288   13.1965   13.0527   13.0516   12.9814   13.0516
   13.2560   12.9788   13.0154   13.5181   14.2669   14.9791
   15.1098   14.9791   14.2669   13.5181   13.0154   12.9788
   13.2560   13.0516   12.9814   13.0085   13.0527   13.2294
   13.0691   12.9301   13.2320   13.8174   14.4509   14.9791
   15.0775   14.6452   13.7700   13.1182   12.8889   13.0266
   13.1020   13.0085   13.0527   13.0516   13.1735   13.1592
   12.8700   13.0077   13.5460   14.2064   14.7656   14.9791
   14.5599   13.8409   13.1655   12.8253   12.9288   13.1965
   13.0527   13.2294   13.1735   13.2294   13.1077   12.7314
   12.6388   13.0342   13.6471   14.2064   14.4509   14.2064
   13.6471   13.0342   12.6388   12.7314   13.1077   13.2294
   13.0691   13.1592   13.1077   12.9087   12.5972   12.3264
   12.5162   13.0342   13.5460   13.8174   13.7130   13.3285
   12.8200   12.3996   12.5374   12.8416   13.0691   12.9301
   12.8700   12.7314   12.5972   12.4520   12.2856   12.3264
   12.6388   13.0077   13.2320   13.1886   12.9330   12.5594
   12.2554   12.5734   12.8221   12.9301   13.2320   13.0077
   12.6388   12.3264   12.2856   12.4520   12.5972   12.7314
   12.8700   12.9301   12.8221   12.5734   12.2554   12.5594
   12.9330   13.1886   13.2320   13.8174   13.5460   13.0342
   12.5162   12.3264   12.5972   12.9087   13.1077   13.1592
   13.0691   12.8416   12.5374   12.3996   12.8200   13.3285
   13.7130   13.8174   14.4509   14.2064   13.6471   13.0342
   12.6388   12.7314   13.1077   13.2294   13.1735   13.2294
   13.1077   12.7314   12.6388   13.0342   13.6471   14.2064
   14.4509   14.9791   14.7656   14.2064   13.5460   13.0077
   12.8700   13.1592   13.1735   13.0516   13.0527   13.1965
   12.9288   12.8253   13.1655   13.8409   14.5599   14.9791
   15.0775   14.9791   14.4509   13.8174   13.2320   12.9301
   13.0691   13.2294   13.0527   13.0085   13.1020   13.0266
   12.8889   13.1182   13.7700   14.6452   15.0775   14.6452
   14.5599   14.2064   13.7130   13.1886   12.8221   12.8416
   13.1077   13.1965   13.1020   13.1072   12.9666   12.8427
   12.9075   13.3284   14.0438   14.6452   13.7700   13.8409
   13.6471   13.3285   12.9330   12.5734   12.5374   12.7314
   12.9288   13.0266   12.9666   12.9194   12.8308   12.7669
   12.9123   13.3284   13.7700   13.1182   13.1655   13.0342
   12.8200   12.5594   12.2554   12.3996   12.6388   12.8253
   12.8889   12.8427   12.8308   12.8463   12.7882   12.7669
   12.9075   13.1182   12.8889   12.8253   12.6388   12.3996
   12.2554   12.5594   12.8200   13.0342   13.1655   13.1182
   12.9075   12.7669   12.7882   12.8463   12.8308   12.8427
   12.8889   13.0266   12.9288   12.7314   12.5374   12.5734
   12.9330   13.3285   13.6471   13.8409   13.7700   13.3284
   12.9123   12.7669   12.8308   12.9194   12.9666   13.0266
   13.1020   13.1965   13.1077   12.8416   12.8221   13.1886
   13.7130   14.2064   14.5599   14.6452   14.0438   13.3284
   12.9075   12.8427   12.9666   13.1072   13.1020   13.0085
   13.0527   13.2294   13.0691   12.9301   13.2320   13.8174
   14.4509   14.9791   15.0775   14.6452   13.7700   13.1182
   12.8889   13.0266   13.1020   13.0085   13.0825   13.1072
   13.1831   12.9087   12.7512   12.9050   13.3324   13.8174
   14.2669   14.6452   14.8631   13.9710   13.2778   12.9913
   12.9828   13.0616   13.0825   13.1072   13.1020   13.1965