
     Program PWSCF v.7.0 starts on 12May2022 at 15:51:24 

     This program is part of the open-source Quantum ESPRESSO suite
     for quantum simulation of materials; please cite
         "P. Giannozzi et al., J. Phys.:Condens. Matter 21 395502 (2009);
         "P. Giannozzi et al., J. Phys.:Condens. Matter 29 465901 (2017);
         "P. Giannozzi et al., J. Chem. Phys. 152 154105 (2020);
          URL http://www.quantum-espresso.org", 
     in publications or presentations arising from this work. More details at
     http://www.quantum-espresso.org/quote

     Parallel version (MPI), running on     1 processors

     MPI processes distributed on     1 nodes
     236568 MiB available memory on the printing compute node when the environment starts
 
     Waiting for input...
     Reading input from standard input

     Current dimensions of program PWSCF are:
     Max number of different atomic species (ntypx) = 10
     Max number of k-points (npk) =  40000
     Max angular momentum in pseudopotentials (lmaxx) =  4
 
     Subspace diagonalization in iterative solution of the eigenvalue problem:
     a serial algorithm will be used

 
     G-vector sticks info
     --------------------
     sticks:   dense  smooth     PW     G-vecs:    dense   smooth      PW
     Sum         129     129     55                  959      959     249
 
     Using Slab Decomposition
 


     bravais-lattice index     =            3
     lattice parameter (alat)  =       5.4060  a.u.
     unit-cell volume          =      78.9947 (a.u.)^3
     number of atoms/cell      =            1
     number of atomic types    =            1
     number of electrons       =        16.00
     number of Kohn-Sham states=           24
     kinetic-energy cutoff     =      20.0000  Ry
     charge density cutoff     =      80.0000  Ry
     scf convergence threshold =      1.0E-12
     mixing beta               =       0.3000
     number of iterations used =            8  plain     mixing
     Exchange-correlation= SLA  PW   NOGX NOGC
                           (   1   4   0   0   0   0   0)
     Noncollinear calculation without spin-orbit


     celldm(1)=   5.406000  celldm(2)=   0.000000  celldm(3)=   0.000000
     celldm(4)=   0.000000  celldm(5)=   0.000000  celldm(6)=   0.000000

     crystal axes: (cart. coord. in units of alat)
               a(1) = (   0.500000   0.500000   0.500000 )  
               a(2) = (  -0.500000   0.500000   0.500000 )  
               a(3) = (  -0.500000  -0.500000   0.500000 )  

     reciprocal axes: (cart. coord. in units 2 pi/alat)
               b(1) = (  1.000000  0.000000  1.000000 )  
               b(2) = ( -1.000000  1.000000  0.000000 )  
               b(3) = (  0.000000 -1.000000  1.000000 )  


     PseudoPot. # 1 for Fe read from file:
     /g100_work/Sis22_baroni/obaseggi/q-e-kpoints/pseudo/Fe.lda-pseudoDojo.UPF
     MD5 check sum: b1fb9d3cb1d156aba92c681262384fac
     Pseudo is Norm-conserving + core correction, Zval = 16.0
     Generated using ONCVPSP code by D. R. Hamann
     Using radial grid of 1408 points,  6 beta functions with: 
                l(1) =   0
                l(2) =   0
                l(3) =   1
                l(4) =   1
                l(5) =   2
                l(6) =   2

     atomic species   valence    mass     pseudopotential
        Fe            16.00    55.85000     Fe( 1.00)

     No symmetry found



   Cartesian axes

     site n.     atom                  positions (alat units)
         1           Fe  tau(   1) = (   0.0000000   0.0000000   0.0000000  )

     number of k points=     8  Gaussian smearing, width (Ry)=  0.0200
                       cart. coord. in units 2pi/alat
        k(    1) = (   0.0000000   0.0000000   0.0000000), wk =   0.1250000
        k(    2) = (   0.0000000   0.5000000  -0.5000000), wk =   0.1250000
        k(    3) = (   0.5000000  -0.5000000   0.0000000), wk =   0.1250000
        k(    4) = (   0.5000000   0.0000000  -0.5000000), wk =   0.1250000
        k(    5) = (  -0.5000000   0.0000000  -0.5000000), wk =   0.1250000
        k(    6) = (  -0.5000000   0.5000000  -1.0000000), wk =   0.1250000
        k(    7) = (   0.0000000  -0.5000000  -0.5000000), wk =   0.1250000
        k(    8) = (   0.0000000   0.0000000  -1.0000000), wk =   0.1250000

     Dense  grid:      959 G-vectors     FFT dimensions: (  15,  15,  15)

     Estimated max dynamical RAM per process >       3.90 MB

     Check: negative core charge=   -0.006143
     Generating pointlists ...
     new r_m :   0.3572 (alat units)  1.9312 (a.u.) for type    1

     Initial potential from superposition of free atoms

     starting charge      15.9997, renormalised to      16.0000

 ==============================================================================
     atom number    1 relative position :    0.0000   0.0000   0.0000
     charge :    14.470090  (integrated on a sphere of radius 0.357)
     magnetization :          0.000000    0.000000    2.170514
     magnetization/charge:    0.000000    0.000000    0.150000
     polar coord.: r, theta, phi [deg] :     2.170514    0.000000  360.000000

 ==============================================================================
     Starting wfcs are   20 randomized atomic wfcs +    4 random wfcs

     total cpu time spent up to now is        0.1 secs

     Self-consistent Calculation

     iteration #  1     ecut=    20.00 Ry     beta= 0.30
     Davidson diagonalization with overlap
     ethr =  1.00E-02,  avg # of iterations =  5.6

     total cpu time spent up to now is        0.3 secs

     total energy              =    -235.51714759 Ry
     estimated scf accuracy    <      10.47581872 Ry

     total magnetization       =     0.00    -0.00     0.75 Bohr mag/cell
     absolute magnetization    =     0.75 Bohr mag/cell

     iteration #  2     ecut=    20.00 Ry     beta= 0.30
     Davidson diagonalization with overlap
     ethr =  1.00E-02,  avg # of iterations =  2.0

     total cpu time spent up to now is        0.4 secs

     total energy              =    -233.98535069 Ry
     estimated scf accuracy    <       2.88383016 Ry

     total magnetization       =     0.00    -0.00     1.44 Bohr mag/cell
     absolute magnetization    =     1.44 Bohr mag/cell

     iteration #  3     ecut=    20.00 Ry     beta= 0.30
     Davidson diagonalization with overlap
     ethr =  1.00E-02,  avg # of iterations =  2.0

     total cpu time spent up to now is        0.6 secs

     total energy              =    -234.30964291 Ry
     estimated scf accuracy    <       0.14900679 Ry

     total magnetization       =     0.00    -0.00     1.50 Bohr mag/cell
     absolute magnetization    =     1.50 Bohr mag/cell

     iteration #  4     ecut=    20.00 Ry     beta= 0.30
     Davidson diagonalization with overlap
     ethr =  9.31E-04,  avg # of iterations =  2.0

     total cpu time spent up to now is        0.7 secs

     total energy              =    -234.31184294 Ry
     estimated scf accuracy    <       0.02481576 Ry

     total magnetization       =     0.00    -0.00     1.50 Bohr mag/cell
     absolute magnetization    =     1.50 Bohr mag/cell

     iteration #  5     ecut=    20.00 Ry     beta= 0.30
     Davidson diagonalization with overlap
     ethr =  1.55E-04,  avg # of iterations =  2.2

     total cpu time spent up to now is        0.8 secs

     total energy              =    -234.31547274 Ry
     estimated scf accuracy    <       0.00011585 Ry

     total magnetization       =     0.00    -0.00     1.50 Bohr mag/cell
     absolute magnetization    =     1.50 Bohr mag/cell

     iteration #  6     ecut=    20.00 Ry     beta= 0.30
     Davidson diagonalization with overlap
     ethr =  7.24E-07,  avg # of iterations =  2.5

     total cpu time spent up to now is        0.9 secs

     total energy              =    -234.31539028 Ry
     estimated scf accuracy    <       0.00026140 Ry

     total magnetization       =     0.00    -0.00     1.50 Bohr mag/cell
     absolute magnetization    =     1.50 Bohr mag/cell

     iteration #  7     ecut=    20.00 Ry     beta= 0.30
     Davidson diagonalization with overlap
     ethr =  7.24E-07,  avg # of iterations =  2.0

     total cpu time spent up to now is        1.0 secs

     total energy              =    -234.31542295 Ry
     estimated scf accuracy    <       0.00000017 Ry

     total magnetization       =     0.00    -0.00     1.50 Bohr mag/cell
     absolute magnetization    =     1.50 Bohr mag/cell

     iteration #  8     ecut=    20.00 Ry     beta= 0.30
     Davidson diagonalization with overlap
     ethr =  1.06E-09,  avg # of iterations =  2.1

     total cpu time spent up to now is        1.1 secs

     total energy              =    -234.31542291 Ry
     estimated scf accuracy    <       0.00000010 Ry

     total magnetization       =     0.00    -0.00     1.50 Bohr mag/cell
     absolute magnetization    =     1.50 Bohr mag/cell

     iteration #  9     ecut=    20.00 Ry     beta= 0.30
     Davidson diagonalization with overlap
     ethr =  6.03E-10,  avg # of iterations =  2.0

     total cpu time spent up to now is        1.2 secs

     total energy              =    -234.31542292 Ry
     estimated scf accuracy    <          4.1E-10 Ry

     total magnetization       =     0.00    -0.00     1.50 Bohr mag/cell
     absolute magnetization    =     1.50 Bohr mag/cell

     iteration # 10     ecut=    20.00 Ry     beta= 0.30
     Davidson diagonalization with overlap
     ethr =  2.55E-12,  avg # of iterations =  2.0

 ==============================================================================
     atom number    1 relative position :    0.0000   0.0000   0.0000
     charge :    13.692067  (integrated on a sphere of radius 0.357)
     magnetization :          0.000070   -0.000028    1.396909
     magnetization/charge:    0.000005   -0.000002    0.102023
     polar coord.: r, theta, phi [deg] :     1.396909    0.003087  -21.594072

 ==============================================================================

     total cpu time spent up to now is        1.3 secs

     End of self-consistent calculation

          k = 0.0000 0.0000 0.0000 (   135 PWs)   bands (ev):

  -106.4204-105.7340 -52.0824 -52.0824 -52.0824 -51.0374 -51.0374 -51.0374
     8.7056   9.3367  16.5544  16.5544  16.5544  17.5259  17.5259  17.5259
    22.3640  22.3640  24.2086  24.2086  44.0511  44.0511  44.0511  44.4994

          k = 0.0000 0.5000-0.5000 (   118 PWs)   bands (ev):

  -106.3234-105.6259 -49.6803 -48.5821 -48.0490 -47.1695 -46.9750 -46.0630
    14.3815  15.2516  18.5019  19.3927  20.7637  21.2469  22.6245  23.0210
    24.4870  24.6577  27.1971  27.5774  28.3500  28.6469  38.2752  38.8653

          k = 0.5000-0.5000 0.0000 (   118 PWs)   bands (ev):

  -106.3234-105.6259 -49.6803 -48.5821 -48.0490 -47.1695 -46.9750 -46.0630
    14.3815  15.2516  18.5019  19.3927  20.7637  21.2469  22.6245  23.0210
    24.4870  24.6577  27.1971  27.5774  28.3500  28.6469  38.2752  38.8653

          k = 0.5000 0.0000-0.5000 (   118 PWs)   bands (ev):

  -106.3234-105.6259 -49.6803 -48.5821 -48.0490 -47.1695 -46.9750 -46.0630
    14.3815  15.2516  18.5019  19.3927  20.7637  21.2469  22.6245  23.0210
    24.4870  24.6577  27.1971  27.5774  28.3500  28.6469  38.2752  38.8653

          k =-0.5000 0.0000-0.5000 (   118 PWs)   bands (ev):

  -106.3234-105.6259 -49.6803 -48.5821 -48.0490 -47.1695 -46.9750 -46.0630
    14.3815  15.2516  18.5019  19.3927  20.7637  21.2469  22.6245  23.0210
    24.4870  24.6577  27.1971  27.5774  28.3500  28.6469  38.2752  38.8653

          k =-0.5000 0.5000-1.0000 (   118 PWs)   bands (ev):

  -106.3234-105.6259 -49.6803 -48.5821 -48.0490 -47.1695 -46.9750 -46.0630
    14.3815  15.2516  18.5019  19.3927  20.7637  21.2469  22.6245  23.0210
    24.4870  24.6577  27.1971  27.5774  28.3500  28.6469  38.2752  38.8653

          k = 0.0000-0.5000-0.5000 (   118 PWs)   bands (ev):

  -106.3234-105.6259 -49.6803 -48.5821 -48.0490 -47.1695 -46.9750 -46.0630
    14.3815  15.2516  18.5019  19.3927  20.7637  21.2469  22.6245  23.0210
    24.4870  24.6577  27.1971  27.5774  28.3500  28.6469  38.2752  38.8653

          k = 0.0000 0.0000-1.0000 (   116 PWs)   bands (ev):

  -106.3947-105.7024 -48.7461 -48.7461 -48.7461 -47.6537 -47.6537 -47.6537
    16.4273  16.4273  17.7662  17.7662  24.9299  24.9299  24.9299  26.0277
    26.0277  26.0277  29.8077  29.8077  29.8077  30.3041  30.3041  30.3041

     the Fermi energy is    24.2564 ev

!    total energy              =    -234.31542292 Ry
     estimated scf accuracy    <          9.2E-13 Ry
     smearing contrib. (-TS)   =      -0.00391600 Ry
     internal energy E=F+TS    =    -234.31150692 Ry

     The total energy is F=E-TS. E is the sum of the following terms:
     one-electron contribution =     -67.03440950 Ry
     hartree contribution      =      35.64952627 Ry
     xc contribution           =     -30.59148432 Ry
     ewald contribution        =    -172.33513937 Ry

     total magnetization       =     0.00    -0.00     1.50 Bohr mag/cell
     absolute magnetization    =     1.50 Bohr mag/cell

     convergence has been achieved in  10 iterations

     Writing all to output data dir /g100_work/Sis22_baroni/obaseggi/q-e-kpoints/tempdir/Fe.save/
 
     init_run     :      0.05s CPU      0.09s WALL (       1 calls)
     electrons    :      1.15s CPU      1.19s WALL (       1 calls)

     Called by init_run:
     wfcinit      :      0.03s CPU      0.07s WALL (       1 calls)
     potinit      :      0.00s CPU      0.00s WALL (       1 calls)
     hinit0       :      0.02s CPU      0.02s WALL (       1 calls)

     Called by electrons:
     c_bands      :      0.97s CPU      1.01s WALL (      10 calls)
     sum_band     :      0.16s CPU      0.16s WALL (      10 calls)
     v_of_rho     :      0.01s CPU      0.01s WALL (      11 calls)
     mix_rho      :      0.01s CPU      0.01s WALL (      10 calls)

     Called by c_bands:
     init_us_2    :      0.00s CPU      0.01s WALL (     168 calls)
     init_us_2:cp :      0.00s CPU      0.00s WALL (     168 calls)
     cegterg      :      0.94s CPU      0.97s WALL (      80 calls)

     Called by *egterg:
     cdiaghg      :      0.17s CPU      0.20s WALL (     276 calls)
     h_psi        :      0.75s CPU      0.78s WALL (     284 calls)
     g_psi        :      0.00s CPU      0.00s WALL (     196 calls)

     Called by h_psi:
     h_psi:calbec :      0.01s CPU      0.01s WALL (     284 calls)
     vloc_psi     :      0.73s CPU      0.75s WALL (     284 calls)
     add_vuspsi   :      0.01s CPU      0.01s WALL (     284 calls)

     General routines
     calbec       :      0.01s CPU      0.01s WALL (     284 calls)
     fft          :      0.00s CPU      0.00s WALL (      93 calls)
     ffts         :      0.00s CPU      0.00s WALL (      40 calls)
     fftw         :      0.71s CPU      0.73s WALL (   24036 calls)
 
     Parallel routines
 
     PWSCF        :      1.23s CPU      1.37s WALL

 
   This run was terminated on:  15:51:25  12May2022            

=------------------------------------------------------------------------------=
   JOB DONE.
=------------------------------------------------------------------------------=
