<PP_INFO>
Generated using Vanderbilt code, version   7  3  6                              
Author: kfg        Generation date:    3    2 2014                              
Automatically converted from original format                                    
    1        The Pseudo was generated with a Scalar-Relativistic Calculation
  1.47000000000E+00    Local Potential cutoff radius
nl pn  l   occ               Rcut            Rcut US             E pseu
3S  3  0  2.00      0.00000000000      1.50000000000     -8.15543718900
3P  3  1  6.00      0.00000000000      1.50000000000     -5.46466369300
3D  3  2  7.00      0.00000000000      1.55000000000     -1.24864962100
4S  4  0  1.00      0.00000000000      1.50000000000     -0.93772809000
4P  4  1  0.00      0.00000000000      1.50000000000     -0.54517107700
</PP_INFO>


<PP_HEADER>
   0                   Version Number
  Co                   Element
   US                  Ultrasoft pseudopotential
    T                  Nonlinear Core Correction
SLA  PW   PSX  PSC     PBEsol  Exchange-Correlation functional
   17.00000000000      Z valence
 -296.94641770000      Total energy
    0.00000    0.00000 Suggested cutoff for wfc and rho
    2                  Max angular momentum component
  863                  Number of points in mesh
    5    6             Number of Wavefunctions, Number of Projectors
 Wavefunctions         nl  l   occ
                       3S  0  2.00
                       3P  1  6.00
                       3D  2  7.00
                       4S  0  1.00
                       4P  1  0.00
</PP_HEADER>


<PP_MESH>
  <PP_R>
  0.00000000000E+00  1.56928922518E-06  3.16540325955E-06  4.78880063578E-06
  6.43994772451E-06  8.11931886837E-06  9.82739651818E-06  1.15646713716E-05
  1.33316425141E-05  1.51288175622E-05  1.69567128096E-05  1.88158533753E-05
  2.07067733542E-05  2.26300159713E-05  2.45861337367E-05  2.65756886054E-05
  2.85992521379E-05  3.06574056649E-05  3.27507404540E-05  3.48798578799E-05
  3.70453695967E-05  3.92478977141E-05  4.14880749758E-05  4.37665449414E-05
  4.60839621712E-05  4.84409924143E-05  5.08383127999E-05  5.32766120317E-05
  5.57565905860E-05  5.82789609126E-05  6.08444476397E-05  6.34537877820E-05
  6.61077309523E-05  6.88070395773E-05  7.15524891160E-05  7.43448682830E-05
  7.71849792748E-05  8.00736380003E-05  8.30116743152E-05  8.59999322606E-05
  8.90392703051E-05  9.21305615917E-05  9.52746941887E-05  9.84725713443E-05
  1.01725111747E-04  1.05033249789E-04  1.08397935833E-04  1.11820136490E-04
  1.15300834890E-04  1.18841030973E-04  1.22441741766E-04  1.26104001685E-04
  1.29828862827E-04  1.33617395271E-04  1.37470687390E-04  1.41389846161E-04
  1.45375997480E-04  1.49430286494E-04  1.53553877920E-04  1.57747956386E-04
  1.62013726770E-04  1.66352414546E-04  1.70765266134E-04  1.75253549262E-04
  1.79818553325E-04  1.84461589762E-04  1.89183992427E-04  1.93987117975E-04
  1.98872346251E-04  2.03841080687E-04  2.08894748703E-04  2.14034802121E-04
  2.19262717578E-04  2.24579996954E-04  2.29988167801E-04  2.35488783780E-04
  2.41083425112E-04  2.46773699031E-04  2.52561240240E-04  2.58447711389E-04
  2.64434803547E-04  2.70524236690E-04  2.76717760195E-04  2.83017153339E-04
  2.89424225818E-04  2.95940818259E-04  3.02568802754E-04  3.09310083393E-04
  3.16166596816E-04  3.23140312768E-04  3.30233234660E-04  3.37447400154E-04
  3.44784881739E-04  3.52247787331E-04  3.59838260879E-04  3.67558482978E-04
  3.75410671501E-04  3.83397082227E-04  3.91520009499E-04  3.99781786875E-04
  4.08184787806E-04  4.16731426311E-04  4.25424157673E-04  4.34265479146E-04
  4.43257930670E-04  4.52404095603E-04  4.61706601462E-04  4.71168120675E-04
  4.80791371354E-04  4.90579118074E-04  5.00534172664E-04  5.10659395018E-04
  5.20957693918E-04  5.31432027865E-04  5.42085405933E-04  5.52920888631E-04
  5.63941588783E-04  5.75150672424E-04  5.86551359706E-04  5.98146925827E-04
  6.09940701967E-04  6.21936076251E-04  6.34136494717E-04  6.46545462310E-04
  6.59166543885E-04  6.72003365237E-04  6.85059614133E-04  6.98339041384E-04
  7.11845461910E-04  7.25582755845E-04  7.39554869649E-04  7.53765817238E-04
  7.68219681143E-04  7.82920613679E-04  7.97872838141E-04  8.13080650012E-04
  8.28548418202E-04  8.44280586303E-04  8.60281673862E-04  8.76556277681E-04
  8.93109073139E-04  9.09944815535E-04  9.27068341450E-04  9.44484570143E-04
  9.62198504959E-04  9.80215234770E-04  9.98539935432E-04  1.01717787128E-03
  1.03613439662E-03  1.05541495732E-03  1.07502509229E-03  1.09497043514E-03
  1.11525671580E-03  1.13588976212E-03  1.15687550156E-03  1.17821996294E-03
  1.19992927809E-03  1.22200968368E-03  1.24446752300E-03  1.26730924773E-03
  1.29054141987E-03  1.31417071358E-03  1.33820391707E-03  1.36264793465E-03
  1.38750978858E-03  1.41279662122E-03  1.43851569697E-03  1.46467440442E-03
  1.49128025847E-03  1.51834090246E-03  1.54586411040E-03  1.57385778916E-03
  1.60232998079E-03  1.63128886481E-03  1.66074276053E-03  1.69070012949E-03
  1.72116957786E-03  1.75215985893E-03  1.78367987561E-03  1.81573868298E-03
  1.84834549092E-03  1.88150966674E-03  1.91524073785E-03  1.94954839456E-03
  1.98444249277E-03  2.01993305690E-03  2.05603028268E-03  2.09274454017E-03
  2.13008637664E-03  2.16806651970E-03  2.20669588030E-03  2.24598555590E-03
  2.28594683368E-03  2.32659119372E-03  2.36793031238E-03  2.40997606558E-03
  2.45274053225E-03  2.49623599780E-03  2.54047495763E-03  2.58547012073E-03
  2.63123441335E-03  2.67778098269E-03  2.72512320067E-03  2.77327466779E-03
  2.82224921704E-03  2.87206091786E-03  2.92272408019E-03  2.97425325857E-03
  3.02666325634E-03  3.07996912988E-03  3.13418619294E-03  3.18933002102E-03
  3.24541645588E-03  3.30246161007E-03  3.36048187156E-03  3.41949390845E-03
  3.47951467374E-03  3.54056141026E-03  3.60265165554E-03  3.66580324690E-03
  3.73003432659E-03  3.79536334694E-03  3.86180907572E-03  3.92939060151E-03
  3.99812733915E-03  4.06803903540E-03  4.13914577452E-03  4.21146798412E-03
  4.28502644095E-03  4.35984227694E-03  4.43593698524E-03  4.51333242637E-03
  4.59205083456E-03  4.67211482407E-03  4.75354739574E-03  4.83637194359E-03
  4.92061226148E-03  5.00629255004E-03  5.09343742356E-03  5.18207191707E-03
  5.27222149355E-03  5.36391205122E-03  5.45716993101E-03  5.55202192411E-03
  5.64849527965E-03  5.74661771256E-03  5.84641741153E-03  5.94792304706E-03
  6.05116377978E-03  6.15616926873E-03  6.26296967997E-03  6.37159569519E-03
  6.48207852054E-03  6.59444989560E-03  6.70874210248E-03  6.82498797514E-03
  6.94322090875E-03  7.06347486936E-03  7.18578440360E-03  7.31018464862E-03
  7.43671134222E-03  7.56540083307E-03  7.69629009116E-03  7.82941671845E-03
  7.96481895963E-03  8.10253571316E-03  8.24260654240E-03  8.38507168697E-03
  8.52997207436E-03  8.67734933166E-03  8.82724579748E-03  8.97970453419E-03
  9.13476934023E-03  9.29248476272E-03  9.45289611024E-03  9.61604946588E-03
  9.78199170044E-03  9.95077048590E-03  1.01224343092E-02  1.02970324859E-02
  1.04746151748E-02  1.06552333919E-02  1.08389390254E-02  1.10257848503E-02
  1.12158245438E-02  1.14091127006E-02  1.16057048487E-02  1.18056574653E-02
  1.20090279927E-02  1.22158748555E-02  1.24262574768E-02  1.26402362953E-02
  1.28578727831E-02  1.30792294630E-02  1.33043699263E-02  1.35333588517E-02
  1.37662620231E-02  1.40031463492E-02  1.42440798823E-02  1.44891318379E-02
  1.47383726147E-02  1.49918738147E-02  1.52497082639E-02  1.55119500332E-02
  1.57786744596E-02  1.60499581677E-02  1.63258790923E-02  1.66065165000E-02
  1.68919510125E-02  1.71822646296E-02  1.74775407529E-02  1.77778642094E-02
  1.80833212763E-02  1.83939997054E-02  1.87099887487E-02  1.90313791836E-02
  1.93582633395E-02  1.96907351239E-02  2.00288900494E-02  2.03728252614E-02
  2.07226395659E-02  2.10784334577E-02  2.14403091496E-02  2.18083706013E-02
  2.21827235499E-02  2.25634755397E-02  2.29507359534E-02  2.33446160434E-02
  2.37452289638E-02  2.41526898030E-02  2.45671156166E-02  2.49886254611E-02
  2.54173404281E-02  2.58533836792E-02  2.62968804811E-02  2.67479582418E-02
  2.72067465474E-02  2.76733771987E-02  2.81479842498E-02  2.86307040461E-02
  2.91216752636E-02  2.96210389488E-02  3.01289385594E-02  3.06455200049E-02
  3.11709316893E-02  3.17053245532E-02  3.22488521173E-02  3.28016705265E-02
  3.33639385949E-02  3.39358178513E-02  3.45174725854E-02  3.51090698954E-02
  3.57107797358E-02  3.63227749662E-02  3.69452314009E-02  3.75783278596E-02
  3.82222462188E-02  3.88771714636E-02  3.95432917415E-02  4.02207984159E-02
  4.09098861214E-02  4.16107528194E-02  4.23235998556E-02  4.30486320170E-02
  4.37860575913E-02  4.45360884266E-02  4.52989399923E-02  4.60748314409E-02
  4.68639856709E-02  4.76666293912E-02  4.84829931856E-02  4.93133115799E-02
  5.01578231082E-02  5.10167703825E-02  5.18904001618E-02  5.27789634228E-02
  5.36827154327E-02  5.46019158219E-02  5.55368286589E-02  5.64877225261E-02
  5.74548705969E-02  5.84385507142E-02  5.94390454703E-02  6.04566422879E-02
  6.14916335029E-02  6.25443164483E-02  6.36149935395E-02  6.47039723613E-02
  6.58115657563E-02  6.69380919146E-02  6.80838744654E-02  6.92492425699E-02
  7.04345310157E-02  7.16400803132E-02  7.28662367935E-02  7.41133527076E-02
  7.53817863278E-02  7.66719020504E-02  7.79840705009E-02  7.93186686397E-02
  8.06760798711E-02  8.20566941531E-02  8.34609081094E-02  8.48891251436E-02
  8.63417555547E-02  8.78192166554E-02  8.93219328917E-02  9.08503359648E-02
  9.24048649554E-02  9.39859664496E-02  9.55940946671E-02  9.72297115923E-02
  9.88932871061E-02  1.00585299122E-01  1.02306233721E-01  1.04056585296E-01
  1.05836856688E-01  1.07647559335E-01  1.09489213416E-01  1.11362348004E-01
  1.13267501214E-01  1.15205220359E-01  1.17176062108E-01  1.19180592647E-01
  1.21219387837E-01  1.23293033386E-01  1.25402125011E-01  1.27547268615E-01
  1.29729080454E-01  1.31948187322E-01  1.34205226725E-01  1.36500847067E-01
  1.38835707834E-01  1.41210479788E-01  1.43625845153E-01  1.46082497819E-01
  1.48581143534E-01  1.51122500110E-01  1.53707297630E-01  1.56336278656E-01
  1.59010198444E-01  1.61729825159E-01  1.64495940097E-01  1.67309337910E-01
  1.70170826831E-01  1.73081228912E-01  1.76041380255E-01  1.79052131254E-01
  1.82114346840E-01  1.85228906727E-01  1.88396705669E-01  1.91618653712E-01
  1.94895676461E-01  1.98228715340E-01  2.01618727868E-01  2.05066687928E-01
  2.08573586053E-01  2.12140429708E-01  2.15768243577E-01  2.19458069861E-01
  2.23210968576E-01  2.27028017857E-01  2.30910314268E-01  2.34858973118E-01
  2.38875128780E-01  2.42959935019E-01  2.47114565319E-01  2.51340213226E-01
  2.55638092686E-01  2.60009438398E-01  2.64455506164E-01  2.68977573253E-01
  2.73576938769E-01  2.78254924018E-01  2.83012872897E-01  2.87852152272E-01
  2.92774152374E-01  2.97780287199E-01  3.02871994911E-01  3.08050738261E-01
  3.13318005001E-01  3.18675308315E-01  3.24124187252E-01  3.29666207171E-01
  3.35302960185E-01  3.41036065625E-01  3.46867170502E-01  3.52797949978E-01
  3.58830107853E-01  3.64965377047E-01  3.71205520107E-01  3.77552329703E-01
  3.84007629151E-01  3.90573272934E-01  3.97251147235E-01  4.04043170477E-01
  4.10951293877E-01  4.17977502006E-01  4.25123813357E-01  4.32392280927E-01
  4.39784992806E-01  4.47304072778E-01  4.54951680927E-01  4.62730014265E-01
  4.70641307356E-01  4.78687832961E-01  4.86871902692E-01  4.95195867672E-01
  5.03662119217E-01  5.12273089517E-01  5.21031252336E-01  5.29939123726E-01
  5.38999262745E-01  5.48214272196E-01  5.57586799373E-01  5.67119536822E-01
  5.76815223114E-01  5.86676643631E-01  5.96706631369E-01  6.06908067750E-01
  6.17283883448E-01  6.27837059235E-01  6.38570626834E-01  6.49487669791E-01
  6.60591324361E-01  6.71884780410E-01  6.83371282329E-01  6.95054129968E-01
  7.06936679582E-01  7.19022344798E-01  7.31314597594E-01  7.43816969297E-01
  7.56533051595E-01  7.69466497573E-01  7.82621022761E-01  7.96000406198E-01
  8.09608491522E-01  8.23449188073E-01  8.37526472016E-01  8.51844387481E-01
  8.66407047728E-01  8.81218636329E-01  8.96283408365E-01  9.11605691655E-01
  9.27189887994E-01  9.43040474420E-01  9.59162004499E-01  9.75559109636E-01
  9.92236500401E-01  1.00919896789E+00  1.02645138508E+00  1.04399870827E+00
  1.06184597846E+00  1.07999832282E+00  1.09846095618E+00  1.11723918248E+00
  1.13633839636E+00  1.15576408465E+00  1.17552182797E+00  1.19561730233E+00
  1.21605628078E+00  1.23684463505E+00  1.25798833722E+00  1.27949346146E+00
  1.30136618580E+00  1.32361279383E+00  1.34623967658E+00  1.36925333431E+00
  1.39266037840E+00  1.41646753324E+00  1.44068163817E+00  1.46530964943E+00
  1.49035864217E+00  1.51583581248E+00  1.54174847946E+00  1.56810408732E+00
  1.59491020752E+00  1.62217454093E+00  1.64990492007E+00  1.67810931133E+00
  1.70679581731E+00  1.73597267907E+00  1.76564827856E+00  1.79583114101E+00
  1.82652993736E+00  1.85775348680E+00  1.88951075924E+00  1.92181087793E+00
  1.95466312208E+00  1.98807692948E+00  2.02206189930E+00  2.05662779474E+00
  2.09178454592E+00  2.12754225270E+00  2.16391118757E+00  2.20090179863E+00
  2.23852471255E+00  2.27679073769E+00  2.31571086712E+00  2.35529628184E+00
  2.39555835399E+00  2.43650865007E+00  2.47815893430E+00  2.52052117202E+00
  2.56360753307E+00  2.60743039534E+00  2.65200234827E+00  2.69733619653E+00
  2.74344496366E+00  2.79034189581E+00  2.83804046557E+00  2.88655437581E+00
  2.93589756364E+00  2.98608420440E+00  3.03712871575E+00  3.08904576177E+00
  3.14185025725E+00  3.19555737188E+00  3.25018253467E+00  3.30574143839E+00
  3.36225004404E+00  3.41972458543E+00  3.47818157389E+00  3.53763780299E+00
  3.59811035334E+00  3.65961659755E+00  3.72217420516E+00  3.78580114777E+00
  3.85051570417E+00  3.91633646559E+00  3.98328234106E+00  4.05137256285E+00
  4.12062669195E+00  4.19106462374E+00  4.26270659366E+00  4.33557318308E+00
  4.40968532515E+00  4.48506431086E+00  4.56173179512E+00  4.63970980303E+00
  4.71902073616E+00  4.79968737901E+00  4.88173290553E+00  4.96518088583E+00
  5.05005529289E+00  5.13638050948E+00  5.22418133518E+00  5.31348299346E+00
  5.40431113895E+00  5.49669186483E+00  5.59065171029E+00  5.68621766818E+00
  5.78341719274E+00  5.88227820753E+00  5.98282911339E+00  6.08509879665E+00
  6.18911663742E+00  6.29491251801E+00  6.40251683153E+00  6.51196049062E+00
  6.62327493631E+00  6.73649214711E+00  6.85164464811E+00  6.96876552041E+00
  7.08788841057E+00  7.20904754028E+00  7.33227771623E+00  7.45761434005E+00
  7.58509341853E+00  7.71475157395E+00  7.84662605459E+00  7.98075474542E+00
  8.11717617904E+00  8.25592954666E+00  8.39705470947E+00  8.54059220997E+00
  8.68658328372E+00  8.83506987113E+00  8.98609462953E+00  9.13970094539E+00
  9.29593294685E+00  9.45483551634E+00  9.61645430348E+00  9.78083573824E+00
  9.94802704420E+00  1.01180762522E+01  1.02910322141E+01  1.04669446168E+01
  1.06458639965E+01  1.08278417533E+01  1.10129301659E+01  1.12011824066E+01
  1.13926525566E+01  1.15873956216E+01  1.17854675475E+01  1.19869252365E+01
  1.21918265636E+01  1.24002303929E+01  1.26121965949E+01  1.28277860632E+01
  1.30470607326E+01  1.32700835965E+01  1.34969187249E+01  1.37276312833E+01
  1.39622875509E+01  1.42009549400E+01  1.44437020149E+01  1.46905985123E+01
  1.49417153608E+01  1.51971247013E+01  1.54568999080E+01  1.57211156094E+01
  1.59898477094E+01  1.62631734096E+01  1.65411712313E+01  1.68239210377E+01
  1.71115040574E+01  1.74040029075E+01  1.77015016172E+01  1.80040856522E+01
  1.83118419390E+01  1.86248588900E+01  1.89432264289E+01  1.92670360165E+01
  1.95963806772E+01  1.99313550252E+01  2.02720552922E+01  2.06185793547E+01
  2.09710267625E+01  2.13294987669E+01  2.16940983498E+01  2.20649302538E+01
  2.24421010117E+01  2.28257189773E+01  2.32158943566E+01  2.36127392395E+01
  2.40163676318E+01  2.44268954882E+01  2.48444407454E+01  2.52691233560E+01
  2.57010653231E+01  2.61403907353E+01  2.65872258023E+01  2.70416988912E+01
  2.75039405633E+01  2.79740836117E+01  2.84522630993E+01  2.89386163979E+01
  2.94332832274E+01  2.99364056959E+01  3.04481283409E+01  3.09685981704E+01
  3.14979647052E+01  3.20363800222E+01  3.25839987975E+01  3.31409783516E+01
  3.37074786938E+01  3.42836625687E+01  3.48696955029E+01  3.54657458522E+01
  3.60719848503E+01  3.66885866581E+01  3.73157284132E+01  3.79535902814E+01
  3.86023555080E+01  3.92622104707E+01  3.99333447331E+01  4.06159510991E+01
  4.13102256683E+01  4.20163678923E+01  4.27345806320E+01  4.34650702163E+01
  4.42080465005E+01  4.49637229273E+01  4.57323165881E+01  4.65140482848E+01
  4.73091425939E+01  4.81178279305E+01  4.89403366144E+01  4.97769049363E+01
  5.06277732262E+01  5.14931859220E+01  5.23733916400E+01  5.32686432464E+01
  5.41791979295E+01  5.51053172742E+01  5.60472673365E+01  5.70053187206E+01
  5.79797466560E+01  5.89708310771E+01  5.99788567032E+01  6.10041131205E+01
  6.20468948654E+01  6.31075015089E+01  6.41862377428E+01  6.52834134671E+01
  6.63993438792E+01  6.75343495643E+01  6.86887565876E+01  6.98628965877E+01
  7.10571068726E+01  7.22717305156E+01  7.35071164547E+01  7.47636195922E+01
  7.60416008973E+01  7.73414275092E+01  7.86634728431E+01  8.00081166968E+01
  8.13757453606E+01  8.27667517277E+01  8.41815354074E+01  8.56205028396E+01
  8.70840674118E+01  8.85726495778E+01  9.00866769784E+01  9.16265845645E+01
  9.31928147216E+01  9.47858173974E+01  9.64060502307E+01  9.80539786831E+01
  9.97300761725E+01  1.01434824209E+02  1.03168712535E+02  1.04932239261E+02
  1.06725911016E+02  1.08550243086E+02  1.10405759566E+02  1.12292993512E+02
  1.14212487087E+02  1.16164791727E+02  1.18150468290E+02  1.20170087222E+02
  1.22224228721E+02  1.24313482903E+02  1.26438449969E+02  1.28599740381E+02
  1.30797975036E+02  1.33033785446E+02  1.35307813913E+02  1.37620713724E+02
  1.39973149329E+02  1.42365796538E+02  1.44799342711E+02  1.47274486960E+02
  1.49791940346E+02  1.52352426084E+02  1.54956679752E+02  1.57605449502E+02
  1.60299496274E+02  1.63039594016E+02  1.65826529905E+02  1.68661104573E+02
  1.71544132339E+02  1.74476441441E+02  1.77458874275E+02  1.80492287636E+02
  1.83577552965E+02  1.86715556599E+02  1.89907200026E+02  1.93153400143E+02
  1.96455089520E+02  1.99813216669E+02  2.03228746315E+02
  </PP_R>
  <PP_RAB>
  1.55602773174E-06  1.58262585420E-06  1.60967863445E-06  1.63719384421E-06
  1.66517938809E-06  1.69364330578E-06  1.72259377442E-06  1.75203911092E-06
  1.78198777435E-06  1.81244836839E-06  1.84342964377E-06  1.87494050082E-06
  1.90698999198E-06  1.93958732448E-06  1.97274186287E-06  2.00646313183E-06
  2.04076081883E-06  2.07564477691E-06  2.11112502757E-06  2.14721176361E-06
  2.18391535203E-06  2.22124633707E-06  2.25921544320E-06  2.29783357821E-06
  2.33711183634E-06  2.37706150148E-06  2.41769405038E-06  2.45902115601E-06
  2.50105469083E-06  2.54380673026E-06  2.58728955614E-06  2.63151566025E-06
  2.67649774788E-06  2.72224874153E-06  2.76878178456E-06  2.81611024501E-06
  2.86424771945E-06  2.91320803683E-06  2.96300526251E-06  3.01365370226E-06
  3.06516790641E-06  3.11756267398E-06  3.17085305697E-06  3.22505436470E-06
  3.28018216813E-06  3.33625230443E-06  3.39328088146E-06  3.45128428242E-06
  3.51027917056E-06  3.57028249399E-06  3.63131149049E-06  3.69338369251E-06
  3.75651693220E-06  3.82072934651E-06  3.88603938243E-06  3.95246580226E-06
  4.02002768904E-06  4.08874445197E-06  4.15863583207E-06  4.22972190777E-06
  4.30202310073E-06  4.37556018168E-06  4.45035427639E-06  4.52642687177E-06
  4.60379982200E-06  4.68249535483E-06  4.76253607797E-06  4.84394498556E-06
  4.92674546482E-06  5.01096130270E-06  5.09661669281E-06  5.18373624226E-06
  5.27234497883E-06  5.36246835809E-06  5.45413227074E-06  5.54736305005E-06
  5.64218747941E-06  5.73863280006E-06  5.83672671886E-06  5.93649741631E-06
  6.03797355458E-06  6.14118428582E-06  6.24615926046E-06  6.35292863580E-06
  6.46152308459E-06  6.57197380393E-06  6.68431252418E-06  6.79857151806E-06
  6.91478360998E-06  7.03298218543E-06  7.15320120056E-06  7.27547519198E-06
  7.39983928664E-06  7.52632921193E-06  7.65498130596E-06  7.78583252799E-06
  7.91892046904E-06  8.05428336271E-06  8.19196009612E-06  8.33199022116E-06
  8.47441396575E-06  8.61927224549E-06  8.76660667535E-06  8.91645958167E-06
  9.06887401429E-06  9.22389375892E-06  9.38156334974E-06  9.54192808216E-06
  9.70503402588E-06  9.87092803808E-06  1.00396577769E-05  1.02112717151E-05
  1.03858191541E-05  1.05633502379E-05  1.07439159679E-05  1.09275682170E-05
  1.11143597450E-05  1.13043442135E-05  1.14975762013E-05  1.16941112203E-05
  1.18940057312E-05  1.20973171597E-05  1.23041039134E-05  1.25144253980E-05
  1.27283420349E-05  1.29459152781E-05  1.31672076323E-05  1.33922826705E-05
  1.36212050523E-05  1.38540405427E-05  1.40908560309E-05  1.43317195493E-05
  1.45767002935E-05  1.48258686416E-05  1.50792961748E-05  1.53370556980E-05
  1.55992212606E-05  1.58658681776E-05  1.61370730514E-05  1.64129137941E-05
  1.66934696494E-05  1.69788212154E-05  1.72690504682E-05  1.75642407850E-05
  1.78644769683E-05  1.81698452702E-05  1.84804334170E-05  1.87963306347E-05
  1.91176276745E-05  1.94444168388E-05  1.97767920078E-05  2.01148486664E-05
  2.04586839318E-05  2.08083965812E-05  2.11640870803E-05  2.15258576120E-05
  2.18938121061E-05  2.22680562688E-05  2.26486976131E-05  2.30358454899E-05
  2.34296111194E-05  2.38301076229E-05  2.42374500550E-05  2.46517554376E-05
  2.50731427925E-05  2.55017331761E-05  2.59376497142E-05  2.63810176371E-05
  2.68319643159E-05  2.72906192989E-05  2.77571143486E-05  2.82315834802E-05
  2.87141629994E-05  2.92049915420E-05  2.97042101135E-05  3.02119621298E-05
  3.07283934582E-05  3.12536524594E-05  3.17878900302E-05  3.23312596467E-05
  3.28839174084E-05  3.34460220832E-05  3.40177351530E-05  3.45992208598E-05
  3.51906462533E-05  3.57921812385E-05  3.64039986247E-05  3.70262741752E-05
  3.76591866579E-05  3.83029178961E-05  3.89576528215E-05  3.96235795267E-05
  4.03008893195E-05  4.09897767779E-05  4.16904398060E-05  4.24030796908E-05
  4.31279011598E-05  4.38651124402E-05  4.46149253187E-05  4.53775552018E-05
  4.61532211784E-05  4.69421460824E-05  4.77445565566E-05  4.85606831180E-05
  4.93907602239E-05  5.02350263395E-05  5.10937240061E-05  5.19670999109E-05
  5.28554049579E-05  5.37588943399E-05  5.46778276120E-05  5.56124687660E-05
  5.65630863060E-05  5.75299533262E-05  5.85133475887E-05  5.95135516037E-05
  6.05308527105E-05  6.15655431599E-05  6.26179201985E-05  6.36882861539E-05
  6.47769485214E-05  6.58842200528E-05  6.70104188457E-05  6.81558684352E-05
  6.93208978869E-05  7.05058418911E-05  7.17110408593E-05  7.29368410219E-05
  7.41835945275E-05  7.54516595443E-05  7.67414003629E-05  7.80531875007E-05
  7.93873978090E-05  8.07444145804E-05  8.21246276596E-05  8.35284335552E-05
  8.49562355534E-05  8.64084438341E-05  8.78854755887E-05  8.93877551397E-05
  9.09157140631E-05  9.24697913118E-05  9.40504333422E-05  9.56580942421E-05
  9.72932358614E-05  9.89563279447E-05  1.00647848266E-04  1.02368282767E-04
  1.04118125694E-04  1.05897879744E-04  1.07708056206E-04  1.09549175108E-04
  1.11421765368E-04  1.13326364945E-04  1.15263520994E-04  1.17233790022E-04
  1.19237738050E-04  1.21275940772E-04  1.23348983725E-04  1.25457462454E-04
  1.27601982685E-04  1.29783160496E-04  1.32001622497E-04  1.34258006010E-04
  1.36552959251E-04  1.38887141514E-04  1.41261223366E-04  1.43675886833E-04
  1.46131825602E-04  1.48629745217E-04  1.51170363282E-04  1.53754409667E-04
  1.56382626719E-04  1.59055769473E-04  1.61774605871E-04  1.64539916984E-04
  1.67352497231E-04  1.70213154611E-04  1.73122710938E-04  1.76082002069E-04
  1.79091878152E-04  1.82153203866E-04  1.85266858670E-04  1.88433737058E-04
  1.91654748813E-04  1.94930819268E-04  1.98262889575E-04  2.01651916974E-04
  2.05098875066E-04  2.08604754097E-04  2.12170561237E-04  2.15797320873E-04
  2.19486074903E-04  2.23237883036E-04  2.27053823093E-04  2.30934991319E-04
  2.34882502700E-04  2.38897491278E-04  2.42981110483E-04  2.47134533459E-04
  2.51358953404E-04  2.55655583913E-04  2.60025659323E-04  2.64470435074E-04
  2.68991188063E-04  2.73589217015E-04  2.78265842855E-04  2.83022409087E-04
  2.87860282181E-04  2.92780851963E-04  2.97785532018E-04  3.02875760095E-04
  3.08052998516E-04  3.13318734603E-04  3.18674481099E-04  3.24121776607E-04
  3.29662186029E-04  3.35297301018E-04  3.41028740434E-04  3.46858150807E-04
  3.52787206815E-04  3.58817611761E-04  3.64951098063E-04  3.71189427754E-04
  3.77534392985E-04  3.83987816541E-04  3.90551552366E-04  3.97227486094E-04
  4.04017535593E-04  4.10923651512E-04  4.17947817844E-04  4.25092052496E-04
  4.32358407869E-04  4.39748971447E-04  4.47265866394E-04  4.54911252169E-04
  4.62687325145E-04  4.70596319236E-04  4.78640506542E-04  4.86822198004E-04
  4.95143744064E-04  5.03607535339E-04  5.12216003314E-04  5.20971621035E-04
  5.29876903822E-04  5.38934409989E-04  5.48146741584E-04  5.57516545130E-04
  5.67046512392E-04  5.76739381143E-04  5.86597935958E-04  5.96625009010E-04
  6.06823480881E-04  6.17196281395E-04  6.27746390458E-04  6.38476838912E-04
  6.49390709406E-04  6.60491137285E-04  6.71781311486E-04  6.83264475459E-04
  6.94943928094E-04  7.06823024671E-04  7.18905177826E-04  7.31193858528E-04
  7.43692597075E-04  7.56404984115E-04  7.69334671669E-04  7.82485374187E-04
  7.95860869612E-04  8.09465000464E-04  8.23301674946E-04  8.37374868068E-04
  8.51688622786E-04  8.66247051165E-04  8.81054335558E-04  8.96114729813E-04
  9.11432560489E-04  9.27012228103E-04  9.42858208392E-04  9.58975053599E-04
  9.75367393781E-04  9.92039938142E-04  1.00899747638E-03  1.02624488007E-03
  1.04378710405E-03  1.06162918787E-03  1.07977625721E-03  1.09823352538E-03
  1.11700629479E-03  1.13609995849E-03  1.15552000172E-03  1.17527200349E-03
  1.19536163817E-03  1.21579467711E-03  1.23657699033E-03  1.25771454820E-03
  1.27921342312E-03  1.30107979130E-03  1.32331993453E-03  1.34594024196E-03
  1.36894721199E-03  1.39234745406E-03  1.41614769060E-03  1.44035475898E-03
  1.46497561341E-03  1.49001732698E-03  1.51548709369E-03  1.54139223053E-03
  1.56774017952E-03  1.59453850993E-03  1.62179492040E-03  1.64951724116E-03
  1.67771343631E-03  1.70639160606E-03  1.73555998911E-03  1.76522696495E-03
  1.79540105634E-03  1.82609093171E-03  1.85730540767E-03  1.88905345154E-03
  1.92134418390E-03  1.95418688127E-03  1.98759097872E-03  2.02156607259E-03
  2.05612192327E-03  2.09126845800E-03  2.12701577369E-03  2.16337413985E-03
  2.20035400153E-03  2.23796598235E-03  2.27622088748E-03  2.31512970683E-03
  2.35470361814E-03  2.39495399023E-03  2.43589238627E-03  2.47753056704E-03
  2.51988049441E-03  2.56295433469E-03  2.60676446214E-03  2.65132346259E-03
  2.69664413696E-03  2.74273950501E-03  2.78962280904E-03  2.83730751772E-03
  2.88580732995E-03  2.93513617879E-03  2.98530823545E-03  3.03633791340E-03
  3.08823987247E-03  3.14102902310E-03  3.19472053059E-03  3.24932981947E-03
  3.30487257792E-03  3.36136476231E-03  3.41882260176E-03  3.47726260278E-03
  3.53670155406E-03  3.59715653126E-03  3.65864490192E-03  3.72118433047E-03
  3.78479278326E-03  3.84948853378E-03  3.91529016787E-03  3.98221658906E-03
  4.05028702401E-03  4.11952102805E-03  4.18993849076E-03  4.26155964173E-03
  4.33440505631E-03  4.40849566160E-03  4.48385274238E-03  4.56049794728E-03
  4.63845329500E-03  4.71774118059E-03  4.79838438193E-03  4.88040606624E-03
  4.96382979679E-03  5.04867953957E-03  5.13497967030E-03  5.22275498131E-03
  5.31203068877E-03  5.40283243985E-03  5.49518632015E-03  5.58911886113E-03
  5.68465704781E-03  5.78182832646E-03  5.88066061250E-03  5.98118229855E-03
  6.08342226252E-03  6.18740987599E-03  6.29317501259E-03  6.40074805659E-03
  6.51015991164E-03  6.62144200967E-03  6.73462631985E-03  6.84974535785E-03
  6.96683219514E-03  7.08592046852E-03  7.20704438972E-03  7.33023875531E-03
  7.45553895665E-03  7.58298099007E-03  7.71260146718E-03  7.84443762545E-03
  7.97852733885E-03  8.11490912877E-03  8.25362217505E-03  8.39470632726E-03
  8.53820211616E-03  8.68415076531E-03  8.83259420292E-03  8.98357507393E-03
  9.13713675222E-03  9.29332335309E-03  9.45217974592E-03  9.61375156709E-03
  9.77808523305E-03  9.94522795368E-03  1.01152277459E-02  1.02881334472E-02
  1.04639947302E-02  1.06428621165E-02  1.08247869910E-02  1.10098216174E-02
  1.11980191525E-02  1.13894336618E-02  1.15841201350E-02  1.17821345018E-02
  1.19835336478E-02  1.21883754311E-02  1.23967186988E-02  1.26086233039E-02
  1.28241501226E-02  1.30433610713E-02  1.32663191254E-02  1.34930883362E-02
  1.37237338501E-02  1.39583219273E-02  1.41969199602E-02  1.44395964935E-02
  1.46864212435E-02  1.49374651181E-02  1.51928002373E-02  1.54524999541E-02
  1.57166388751E-02  1.59852928823E-02  1.62585391548E-02  1.65364561911E-02
  1.68191238311E-02  1.71066232800E-02  1.73990371308E-02  1.76964493882E-02
  1.79989454931E-02  1.83066123467E-02  1.86195383358E-02  1.89378133580E-02
  1.92615288475E-02  1.95907778015E-02  1.99256548068E-02  2.02662560672E-02
  2.06126794308E-02  2.09650244184E-02  2.13233922517E-02  2.16878858831E-02
  2.20586100243E-02  2.24356711774E-02  2.28191776647E-02  2.32092396601E-02
  2.36059692209E-02  2.40094803200E-02  2.44198888781E-02  2.48373127977E-02
  2.52618719967E-02  2.56936884427E-02  2.61328861881E-02  2.65795914061E-02
  2.70339324264E-02  2.74960397723E-02  2.79660461983E-02  2.84440867283E-02
  2.89302986940E-02  2.94248217746E-02  2.99277980372E-02  3.04393719770E-02
  3.09596905593E-02  3.14889032617E-02  3.20271621166E-02  3.25746217554E-02
  3.31314394528E-02  3.36977751715E-02  3.42737916090E-02  3.48596542436E-02
  3.54555313823E-02  3.60615942090E-02  3.66780168340E-02  3.73049763434E-02
  3.79426528507E-02  3.85912295479E-02  3.92508927586E-02  3.99218319912E-02
  4.06042399936E-02  4.12983128085E-02  4.20042498295E-02  4.27222538586E-02
  4.34525311646E-02  4.41952915419E-02  4.49507483712E-02  4.57191186808E-02