<PP_INFO>
Generated using Vanderbilt code, version   7  3  6                              
Author: kfg        Generation date:   22    9   15                              
Automatically converted from original format                                    
    1        The Pseudo was generated with a Scalar-Relativistic Calculation
  1.60000000000E+00    Local Potential cutoff radius
nl pn  l   occ               Rcut            Rcut US             E pseu
3S  3  0  2.00      0.00000000000      1.55000000000     -6.55553300800
3P  3  1  6.00      0.00000000000      1.55000000000     -4.44627847900
4S  4  0  1.60      0.00000000000      1.55000000000     -0.91154905100
3D  3  2  3.40      0.00000000000      1.70000000000     -1.23032724500
</PP_INFO>


<PP_HEADER>
   0                   Version Number
  Cr                   Element
   US                  Ultrasoft pseudopotential
    T                  Nonlinear Core Correction
SLA  PW   PSX  PSC     PBEsol  Exchange-Correlation functional
   14.00000000000      Z valence
 -173.90062681100      Total energy
    0.00000    0.00000 Suggested cutoff for wfc and rho
    2                  Max angular momentum component
  857                  Number of points in mesh
    4    6             Number of Wavefunctions, Number of Projectors
 Wavefunctions         nl  l   occ
                       3S  0  2.00
                       3P  1  6.00
                       4S  0  1.60
                       3D  2  3.40
</PP_HEADER>


<PP_MESH>
  <PP_R>
  0.00000000000E+00  1.76545037833E-06  3.56107866699E-06  5.38740071525E-06
  7.24494119008E-06  9.13423372691E-06  1.10558210829E-05  1.30102552930E-05
  1.49980978283E-05  1.70199197575E-05  1.90763019108E-05  2.11678350472E-05
  2.32951200235E-05  2.54587679677E-05  2.76594004538E-05  2.98976496811E-05
  3.21741586551E-05  3.44895813730E-05  3.68445830108E-05  3.92398401149E-05
  4.16760407963E-05  4.41538849284E-05  4.66740843478E-05  4.92373630591E-05
  5.18444574426E-05  5.44961164661E-05  5.71931018999E-05  5.99361885357E-05
  6.27261644093E-05  6.55638310267E-05  6.84500035947E-05  7.13855112547E-05
  7.43711973214E-05  7.74079195244E-05  8.04965502555E-05  8.36379768184E-05
  8.68331016841E-05  9.00828427503E-05  9.33881336046E-05  9.67499237932E-05
  1.00169179093E-04  1.03646881791E-04  1.07184030962E-04  1.10781642762E-04
  1.14440750715E-04  1.18162406012E-04  1.21947677812E-04  1.25797653551E-04
  1.29713439252E-04  1.33696159844E-04  1.37746959487E-04  1.41867001896E-04
  1.46057470680E-04  1.50319569680E-04  1.54654523314E-04  1.59063576931E-04
  1.63547997165E-04  1.68109072305E-04  1.72748112659E-04  1.77466450934E-04
  1.82265442617E-04  1.87146466364E-04  1.92110924401E-04  1.97160242919E-04
  2.02295872491E-04  2.07519288483E-04  2.12831991481E-04  2.18235507722E-04
  2.23731389533E-04  2.29321215773E-04  2.35006592291E-04  2.40789152386E-04
  2.46670557276E-04  2.52652496574E-04  2.58736688776E-04  2.64924881752E-04
  2.71218853251E-04  2.77620411409E-04  2.84131395270E-04  2.90753675313E-04
  2.97489153991E-04  3.04339766277E-04  3.11307480219E-04  3.18394297507E-04
  3.25602254045E-04  3.32933420542E-04  3.40389903098E-04  3.47973843817E-04
  3.55687421418E-04  3.63532851864E-04  3.71512388993E-04  3.79628325174E-04
  3.87882991956E-04  3.96278760747E-04  4.04818043489E-04  4.13503293351E-04
  4.22337005438E-04  4.31321717505E-04  4.40460010686E-04  4.49754510235E-04
  4.59207886282E-04  4.68822854600E-04  4.78602177382E-04  4.88548664039E-04
  4.98665172004E-04  5.08954607554E-04  5.19419926644E-04  5.30064135759E-04
  5.40890292773E-04  5.51901507833E-04  5.63100944246E-04  5.74491819395E-04
  5.86077405658E-04  5.97861031348E-04  6.09846081674E-04  6.22035999710E-04
  6.34434287381E-04  6.47044506477E-04  6.59870279669E-04  6.72915291555E-04
  6.86183289713E-04  6.99678085782E-04  7.13403556556E-04  7.27363645098E-04
  7.41562361871E-04  7.56003785891E-04  7.70692065900E-04  7.85631421557E-04
  8.00826144649E-04  8.16280600326E-04  8.31999228355E-04  8.47986544392E-04
  8.64247141285E-04  8.80785690389E-04  8.97606942908E-04  9.14715731263E-04
  9.32116970478E-04  9.49815659591E-04  9.67816883095E-04  9.86125812391E-04
  1.00474770728E-03  1.02368791748E-03  1.04295188413E-03  1.06254514141E-03
  1.08247331808E-03  1.10274213912E-03  1.12335742736E-03  1.14432510519E-03
  1.16565119620E-03  1.18734182698E-03  1.20940322882E-03  1.23184173954E-03
  1.25466380528E-03  1.27787598238E-03  1.30148493926E-03  1.32549745830E-03
  1.34992043785E-03  1.37476089414E-03  1.40002596337E-03  1.42572290370E-03
  1.45185909736E-03  1.47844205277E-03  1.50547940671E-03  1.53297892648E-03
  1.56094851216E-03  1.58939619887E-03  1.61833015909E-03  1.64775870497E-03
  1.67769029078E-03  1.70813351527E-03  1.73909712419E-03  1.77059001280E-03
  1.80262122839E-03  1.83519997291E-03  1.86833560559E-03  1.90203764567E-03
  1.93631577509E-03  1.97117984130E-03  2.00663986006E-03  2.04270601835E-03
  2.07938867729E-03  2.11669837508E-03  2.15464583009E-03  2.19324194388E-03
  2.23249780437E-03  2.27242468901E-03  2.31303406802E-03  2.35433760769E-03
  2.39634717372E-03  2.43907483466E-03  2.48253286533E-03  2.52673375039E-03
  2.57169018789E-03  2.61741509294E-03  2.66392160143E-03  2.71122307378E-03
  2.75933309879E-03  2.80826549753E-03  2.85803432733E-03  2.90865388582E-03
  2.96013871502E-03  3.01250360553E-03  3.06576360075E-03  3.11993400126E-03
  3.17503036917E-03  3.23106853259E-03  3.28806459021E-03  3.34603491589E-03
  3.40499616339E-03  3.46496527112E-03  3.52595946706E-03  3.58799627365E-03
  3.65109351287E-03  3.71526931133E-03  3.78054210551E-03  3.84693064700E-03
  3.91445400796E-03  3.98313158654E-03  4.05298311248E-03  4.12402865277E-03
  4.19628861742E-03  4.26978376531E-03  4.34453521019E-03  4.42056442669E-03
  4.49789325655E-03  4.57654391482E-03  4.65653899634E-03  4.73790148213E-03
  4.82065474607E-03  4.90482256156E-03  4.99042910839E-03  5.07749897967E-03
  5.16605718887E-03  5.25612917708E-03  5.34774082021E-03  5.44091843653E-03
  5.53568879416E-03  5.63207911880E-03  5.73011710150E-03  5.82983090670E-03
  5.93124918024E-03  6.03440105762E-03  6.13931617239E-03  6.24602466462E-03
  6.35455718961E-03  6.46494492664E-03  6.57721958797E-03  6.69141342795E-03
  6.80755925225E-03  6.92569042732E-03  7.04584088997E-03  7.16804515709E-03
  7.29233833561E-03  7.41875613255E-03  7.54733486529E-03  7.67811147203E-03
  7.81112352235E-03  7.94640922803E-03  8.08400745405E-03  8.22395772970E-03
  8.36630026000E-03  8.51107593720E-03  8.65832635255E-03  8.80809380825E-03
  8.96042132959E-03  9.11535267731E-03  9.27293236020E-03  9.43320564784E-03
  9.59621858366E-03  9.76201799811E-03  9.93065152216E-03  1.01021676010E-02
  1.02766155078E-02  1.04540453581E-02  1.06345081240E-02  1.08180556491E-02
  1.10047406630E-02  1.11946167966E-02  1.13877385978E-02  1.15841615466E-02
  1.17839420716E-02  1.19871375659E-02  1.21938064035E-02  1.24040079566E-02
  1.26178026117E-02  1.28352517882E-02  1.30564179548E-02  1.32813646484E-02
  1.35101564918E-02  1.37428592125E-02  1.39795396614E-02  1.42202658322E-02
  1.44651068810E-02  1.47141331458E-02  1.49674161671E-02  1.52250287081E-02
  1.54870447760E-02  1.57535396429E-02  1.60245898676E-02  1.63002733176E-02
  1.65806691915E-02  1.68658580415E-02  1.71559217969E-02  1.74509437873E-02
  1.77510087670E-02  1.80562029387E-02  1.83666139788E-02  1.86823310625E-02
  1.90034448891E-02  1.93300477083E-02  1.96622333470E-02  2.00000972356E-02
  2.03437364358E-02  2.06932496686E-02  2.10487373422E-02  2.14103015816E-02
  2.17780462570E-02  2.21520770144E-02  2.25325013056E-02  2.29194284191E-02
  2.33129695117E-02  2.37132376399E-02  2.41203477933E-02  2.45344169265E-02
  2.49555639937E-02  2.53839099822E-02  2.58195779476E-02  2.62626930488E-02
  2.67133825843E-02  2.71717760284E-02  2.76380050687E-02  2.81122036437E-02
  2.85945079816E-02  2.90850566391E-02  2.95839905412E-02  3.00914530221E-02
  3.06075898658E-02  3.11325493486E-02  3.16664822811E-02  3.22095420519E-02
  3.27618846715E-02  3.33236688174E-02  3.38950558793E-02  3.44762100055E-02
  3.50672981505E-02  3.56684901223E-02  3.62799586319E-02  3.69018793423E-02
  3.75344309193E-02  3.81777950827E-02  3.88321566586E-02  3.94977036323E-02
  4.01746272028E-02  4.08631218369E-02  4.15633853260E-02  4.22756188421E-02
  4.30000269961E-02  4.37368178966E-02  4.44862032092E-02  4.52483982179E-02
  4.60236218865E-02  4.68120969219E-02  4.76140498375E-02  4.84297110191E-02
  4.92593147902E-02  5.01030994799E-02  5.09613074913E-02  5.18341853710E-02
  5.27219838798E-02  5.36249580651E-02  5.45433673339E-02  5.54774755273E-02
  5.64275509967E-02  5.73938666804E-02  5.83767001820E-02  5.93763338506E-02
  6.03930548618E-02  6.14271552997E-02  6.24789322413E-02  6.35486878419E-02
  6.46367294215E-02  6.57433695535E-02  6.68689261540E-02  6.80137225738E-02
  6.91780876907E-02  7.03623560043E-02  7.15668677319E-02  7.27919689065E-02
  7.40380114759E-02  7.53053534040E-02  7.65943587736E-02  7.79053978911E-02
  7.92388473926E-02  8.05950903524E-02  8.19745163927E-02  8.33775217961E-02
  8.48045096188E-02  8.62558898067E-02  8.77320793135E-02  8.92335022196E-02
  9.07605898550E-02  9.23137809222E-02  9.38935216231E-02  9.55002657865E-02
  9.71344749991E-02  9.87966187374E-02  1.00487174503E-01  1.02206627960E-01
  1.03955473075E-01  1.05734212256E-01  1.07543356501E-01  1.09383425541E-01
  1.11254947994E-01  1.13158461512E-01  1.15094512936E-01  1.17063658458E-01
  1.19066463774E-01  1.21103504252E-01  1.23175365094E-01  1.25282641505E-01
  1.27425938866E-01  1.29605872904E-01  1.31823069872E-01  1.34078166727E-01
  1.36371811317E-01  1.38704662559E-01  1.41077390638E-01  1.43490677192E-01
  1.45945215511E-01  1.48441710738E-01  1.50980880066E-01  1.53563452950E-01
  1.56190171313E-01  1.58861789761E-01  1.61579075798E-01  1.64342810047E-01
  1.67153786476E-01  1.70012812624E-01  1.72920709834E-01  1.75878313489E-01
  1.78886473250E-01  1.81946053304E-01  1.85057932609E-01  1.88223005148E-01
  1.91442180185E-01  1.94716382526E-01  1.98046552787E-01  2.01433647661E-01
  2.04878640195E-01  2.08382520068E-01  2.11946293877E-01  2.15570985426E-01
  2.19257636019E-01  2.23007304758E-01  2.26821068851E-01  2.30700023919E-01
  2.34645284310E-01  2.38657983422E-01  2.42739274024E-01  2.46890328594E-01
  2.51112339648E-01  2.55406520089E-01  2.59774103552E-01  2.64216344758E-01
  2.68734519878E-01  2.73329926896E-01  2.78003885984E-01  2.82757739879E-01
  2.87592854272E-01  2.92510618198E-01  2.97512444435E-01  3.02599769910E-01
  3.07774056115E-01  3.13036789521E-01  3.18389482010E-01  3.23833671306E-01
  3.29370921421E-01  3.35002823099E-01  3.40730994275E-01  3.46557080544E-01
  3.52482755626E-01  3.58509721855E-01  3.64639710659E-01  3.70874483067E-01
  3.77215830208E-01  3.83665573828E-01  3.90225566814E-01  3.96897693725E-01
  4.03683871334E-01  4.10586049178E-01  4.17606210120E-01  4.24746370915E-01
  4.32008582795E-01  4.39394932051E-01  4.46907540639E-01  4.54548566787E-01
  4.62320205612E-01  4.70224689757E-01  4.78264290027E-01  4.86441316043E-01
  4.94758116907E-01  5.03217081875E-01  5.11820641043E-01  5.20571266049E-01
  5.29471470776E-01  5.38523812081E-01  5.47730890528E-01  5.57095351131E-01
  5.66619884120E-01  5.76307225707E-01  5.86160158878E-01  5.96181514192E-01
  6.06374170588E-01  6.16741056221E-01  6.27285149295E-01  6.38009478925E-01
  6.48917126003E-01  6.60011224085E-01  6.71294960290E-01  6.82771576218E-01
  6.94444368879E-01  7.06316691639E-01  7.18391955188E-01  7.30673628515E-01
  7.43165239907E-01  7.55870377962E-01  7.68792692620E-01  7.81935896214E-01
  7.95303764529E-01  8.08900137898E-01  8.22728922293E-01  8.36794090459E-01
  8.51099683044E-01  8.65649809770E-01  8.80448650606E-01  8.95500456972E-01
  9.10809552962E-01  9.26380336582E-01  9.42217281017E-01  9.58324935916E-01
  9.74707928694E-01  9.91370965870E-01  1.00831883441E+00  1.02555640311E+00
  1.04308862399E+00  1.06092053372E+00  1.07905725506E+00  1.09750399834E+00
  1.11626606295E+00  1.13534883887E+00  1.15475780821E+00  1.17449854680E+00
  1.19457672576E+00  1.21499811317E+00  1.23576857570E+00  1.25689408030E+00
  1.27838069591E+00  1.30023459523E+00  1.32246205646E+00  1.34506946512E+00
  1.36806331588E+00  1.39145021443E+00  1.41523687937E+00  1.43943014415E+00
  1.46403695902E+00  1.48906439306E+00  1.51451963615E+00  1.54041000110E+00
  1.56674292570E+00  1.59352597490E+00  1.62076684294E+00  1.64847335561E+00
  1.67665347244E+00  1.70531528904E+00  1.73446703940E+00  1.76411709824E+00
  1.79427398346E+00  1.82494635854E+00  1.85614303507E+00  1.88787297525E+00
  1.92014529447E+00  1.95296926395E+00  1.98635431338E+00  2.02031003363E+00
  2.05484617953E+00  2.08997267265E+00  2.12569960415E+00  2.16203723768E+00
  2.19899601234E+00  2.23658654567E+00  2.27481963671E+00  2.31370626908E+00
  2.35325761416E+00  2.39348503428E+00  2.43440008602E+00  2.47601452345E+00
  2.51834030162E+00  2.56138957990E+00  2.60517472551E+00  2.64970831708E+00
  2.69500314824E+00  2.74107223132E+00  2.78792880109E+00  2.83558631852E+00
  2.88405847471E+00  2.93335919475E+00  2.98350264180E+00  3.03450322110E+00
  3.08637558412E+00  3.13913463279E+00  3.19279552377E+00  3.24737367279E+00
  3.30288475910E+00  3.35934472995E+00  3.41676980522E+00  3.47517648200E+00
  3.53458153940E+00  3.59500204336E+00  3.65645535151E+00  3.71895911819E+00
  3.78253129954E+00  3.84719015860E+00  3.91295427062E+00  3.97984252836E+00
  4.04787414751E+00  4.11706867224E+00  4.18744598081E+00  4.25902629125E+00
  4.33183016719E+00  4.40587852379E+00  4.48119263370E+00  4.55779413321E+00
  4.63570502845E+00  4.71494770171E+00  4.79554491787E+00  4.87751983096E+00
  4.96089599079E+00  5.04569734971E+00  5.13194826951E+00  5.21967352841E+00
  5.30889832818E+00  5.39964830138E+00  5.49194951872E+00  5.58582849656E+00
  5.68131220450E+00  5.77842807317E+00  5.87720400208E+00  5.97766836764E+00
  6.07985003132E+00  6.18377834793E+00  6.28948317408E+00  6.39699487670E+00
  6.50634434183E+00  6.61756298347E+00  6.73068275256E+00  6.84573614623E+00
  6.96275621710E+00  7.08177658276E+00  7.20283143547E+00  7.32595555194E+00
  7.45118430335E+00  7.57855366549E+00  7.70810022912E+00  7.83986121046E+00
  7.97387446189E+00  8.11017848282E+00  8.24881243076E+00  8.38981613256E+00
  8.53323009585E+00  8.67909552070E+00  8.82745431141E+00  8.97834908860E+00
  9.13182320142E+00  9.28792074000E+00  9.44668654815E+00  9.60816623622E+00
  9.77240619419E+00  9.93945360503E+00  1.01093564582E+01  1.02821635636E+01
  1.04579245652E+01  1.06366899559E+01  1.08185110914E+01  1.10034402055E+01
  1.11915304247E+01  1.13828357837E+01  1.15774112409E+01  1.17753126939E+01
  1.19765969961E+01  1.21813219725E+01  1.23895464366E+01  1.26013302074E+01
  1.28167341261E+01  1.30358200743E+01  1.32586509909E+01  1.34852908911E+01
  1.37158048841E+01  1.39502591921E+01  1.41887211692E+01  1.44312593211E+01
  1.46779433242E+01  1.49288440460E+01  1.51840335655E+01  1.54435851937E+01
  1.57075734948E+01  1.59760743074E+01  1.62491647668E+01  1.65269233263E+01
  1.68094297809E+01  1.70967652889E+01  1.73890123965E+01  1.76862550606E+01
  1.79885786731E+01  1.82960700859E+01  1.86088176352E+01  1.89269111674E+01
  1.92504420646E+01  1.95795032710E+01  1.99141893194E+01  2.02545963588E+01
  2.06008221814E+01  2.09529662512E+01  2.13111297325E+01  2.16754155186E+01
  2.20459282619E+01  2.24227744033E+01  2.28060622037E+01  2.31959017741E+01
  2.35924051078E+01  2.39956861127E+01  2.44058606436E+01  2.48230465356E+01
  2.52473636382E+01  2.56789338494E+01  2.61178811512E+01  2.65643316444E+01
  2.70184135858E+01  2.74802574242E+01  2.79499958385E+01  2.84277637755E+01
  2.89136984885E+01  2.94079395772E+01  2.99106290276E+01  3.04219112526E+01
  3.09419331337E+01  3.14708440631E+01  3.20087959867E+01  3.25559434476E+01
  3.31124436308E+01  3.36784564079E+01  3.42541443836E+01  3.48396729417E+01
  3.54352102934E+01  3.60409275249E+01  3.66569986472E+01  3.72836006455E+01
  3.79209135305E+01  3.85691203898E+01  3.92284074408E+01  3.98989640837E+01
  4.05809829566E+01  4.12746599904E+01  4.19801944649E+01  4.26977890666E+01
  4.34276499465E+01  4.41699867796E+01  4.49250128248E+01  4.56929449865E+01
  4.64740038768E+01  4.72684138788E+01  4.80764032111E+01  4.88982039933E+01
  4.97340523130E+01  5.05841882933E+01  5.14488561616E+01  5.23283043204E+01
  5.32227854181E+01  5.41325564219E+01  5.50578786912E+01  5.59990180534E+01
  5.69562448795E+01  5.79298341622E+01  5.89200655950E+01  5.99272236522E+01
  6.09515976707E+01  6.19934819335E+01  6.30531757536E+01  6.41309835607E+01
  6.52272149881E+01  6.63421849617E+01  6.74762137911E+01  6.86296272605E+01
  6.98027567236E+01  7.09959391975E+01  7.22095174607E+01  7.34438401505E+01
  7.46992618641E+01  7.59761432599E+01  7.72748511610E+01  7.85957586612E+01
  7.99392452317E+01  8.13056968301E+01  8.26955060115E+01  8.41090720412E+01
  8.55468010095E+01  8.70091059479E+01  8.84964069484E+01  9.00091312839E+01
  9.15477135307E+01  9.31125956937E+01  9.47042273333E+01  9.63230656945E+01
  9.79695758383E+01  9.96442307750E+01  1.01347511601E+02  1.03079907635E+02
  1.04841916562E+02  1.06634044572E+02  1.08456806510E+02  1.10310726018E+02
  1.12196335694E+02  1.14114177235E+02  1.16064801601E+02  1.18048769169E+02
  1.20066649893E+02  1.22119023471E+02  1.24206479512E+02  1.26329617701E+02
  1.28489047973E+02  1.30685390693E+02  1.32919276826E+02  1.35191348125E+02
  1.37502257311E+02  1.39852668266E+02  1.42243256215E+02  1.44674707929E+02
  1.47147721916E+02  1.49663008626E+02  1.52221290652E+02  1.54823302940E+02
  1.57469792995E+02  1.60161521105E+02  1.62899260550E+02  1.65683797830E+02
  1.68515932889E+02  1.71396479344E+02  1.74326264721E+02  1.77306130689E+02
  1.80336933308E+02  1.83419543268E+02  1.86554846143E+02  1.89743742644E+02
  1.92987148882E+02  1.96285996622E+02  1.99641233560E+02  2.03053823591E+02
  2.06524747086E+02
  </PP_R>
  <PP_RAB>
  1.75053119821E-06  1.78045408598E-06  1.81088846375E-06  1.84184307474E-06
  1.87332681160E-06  1.90534871901E-06  1.93791799623E-06  1.97104399979E-06
  2.00473624615E-06  2.03900441444E-06  2.07385834924E-06  2.10930806342E-06
  2.14536374098E-06  2.18203574004E-06  2.21933459573E-06  2.25727102331E-06
  2.29585592118E-06  2.33510037402E-06  2.37501565602E-06  2.41561323406E-06
  2.45690477103E-06  2.49890212920E-06  2.54161737360E-06  2.58506277548E-06
  2.62925081588E-06  2.67419418916E-06  2.71990580668E-06  2.76639880051E-06
  2.81368652718E-06  2.86178257154E-06  2.91070075066E-06  2.96045511778E-06
  3.01105996637E-06  3.06252983422E-06  3.11487950763E-06  3.16812402564E-06
  3.22227868438E-06  3.27735904144E-06  3.33338092032E-06  3.39036041504E-06
  3.44831389471E-06  3.50725800822E-06  3.56720968910E-06  3.62818616028E-06
  3.69020493915E-06  3.75328384248E-06  3.81744099164E-06  3.88269481772E-06
  3.94906406688E-06  4.01656780574E-06  4.08522542680E-06  4.15505665408E-06
  4.22608154873E-06  4.29832051482E-06  4.37179430523E-06  4.44652402754E-06
  4.52253115017E-06  4.59983750847E-06  4.67846531108E-06  4.75843714625E-06
  4.83977598832E-06  4.92250520439E-06  5.00664856094E-06  5.09223023074E-06
  5.17927479975E-06  5.26780727419E-06  5.35785308772E-06  5.44943810876E-06
  5.54258864792E-06  5.63733146554E-06  5.73369377941E-06  5.83170327255E-06
  5.93138810119E-06  6.03277690285E-06  6.13589880458E-06  6.24078343130E-06
  6.34746091434E-06  6.45596190007E-06  6.56631755872E-06  6.67855959334E-06
  6.79272024890E-06  6.90883232155E-06  7.02692916802E-06  7.14704471527E-06
  7.26921347017E-06  7.39347052943E-06  7.51985158970E-06  7.64839295782E-06
  7.77913156123E-06  7.91210495861E-06  8.04735135064E-06  8.18490959098E-06
  8.32481919747E-06  8.46712036342E-06  8.61185396920E-06  8.75906159399E-06
  8.90878552767E-06  9.06106878304E-06  9.21595510814E-06  9.37348899880E-06
  9.53371571147E-06  9.69668127617E-06  9.86243250977E-06  1.00310170294E-05
  1.02024832661E-05  1.03768804788E-05  1.05542587685E-05  1.07346690924E-05
  1.09181632791E-05  1.11047940428E-05  1.12946149990E-05  1.14876806795E-05
  1.16840465483E-05  1.18837690177E-05  1.20869054639E-05  1.22935142441E-05
  1.25036547131E-05  1.27173872402E-05  1.29347732265E-05  1.31558751229E-05
  1.33807564476E-05  1.36094818047E-05  1.38421169026E-05  1.40787285728E-05
  1.43193847892E-05  1.45641546879E-05  1.48131085863E-05  1.50663180043E-05
  1.53238556838E-05  1.55857956105E-05  1.58522130347E-05  1.61231844930E-05
  1.63987878302E-05  1.66791022218E-05  1.69642081967E-05  1.72541876603E-05
  1.75491239182E-05  1.78491016998E-05  1.81542071829E-05  1.84645280184E-05
  1.87801533555E-05  1.91011738673E-05  1.94276817767E-05  1.97597708831E-05
  2.00975365894E-05  2.04410759290E-05  2.07904875942E-05  2.11458719641E-05
  2.15073311338E-05  2.18749689437E-05  2.22488910087E-05  2.26292047497E-05
  2.30160194233E-05  2.34094461538E-05  2.38095979653E-05  2.42165898135E-05
  2.46305386194E-05  2.50515633024E-05  2.54797848147E-05  2.59153261762E-05
  2.63583125094E-05  2.68088710757E-05  2.72671313119E-05  2.77332248673E-05
  2.82072856416E-05  2.86894498231E-05  2.91798559285E-05  2.96786448418E-05
  3.01859598554E-05  3.07019467112E-05  3.12267536422E-05  3.17605314152E-05
  3.23034333743E-05  3.28556154848E-05  3.34172363777E-05  3.39884573961E-05
  3.45694426405E-05  3.51603590169E-05  3.57613762840E-05  3.63726671025E-05
  3.69944070844E-05  3.76267748436E-05  3.82699520471E-05  3.89241234673E-05
  3.95894770350E-05  4.02662038933E-05  4.09544984528E-05  4.16545584472E-05
  4.23665849901E-05  4.30907826332E-05  4.38273594242E-05  4.45765269675E-05
  4.53385004844E-05  4.61134988752E-05  4.69017447818E-05  4.77034646521E-05
  4.85188888048E-05  4.93482514953E-05  5.01917909835E-05  5.10497496020E-05
  5.19223738257E-05  5.28099143427E-05  5.37126261262E-05  5.46307685077E-05
  5.55646052519E-05  5.65144046320E-05  5.74804395069E-05  5.84629873998E-05
  5.94623305777E-05  6.04787561324E-05  6.15125560636E-05  6.25640273617E-05
  6.36334720942E-05  6.47211974920E-05  6.58275160373E-05  6.69527455542E-05
  6.80972092993E-05  6.92612360549E-05  7.04451602233E-05  7.16493219231E-05
  7.28740670866E-05  7.41197475594E-05  7.53867212014E-05  7.66753519896E-05
  7.79860101227E-05  7.93190721274E-05  8.06749209667E-05  8.20539461496E-05
  8.34565438434E-05  8.48831169873E-05  8.63340754082E-05  8.78098359383E-05
  8.93108225351E-05  9.08374664029E-05  9.23902061171E-05  9.39694877496E-05
  9.55757649976E-05  9.72094993134E-05  9.88711600373E-05  1.00561224532E-04
  1.02280178321E-04  1.04028515226E-04  1.05806737510E-04  1.07615356022E-04
  1.09454890344E-04  1.11325868938E-04  1.13228829299E-04  1.15164318113E-04
  1.17132891406E-04  1.19135114712E-04  1.21171563232E-04  1.23242821996E-04
  1.25349486039E-04  1.27492160563E-04  1.29671461118E-04  1.31888013775E-04
  1.34142455306E-04  1.36435433368E-04  1.38767606691E-04  1.41139645261E-04
  1.43552230520E-04  1.46006055558E-04  1.48501825309E-04  1.51040256762E-04
  1.53622079157E-04  1.56248034203E-04  1.58918876286E-04  1.61635372687E-04
  1.64398303803E-04  1.67208463370E-04  1.70066658693E-04  1.72973710876E-04
  1.75930455059E-04  1.78937740657E-04  1.81996431605E-04  1.85107406607E-04
  1.88271559385E-04  1.91489798938E-04  1.94763049805E-04  1.98092252327E-04
  2.01478362921E-04  2.04922354349E-04  2.08425216004E-04  2.11987954191E-04
  2.15611592414E-04  2.19297171676E-04  2.23045750772E-04  2.26858406596E-04
  2.30736234450E-04  2.34680348359E-04  2.38691881391E-04  2.42771985982E-04
  2.46921834266E-04  2.51142618416E-04  2.55435550979E-04  2.59801865234E-04
  2.64242815537E-04  2.68759677688E-04  2.73353749293E-04  2.78026350141E-04
  2.82778822580E-04  2.87612531902E-04  2.92528866739E-04  2.97529239458E-04
  3.02615086571E-04  3.07787869142E-04  3.13049073212E-04  3.18400210223E-04
  3.23842817453E-04  3.29378458458E-04  3.35008723521E-04  3.40735230107E-04
  3.46559623330E-04  3.52483576428E-04  3.58508791236E-04  3.64636998683E-04
  3.70869959283E-04  3.77209463646E-04  3.83657332988E-04  3.90215419658E-04
  3.96885607667E-04  4.03669813231E-04  4.10569985321E-04  4.17588106223E-04
  4.24726192108E-04  4.31986293608E-04  4.39370496411E-04  4.46880921856E-04
  4.54519727542E-04  4.62289107951E-04  4.70191295074E-04  4.78228559058E-04
  4.86403208853E-04  4.94717592877E-04  5.03174099693E-04  5.11775158691E-04
  5.20523240788E-04  5.29420859140E-04  5.38470569860E-04  5.47674972755E-04
  5.57036712072E-04  5.66558477257E-04  5.76243003729E-04  5.86093073665E-04
  5.96111516800E-04  6.06301211238E-04  6.16665084282E-04  6.27206113272E-04
  6.37927326441E-04  6.48831803786E-04  6.59922677953E-04  6.71203135136E-04
  6.82676415991E-04  6.94345816570E-04  7.06214689266E-04  7.18286443776E-04
  7.30564548082E-04  7.43052529445E-04  7.55753975422E-04  7.68672534891E-04
  7.81811919106E-04  7.95175902755E-04  8.08768325055E-04  8.22593090844E-04
  8.36654171709E-04  8.50955607129E-04  8.65501505628E-04  8.80296045961E-04
  8.95343478313E-04  9.10648125521E-04  9.26214384314E-04  9.42046726577E-04
  9.58149700635E-04  9.74527932560E-04  9.91186127503E-04  1.00812907104E-03
  1.02536163055E-03  1.04288875662E-03  1.06071548444E-03  1.07884693530E-03
  1.09728831800E-03  1.11604493041E-03  1.13512216093E-03  1.15452549008E-03
  1.17426049206E-03  1.19433283636E-03  1.21474828937E-03  1.23551271605E-03
  1.25663208164E-03  1.27811245330E-03  1.29996000194E-03  1.32218100393E-03
  1.34478184294E-03  1.36776901175E-03  1.39114911413E-03  1.41492886672E-03
  1.43911510101E-03  1.46371476521E-03  1.48873492634E-03  1.51418277221E-03
  1.54006561349E-03  1.56639088581E-03  1.59316615193E-03  1.62039910385E-03
  1.64809756508E-03  1.67626949285E-03  1.70492298040E-03  1.73406625934E-03
  1.76370770196E-03  1.79385582367E-03  1.82451928544E-03  1.85570689631E-03
  1.88742761585E-03  1.91969055682E-03  1.95250498774E-03  1.98588033557E-03
  2.01982618838E-03  2.05435229818E-03  2.08946858363E-03  2.12518513298E-03
  2.16151220689E-03  2.19846024143E-03  2.23603985106E-03  2.27426183166E-03
  2.31313716368E-03  2.35267701525E-03  2.39289274540E-03  2.43379590733E-03
  2.47539825173E-03  2.51771173014E-03  2.56074849841E-03  2.60452092018E-03
  2.64904157040E-03  2.69432323901E-03  2.74037893455E-03  2.78722188792E-03
  2.83486555621E-03  2.88332362652E-03  2.93261001991E-03  2.98273889541E-03
  3.03372465408E-03  3.08558194313E-03  3.13832566017E-03  3.19197095744E-03
  3.24653324620E-03  3.30202820114E-03  3.35847176488E-03  3.41588015257E-03
  3.47426985653E-03  3.53365765099E-03  3.59406059691E-03  3.65549604690E-03
  3.71798165016E-03  3.78153535760E-03  3.84617542698E-03  3.91192042813E-03
  3.97878924832E-03  4.04680109767E-03  4.11597551466E-03  4.18633237177E-03
  4.25789188117E-03  4.33067460050E-03  4.40470143885E-03  4.47999366269E-03
  4.55657290201E-03  4.63446115656E-03  4.71368080211E-03  4.79425459695E-03
  4.87620568835E-03  4.95955761930E-03  5.04433433517E-03  5.13056019069E-03
  5.21825995687E-03  5.30745882816E-03  5.39818242967E-03  5.49045682452E-03
  5.58430852138E-03  5.67976448202E-03  5.77685212908E-03  5.87559935398E-03
  5.97603452487E-03  6.07818649484E-03  6.18208461017E-03  6.28775871877E-03
  6.39523917879E-03  6.50455686727E-03  6.61574318907E-03  6.72883008586E-03
  6.84385004534E-03  6.96083611049E-03  7.07982188916E-03  7.20084156366E-03
  7.32392990060E-03  7.44912226088E-03  7.57645460983E-03  7.70596352758E-03
  7.83768621954E-03  7.97166052708E-03  8.10792493843E-03  8.24651859973E-03
  8.38748132623E-03  8.53085361382E-03  8.67667665058E-03  8.82499232863E-03
  8.97584325621E-03  9.12927276987E-03  9.28532494693E-03  9.44404461817E-03
  9.60547738068E-03  9.76966961097E-03  9.93666847829E-03  1.01065219582E-02
  1.02792788463E-02  1.04549887722E-02  1.06337022142E-02  1.08154705130E-02
  1.10003458872E-02  1.11883814479E-02  1.13796312141E-02  1.15741501281E-02
  1.17719940715E-02  1.19732198810E-02  1.21778853649E-02  1.23860493196E-02
  1.25977715466E-02  1.28131128695E-02  1.30321351519E-02  1.32549013145E-02
  1.34814753537E-02  1.37119223600E-02  1.39463085362E-02  1.41847012169E-02
  1.44271688879E-02  1.46737812053E-02  1.49246090160E-02  1.51797243782E-02
  1.54392005814E-02  1.57031121682E-02  1.59715349552E-02  1.62445460552E-02
  1.65222238989E-02  1.68046482578E-02  1.70919002670E-02  1.73840624484E-02
  1.76812187345E-02  1.79834544926E-02  1.82908565492E-02  1.86035132149E-02
  1.89215143100E-02  1.92449511900E-02  1.95739167721E-02  1.99085055617E-02
  2.02488136797E-02  2.05949388900E-02  2.09469806278E-02  2.13050400277E-02
  2.16692199534E-02  2.20396250267E-02  2.24163616577E-02  2.27995380756E-02
  2.31892643597E-02  2.35856524707E-02  2.39888162832E-02  2.43988716185E-02
  2.48159362774E-02  2.52401300746E-02  2.56715748727E-02  2.61103946176E-02
  2.65567153736E-02  2.70106653600E-02  2.74723749878E-02  2.79419768974E-02
  2.84196059963E-02  2.89053994980E-02  2.93994969617E-02  2.99020403319E-02
  3.04131739797E-02  3.09330447438E-02  3.14618019731E-02  3.19995975693E-02
  3.25465860307E-02  3.31029244964E-02  3.36687727918E-02  3.42442934741E-02
  3.48296518792E-02  3.54250161694E-02  3.60305573812E-02  3.66464494749E-02
  3.72728693844E-02  3.79099970680E-02  3.85580155601E-02  3.92171110240E-02
  3.98874728051E-02  4.05692934852E-02  4.12627689382E-02  4.19680983864E-02
  4.26854844570E-02  4.34151332414E-02  4.41572543534E-02  4.49120609901E-02
  4.56797699928E-02  4.64606019096E-02  4.72547810582E-02  4.80625355909E-02
  4.88840975601E-02  4.97197029846E-02  5.05695919177E-02  5.14340085159E-02
  5.23132011095E-02  5.32074222734E-02  5.41169289002E-02  5.50419822734E-02
  5.59828481430E-02  5.69397968016E-02  5.79131031620E-02  5.89030468362E-02
  5.99099122160E-02  6.09339885542E-02  6.19755700483E-02  6.30349559243E-02