<PP_INFO>
Generated using Vanderbilt code, version   7  3  6                              
Author: kfg        Generation date:   22    9   15                              
Automatically converted from original format                                    
    0        The Pseudo was generated with a Non-Relativistic Calculation
  1.40000000000E+00    Local Potential cutoff radius
nl pn  l   occ               Rcut            Rcut US             E pseu
1S  1  0  2.00      0.00000000000      1.30000000000     -4.02898406800
2S  2  0  0.55      0.00000000000      1.30000000000     -0.36774990000
2P  2  1  0.00      0.00000000000      2.00100000000     -0.22337158300
</PP_INFO>


<PP_HEADER>
   0                   Version Number
  Li                   Element
   US                  Ultrasoft pseudopotential
    F                  Nonlinear Core Correction
SLA  PW   PSX  PSC     PBEsol  Exchange-Correlation functional
    3.00000000000      Z valence
  -14.09644892770      Total energy
    0.00000    0.00000 Suggested cutoff for wfc and rho
    1                  Max angular momentum component
  751                  Number of points in mesh
    3    5             Number of Wavefunctions, Number of Projectors
 Wavefunctions         nl  l   occ
                       1S  0  2.00
                       2S  0  0.55
                       2P  1  0.00
</PP_HEADER>


<PP_MESH>
  <PP_R>
  0.00000000000E+00  5.10846319546E-06  1.03027809112E-05  1.55843960465E-05
  2.09547757508E-05  2.64154118307E-05  3.19678211647E-05  3.76135461243E-05
  4.33541550030E-05  4.91912424510E-05  5.51264299192E-05  6.11613661089E-05
  6.72977274301E-05  7.35372184670E-05  7.98815724517E-05  8.63325517456E-05
  9.28919483287E-05  9.95615842980E-05  1.06343312373E-04  1.13239016411E-04
  1.20250611928E-04  1.27380046637E-04  1.34629300981E-04  1.42000388688E-04
  1.49495357331E-04  1.57116288893E-04  1.64865300349E-04  1.72744544251E-04
  1.80756209330E-04  1.88902521099E-04  1.97185742474E-04  2.05608174405E-04
  2.14172156510E-04  2.22880067727E-04  2.31734326977E-04  2.40737393834E-04
  2.49891769206E-04  2.59199996036E-04  2.68664660001E-04  2.78288390236E-04
  2.88073860060E-04  2.98023787723E-04  3.08140937158E-04  3.18428118749E-04
  3.28888190112E-04  3.39524056891E-04  3.50338673561E-04  3.61335044251E-04
  3.72516223580E-04  3.83885317504E-04  3.95445484175E-04  4.07199934828E-04
  4.19151934661E-04  4.31304803753E-04  4.43661917977E-04  4.56226709946E-04
  4.69002669960E-04  4.81993346979E-04  4.95202349607E-04  5.08633347098E-04
  5.22290070371E-04  5.36176313046E-04  5.50295932504E-04  5.64652850951E-04
  5.79251056513E-04  5.94094604341E-04  6.09187617738E-04  6.24534289304E-04
  6.40138882103E-04  6.56005730845E-04  6.72139243088E-04  6.88543900468E-04
  7.05224259940E-04  7.22184955045E-04  7.39430697195E-04  7.56966276985E-04
  7.74796565523E-04  7.92926515781E-04  8.11361163972E-04  8.30105630952E-04
  8.49165123637E-04  8.68544936453E-04  8.88250452805E-04  9.08287146576E-04
  9.28660583643E-04  9.49376423424E-04  9.70440420452E-04  9.91858425974E-04
  1.01363638957E-03  1.03578036082E-03  1.05829649097E-03  1.08119103464E-03
  1.10447035157E-03  1.12814090840E-03  1.15220928042E-03  1.17668215346E-03
  1.20156632569E-03  1.22686870953E-03  1.25259633360E-03  1.27875634462E-03
  1.30535600943E-03  1.33240271699E-03  1.35990398045E-03  1.38786743924E-03
  1.41630086115E-03  1.44521214454E-03  1.47460932052E-03  1.50450055514E-03
  1.53489415174E-03  1.56579855315E-03  1.59722234415E-03  1.62917425376E-03
  1.66166315772E-03  1.69469808094E-03  1.72828819999E-03  1.76244284567E-03
  1.79717150562E-03  1.83248382690E-03  1.86838961872E-03  1.90489885514E-03
  1.94202167784E-03  1.97976839897E-03  2.01814950397E-03  2.05717565450E-03
  2.09685769141E-03  2.13720663774E-03  2.17823370179E-03  2.21995028024E-03
  2.26236796128E-03  2.30549852789E-03  2.34935396105E-03  2.39394644311E-03
  2.43928836116E-03  2.48539231046E-03  2.53227109796E-03  2.57993774586E-03
  2.62840549518E-03  2.67768780952E-03  2.72779837871E-03  2.77875112269E-03
  2.83056019531E-03  2.88323998833E-03  2.93680513535E-03  2.99127051593E-03
  3.04665125969E-03  3.10296275053E-03  3.16022063089E-03  3.21844080610E-03
  3.27763944881E-03  3.33783300347E-03  3.39903819090E-03  3.46127201292E-03
  3.52455175712E-03  3.58889500161E-03  3.65431961993E-03  3.72084378599E-03
  3.78848597917E-03  3.85726498940E-03  3.92719992239E-03  3.99831020498E-03
  4.07061559046E-03  4.14413616415E-03  4.21889234888E-03  4.29490491076E-03
  4.37219496486E-03  4.45078398115E-03  4.53069379041E-03  4.61194659032E-03
  4.69456495164E-03  4.77857182443E-03  4.86399054448E-03  4.95084483977E-03
  5.03915883703E-03  5.12895706851E-03  5.22026447874E-03  5.31310643146E-03
  5.40750871672E-03  5.50349755798E-03  5.60109961941E-03  5.70034201334E-03
  5.80125230773E-03  5.90385853386E-03  6.00818919413E-03  6.11427326994E-03
  6.22214022979E-03  6.33182003739E-03  6.44334316008E-03  6.55674057722E-03
  6.67204378881E-03  6.78928482427E-03  6.90849625131E-03  7.02971118498E-03
  7.15296329687E-03  7.27828682447E-03  7.40571658069E-03  7.53528796348E-03
  7.66703696575E-03  7.80100018528E-03  7.93721483493E-03  8.07571875299E-03
  8.21655041365E-03  8.35974893773E-03  8.50535410352E-03  8.65340635783E-03
  8.80394682725E-03  8.95701732952E-03  9.11266038523E-03  9.27091922956E-03
  9.43183782431E-03  9.59546087013E-03  9.76183381892E-03  9.93100288645E-03
  1.01030150652E-02  1.02779181375E-02  1.04557606886E-02  1.06365921204E-02
  1.08204626649E-02  1.10074233986E-02  1.11975262561E-02  1.13908240451E-02
  1.15873704606E-02  1.17872201000E-02  1.19904284786E-02  1.21970520442E-02
  1.24071481938E-02  1.26207752887E-02  1.28379926712E-02  1.30588606807E-02
  1.32834406709E-02  1.35117950267E-02  1.37439871812E-02  1.39800816338E-02
  1.42201439678E-02  1.44642408686E-02  1.47124401427E-02  1.49648107357E-02
  1.52214227523E-02  1.54823474752E-02  1.57476573852E-02  1.60174261812E-02
  1.62917288008E-02  1.65706414408E-02  1.68542415787E-02  1.71426079943E-02
  1.74358207911E-02  1.77339614191E-02  1.80371126970E-02  1.83453588353E-02
  1.86587854602E-02  1.89774796364E-02  1.93015298923E-02  1.96310262438E-02
  1.99660602199E-02  2.03067248877E-02  2.06531148784E-02  2.10053264137E-02
  2.13634573325E-02  2.17276071178E-02  2.20978769247E-02  2.24743696084E-02
  2.28571897524E-02  2.32464436983E-02  2.36422395746E-02  2.40446873271E-02
  2.44538987496E-02  2.48699875144E-02  2.52930692045E-02  2.57232613452E-02
  2.61606834372E-02  2.66054569893E-02  2.70577055528E-02  2.75175547550E-02
  2.79851323348E-02  2.84605681779E-02  2.89439943529E-02  2.94355451479E-02
  2.99353571080E-02  3.04435690729E-02  3.09603222161E-02  3.14857600833E-02
  3.20200286330E-02  3.25632762763E-02  3.31156539191E-02  3.36773150030E-02
  3.42484155487E-02  3.48291141988E-02  3.54195722623E-02  3.60199537590E-02
  3.66304254656E-02  3.72511569614E-02  3.78823206757E-02  3.85240919360E-02
  3.91766490161E-02  3.98401731861E-02  4.05148487625E-02  4.12008631595E-02
  4.18984069412E-02  4.26076738741E-02  4.33288609814E-02  4.40621685975E-02
  4.48078004237E-02  4.55659635847E-02  4.63368686863E-02  4.71207298737E-02
  4.79177648911E-02  4.87281951425E-02  4.95522457524E-02  5.03901456291E-02
  5.12421275279E-02  5.21084281160E-02  5.29892880380E-02  5.38849519829E-02
  5.47956687520E-02  5.57216913280E-02  5.66632769453E-02  5.76206871616E-02
  5.85941879303E-02  5.95840496746E-02  6.05905473624E-02  6.16139605828E-02
  6.26545736240E-02  6.37126755517E-02  6.47885602900E-02  6.58825267027E-02
  6.69948786764E-02  6.81259252048E-02  6.92759804748E-02  7.04453639537E-02
  7.16344004777E-02  7.28434203424E-02  7.40727593943E-02  7.53227591245E-02
  7.65937667631E-02  7.78861353761E-02  7.92002239629E-02  8.05363975567E-02
  8.18950273254E-02  8.32764906748E-02  8.46811713537E-02  8.61094595601E-02
  8.75617520501E-02  8.90384522474E-02  9.05399703562E-02  9.20667234743E-02
  9.36191357098E-02  9.51976382982E-02  9.68026697226E-02  9.84346758355E-02
  1.00094109982E-01  1.01781433127E-01  1.03497113983E-01  1.05241629138E-01
  1.07015463191E-01  1.08819108885E-01  1.10653067244E-01  1.12517847714E-01
  1.14413968300E-01  1.16341955715E-01  1.18302345524E-01  1.20295682291E-01
  1.22322519735E-01  1.24383420879E-01  1.26478958208E-01  1.28609713830E-01
  1.30776279634E-01  1.32979257460E-01  1.35219259258E-01  1.37496907267E-01
  1.39812834181E-01  1.42167683328E-01  1.44562108847E-01  1.46996775873E-01
  1.49472360717E-01  1.51989551058E-01  1.54549046132E-01  1.57151556925E-01
  1.59797806375E-01  1.62488529567E-01  1.65224473942E-01  1.68006399502E-01
  1.70835079022E-01  1.73711298265E-01  1.76635856199E-01  1.79609565219E-01
  1.82633251376E-01  1.85707754601E-01  1.88833928944E-01  1.92012642805E-01
  1.95244779181E-01  1.98531235910E-01  2.01872925916E-01  2.05270777468E-01
  2.08725734436E-01  2.12238756552E-01  2.15810819679E-01  2.19442916078E-01
  2.23136054690E-01  2.26891261409E-01  2.30709579374E-01  2.34592069251E-01
  2.38539809536E-01  2.42553896849E-01  2.46635446239E-01  2.50785591496E-01
  2.55005485466E-01  2.59296300369E-01  2.63659228124E-01  2.68095480684E-01
  2.72606290371E-01  2.77192910215E-01  2.81856614308E-01  2.86598698153E-01
  2.91420479026E-01  2.96323296341E-01  3.01308512023E-01  3.06377510888E-01
  3.11531701022E-01  3.16772514178E-01  3.22101406172E-01  3.27519857285E-01
  3.33029372678E-01  3.38631482807E-01  3.44327743849E-01  3.50119738137E-01
  3.56009074594E-01  3.61997389185E-01  3.68086345370E-01  3.74277634564E-01
  3.80572976610E-01  3.86974120254E-01  3.93482843633E-01  4.00100954768E-01
  4.06830292065E-01  4.13672724828E-01  4.20630153776E-01  4.27704511574E-01
  4.34897763366E-01  4.42211907325E-01  4.49648975203E-01  4.57211032902E-01
  4.64900181040E-01  4.72718555543E-01  4.80668328230E-01  4.88751707424E-01
  4.96970938559E-01  5.05328304808E-01  5.13826127715E-01  5.22466767842E-01
  5.31252625421E-01  5.40186141026E-01  5.49269796245E-01  5.58506114375E-01
  5.67897661119E-01  5.77447045301E-01  5.87156919588E-01  5.97029981230E-01
  6.07068972808E-01  6.17276682996E-01  6.27655947333E-01  6.38209649016E-01
  6.48940719696E-01  6.59852140296E-01  6.70946941835E-01  6.82228206274E-01
  6.93699067371E-01  7.05362711549E-01  7.17222378785E-01  7.29281363506E-01
  7.41543015509E-01  7.54010740886E-01  7.66688002976E-01  7.79578323320E-01
  7.92685282647E-01  8.06012521863E-01  8.19563743064E-01  8.33342710566E-01
  8.47353251947E-01  8.61599259117E-01  8.76084689389E-01  8.90813566589E-01
  9.05789982164E-01  9.21018096329E-01  9.36502139210E-01  9.52246412033E-01
  9.68255288305E-01  9.84533215042E-01  1.00108471399E+00  1.01791438290E+00
  1.03502689679E+00  1.05242700924E+00  1.07011955373E+00  1.08810944497E+00
  1.10640168026E+00  1.12500134090E+00  1.14391359358E+00  1.16314369183E+00
  1.18269697747E+00  1.20257888208E+00  1.22279492855E+00  1.24335073258E+00
  1.26425200424E+00  1.28550454958E+00  1.30711427221E+00  1.32908717499E+00
  1.35142936163E+00  1.37414703843E+00  1.39724651603E+00  1.42073421107E+00
  1.44461664807E+00  1.46890046121E+00  1.49359239612E+00  1.51869931186E+00
  1.54422818271E+00  1.57018610021E+00  1.59658027504E+00  1.62341803909E+00
  1.65070684748E+00  1.67845428059E+00  1.70666804623E+00  1.73535598174E+00
  1.76452605617E+00  1.79418637251E+00  1.82434516992E+00  1.85501082605E+00
  1.88619185932E+00  1.91789693135E+00  1.95013484928E+00  1.98291456832E+00
  2.01624519415E+00  2.05013598548E+00  2.08459635666E+00  2.11963588021E+00
  2.15526428958E+00  2.19149148176E+00  2.22832752010E+00  2.26578263708E+00
  2.30386723712E+00  2.34259189954E+00  2.38196738143E+00  2.42200462067E+00
  2.46271473899E+00  2.50410904500E+00  2.54619903740E+00  2.58899640811E+00
  2.63251304558E+00  2.67676103803E+00  2.72175267687E+00  2.76750046005E+00
  2.81401709559E+00  2.86131550507E+00  2.90940882725E+00  2.95831042169E+00
  3.00803387249E+00  3.05859299203E+00  3.11000182483E+00  3.16227465146E+00
  3.21542599249E+00  3.26947061252E+00  3.32442352428E+00  3.38029999284E+00
  3.43711553979E+00  3.49488594759E+00  3.55362726395E+00  3.61335580628E+00
  3.67408816623E+00  3.73584121428E+00  3.79863210446E+00  3.86247827909E+00
  3.92739747362E+00  3.99340772158E+00  4.06052735958E+00  4.12877503239E+00
  4.19816969814E+00  4.26873063357E+00  4.34047743939E+00  4.41343004573E+00
  4.48760871768E+00  4.56303406090E+00  4.63972702735E+00  4.71770892114E+00
  4.79700140439E+00  4.87762650332E+00  4.95960661430E+00  5.04296451011E+00
  5.12772334626E+00  5.21390666741E+00  5.30153841393E+00  5.39064292853E+00
  5.48124496304E+00  5.57336968528E+00  5.66704268604E+00  5.76228998620E+00
  5.85913804395E+00  5.95761376216E+00  6.05774449583E+00  6.15955805968E+00
  6.26308273593E+00  6.36834728209E+00  6.47538093899E+00  6.58421343889E+00
  6.69487501374E+00  6.80739640358E+00  6.92180886507E+00  7.03814418019E+00
  7.15643466505E+00  7.27671317889E+00  7.39901313316E+00  7.52336850087E+00
  7.64981382598E+00  7.77838423299E+00  7.90911543675E+00  8.04204375230E+00
  8.17720610505E+00  8.31464004095E+00  8.45438373698E+00  8.59647601174E+00
  8.74095633622E+00  8.88786484476E+00  9.03724234623E+00  9.18913033535E+00
  9.34357100419E+00  9.50060725393E+00  9.66028270678E+00  9.82264171803E+00
  9.98772938848E+00  1.01555915769E+01  1.03262749126E+01  1.04998268089E+01
  1.06762954757E+01  1.08557299333E+01  1.10381800256E+01  1.12236964344E+01
  1.14123306933E+01  1.16041352019E+01  1.17991632404E+01  1.19974689846E+01
  1.21991075206E+01  1.24041348604E+01  1.26126079575E+01  1.28245847224E+01
  1.30401240387E+01  1.32592857801E+01  1.34821308260E+01  1.37087210795E+01
  1.39391194836E+01  1.41733900394E+01  1.44115978235E+01  1.46538090064E+01
  1.49000908704E+01  1.51505118289E+01  1.54051414446E+01  1.56640504499E+01
  1.59273107654E+01  1.61949955207E+01  1.64671790745E+01  1.67439370350E+01
  1.70253462813E+01  1.73114849843E+01  1.76024326289E+01  1.78982700357E+01
  1.81990793837E+01  1.85049442330E+01  1.88159495481E+01  1.91321817212E+01
  1.94537285966E+01  1.97806794951E+01  2.01131252385E+01  2.04511581748E+01
  2.07948722043E+01  2.11443628054E+01  2.14997270610E+01  2.18610636856E+01
  2.22284730530E+01  2.26020572236E+01  2.29819199731E+01  2.33681668216E+01
  2.37609050622E+01  2.41602437914E+01  2.45662939392E+01  2.49791683000E+01
  2.53989815637E+01  2.58258503478E+01  2.62598932297E+01  2.67012307797E+01
  2.71499855943E+01  2.76062823307E+01  2.80702477407E+01  2.85420107067E+01
  2.90217022770E+01  2.95094557023E+01  3.00054064729E+01  3.05096923559E+01
  3.10224534341E+01  3.15438321443E+01  3.20739733174E+01  3.26130242183E+01
  3.31611345867E+01  3.37184566790E+01  3.42851453105E+01  3.48613578984E+01
  3.54472545054E+01  3.60429978844E+01  3.66487535234E+01  3.72646896918E+01
  3.78909774870E+01  3.85277908817E+01  3.91753067728E+01  3.98337050299E+01
  4.05031685456E+01  4.11838832863E+01  4.18760383439E+01  4.25798259880E+01
  4.32954417198E+01  4.40230843261E+01  4.47629559343E+01  4.55152620693E+01
  4.62802117097E+01  4.70580173465E+01  4.78488950418E+01  4.86530644890E+01
  4.94707490735E+01  5.03021759354E+01  5.11475760318E+01  5.20071842015E+01
  5.28812392301E+01  5.37699839163E+01  5.46736651393E+01  5.55925339275E+01
  5.65268455282E+01  5.74768594783E+01  5.84428396767E+01  5.94250544575E+01
  6.04237766644E+01  6.14392837267E+01  6.24718577361E+01  6.35217855256E+01
  6.45893587483E+01  6.56748739593E+01  6.67786326976E+01  6.79009415699E+01
  6.90421123360E+01  7.02024619949E+01  7.13823128736E+01  7.25819927159E+01
  7.38018347741E+01  7.50421779009E+01  7.63033666440E+01  7.75857513419E+01
  7.88896882207E+01  8.02155394934E+01  8.15636734608E+01
  </PP_R>
  <PP_RAB>
  5.06601091975E-06  5.15115197300E-06  5.23772393493E-06  5.32575085386E-06
  5.41525718226E-06  5.50626778359E-06  5.59880793916E-06  5.69290335515E-06
  5.78858016980E-06  5.88586496060E-06  5.98478475173E-06  6.08536702156E-06
  6.18763971025E-06  6.29163122753E-06  6.39737046061E-06  6.50488678217E-06
  6.61421005856E-06  6.72537065805E-06  6.83839945930E-06  6.95332785992E-06
  7.07018778522E-06  7.18901169703E-06  7.30983260276E-06  7.43268406455E-06
  7.55760020860E-06  7.68461573463E-06  7.81376592556E-06  7.94508665727E-06
  8.07861440858E-06  8.21438627139E-06  8.35243996099E-06  8.49281382650E-06
  8.63554686158E-06  8.78067871520E-06  8.92824970270E-06  9.07830081698E-06
  9.23087373986E-06  9.38601085368E-06  9.54375525310E-06  9.70415075701E-06
  9.86724192075E-06  1.00330740485E-05  1.02016932057E-05  1.03731462322E-05
  1.05474807550E-05  1.07247452013E-05  1.09049888124E-05  1.10882616573E-05
  1.12746146461E-05  1.14640995448E-05  1.16567689893E-05  1.18526765002E-05
  1.20518764974E-05  1.22544243156E-05  1.24603762194E-05  1.26697894188E-05
  1.28827220857E-05  1.30992333694E-05  1.33193834132E-05  1.35432333714E-05
  1.37708454259E-05  1.40022828039E-05  1.42376097948E-05  1.44768917689E-05
  1.47201951950E-05  1.49675876588E-05  1.52191378820E-05  1.54749157415E-05
  1.57349922881E-05  1.59994397672E-05  1.62683316379E-05  1.65417425942E-05
  1.68197485854E-05  1.71024268372E-05  1.73898558730E-05  1.76821155362E-05
  1.79792870118E-05  1.82814528494E-05  1.85886969860E-05  1.89011047689E-05
  1.92187629804E-05  1.95417598606E-05  1.98701851332E-05  2.02041300294E-05
  2.05436873138E-05  2.08889513101E-05  2.12400179273E-05  2.15969846860E-05
  2.19599507460E-05  2.23290169335E-05  2.27042857692E-05  2.30858614971E-05
  2.34738501126E-05  2.38683593931E-05  2.42694989268E-05  2.46773801441E-05
  2.50921163478E-05  2.55138227453E-05  2.59426164798E-05  2.63786166634E-05
  2.68219444102E-05  2.72727228695E-05  2.77310772606E-05  2.81971349070E-05
  2.86710252722E-05  2.91528799955E-05  2.96428329284E-05  3.01410201721E-05
  3.06475801153E-05  3.11626534723E-05  3.16863833223E-05  3.22189151491E-05
  3.27603968818E-05  3.33109789354E-05  3.38708142529E-05  3.44400583476E-05
  3.50188693468E-05  3.56074080348E-05  3.62058378984E-05  3.68143251720E-05
  3.74330388838E-05  3.80621509027E-05  3.87018359859E-05  3.93522718281E-05
  4.00136391099E-05  4.06861215487E-05  4.13699059496E-05  4.20651822570E-05
  4.27721436078E-05  4.34909863846E-05  4.42219102706E-05  4.49651183049E-05
  4.57208169390E-05  4.64892160940E-05  4.72705292191E-05  4.80649733507E-05
  4.88727691728E-05  4.96941410784E-05  5.05293172316E-05  5.13785296312E-05
  5.22420141750E-05  5.31200107252E-05  5.40127631756E-05  5.49205195186E-05
  5.58435319146E-05  5.67820567619E-05  5.77363547679E-05  5.87066910214E-05
  5.96933350666E-05  6.06965609776E-05  6.17166474347E-05  6.27538778018E-05
  6.38085402052E-05  6.48809276133E-05  6.59713379185E-05  6.70800740196E-05
  6.82074439059E-05  6.93537607430E-05  7.05193429596E-05  7.17045143360E-05
  7.29096040941E-05  7.41349469889E-05  7.53808834011E-05  7.66477594324E-05
  7.79359270008E-05  7.92457439389E-05  8.05775740932E-05  8.19317874252E-05
  8.33087601138E-05  8.47088746603E-05  8.61325199945E-05  8.75800915825E-05
  8.90519915369E-05  9.05486287282E-05  9.20704188987E-05  9.36177847775E-05
  9.51911561985E-05  9.67909702194E-05  9.84176712433E-05  1.00071711142E-04
  1.01753549382E-04  1.03463653151E-04  1.05202497489E-04  1.06970565419E-04
  1.08768348083E-04  1.10596344876E-04  1.12455063588E-04  1.14345020540E-04
  1.16266740733E-04  1.18220757991E-04  1.20207615108E-04  1.22227864003E-04
  1.24282065868E-04  1.26370791328E-04  1.28494620598E-04  1.30654143644E-04
  1.32849960349E-04  1.35082680674E-04  1.37352924835E-04  1.39661323470E-04
  1.42008517814E-04  1.44395159882E-04  1.46821912645E-04  1.49289450217E-04
  1.51798458041E-04  1.54349633078E-04  1.56943684007E-04  1.59581331412E-04
  1.62263307992E-04  1.64990358755E-04  1.67763241235E-04  1.70582725694E-04
  1.73449595340E-04  1.76364646545E-04  1.79328689063E-04  1.82342546259E-04
  1.85407055335E-04  1.88523067563E-04  1.91691448522E-04  1.94913078338E-04
  1.98188851929E-04  2.01519679254E-04  2.04906485562E-04  2.08350211657E-04
  2.11851814150E-04  2.15412265732E-04  2.19032555439E-04  2.22713688931E-04
  2.26456688769E-04  2.30262594698E-04  2.34132463940E-04  2.38067371484E-04
  2.42068410383E-04  2.46136692064E-04  2.50273346631E-04  2.54479523181E-04
  2.58756390124E-04  2.63105135506E-04  2.67526967340E-04  2.72023113940E-04
  2.76594824266E-04  2.81243368266E-04  2.85970037232E-04  2.90776144158E-04
  2.95663024105E-04  3.00632034571E-04  3.05684555869E-04  3.10821991509E-04
  3.16045768589E-04  3.21357338194E-04  3.26758175791E-04  3.32249781650E-04
  3.37833681251E-04  3.43511425714E-04  3.49284592226E-04  3.55154784482E-04
  3.61123633128E-04  3.67192796217E-04  3.73363959665E-04  3.79638837726E-04
  3.86019173460E-04  3.92506739225E-04  3.99103337163E-04  4.05810799705E-04
  4.12630990080E-04  4.19565802827E-04  4.26617164328E-04  4.33787033340E-04
  4.41077401539E-04  4.48490294076E-04  4.56027770133E-04  4.63691923503E-04
  4.71484883167E-04  4.79408813885E-04  4.87465916802E-04  4.95658430051E-04
  5.03988629386E-04  5.12458828802E-04  5.21071381188E-04  5.29828678975E-04
  5.38733154802E-04  5.47787282192E-04  5.56993576238E-04  5.66354594303E-04
  5.75872936731E-04  5.85551247566E-04  5.95392215291E-04  6.05398573570E-04
  6.15573102013E-04  6.25918626942E-04  6.36438022182E-04  6.47134209853E-04
  6.58010161188E-04  6.69068897354E-04  6.80313490294E-04  6.91747063578E-04
  7.03372793273E-04  7.15193908821E-04  7.27213693943E-04  7.39435487545E-04
  7.51862684648E-04  7.64498737331E-04  7.77347155691E-04  7.90411508814E-04
  8.03695425772E-04  8.17202596628E-04  8.30936773459E-04  8.44901771404E-04
  8.59101469718E-04  8.73539812853E-04  8.88220811554E-04  9.03148543969E-04
  9.18327156787E-04  9.33760866386E-04  9.49453960008E-04  9.65410796947E-04
  9.81635809759E-04  9.98133505497E-04  1.01490846696E-03  1.03196535397E-03
  1.04930890465E-03  1.06694393678E-03  1.08487534909E-03  1.10310812263E-03
  1.12164732219E-03  1.14049809767E-03  1.15966568550E-03  1.17915541015E-03
  1.19897268555E-03  1.21912301663E-03  1.23961200082E-03  1.26044532966E-03
  1.28162879031E-03  1.30316826719E-03  1.32506974364E-03  1.34733930353E-03
  1.36998313301E-03  1.39300752217E-03  1.41641886681E-03  1.44022367025E-03
  1.46442854509E-03  1.48904021504E-03  1.51406551686E-03  1.53951140216E-03
  1.56538493942E-03  1.59169331589E-03  1.61844383963E-03  1.64564394151E-03
  1.67330117729E-03  1.70142322971E-03  1.73001791064E-03  1.75909316322E-03
  1.78865706410E-03  1.81871782567E-03  1.84928379832E-03  1.88036347282E-03
  1.91196548259E-03  1.94409860617E-03  1.97677176965E-03  2.00999404911E-03
  2.04377467317E-03  2.07812302557E-03  2.11304864772E-03  2.14856124141E-03
  2.18467067149E-03  2.22138696858E-03  2.25872033189E-03  2.29668113204E-03
  2.33527991394E-03  2.37452739972E-03  2.41443449171E-03  2.45501227547E-03
  2.49627202287E-03  2.53822519522E-03  2.58088344645E-03  2.62425862634E-03
  2.66836278383E-03  2.71320817037E-03  2.75880724329E-03  2.80517266929E-03
  2.85231732796E-03  2.90025431534E-03  2.94899694757E-03  2.99855876458E-03
  3.04895353386E-03  3.10019525428E-03  3.15229815998E-03  3.20527672434E-03
  3.25914566394E-03  3.31391994275E-03  3.36961477618E-03  3.42624563538E-03
  3.48382825152E-03  3.54237862012E-03  3.60191300556E-03  3.66244794556E-03
  3.72400025575E-03  3.78658703441E-03  3.85022566715E-03  3.91493383177E-03
  3.98072950319E-03  4.04763095840E-03  4.11565678157E-03  4.18482586919E-03
  4.25515743536E-03  4.32667101706E-03  4.39938647965E-03  4.47332402232E-03
  4.54850418377E-03  4.62494784784E-03  4.70267624939E-03  4.78171098014E-03
  4.86207399468E-03  4.94378761660E-03  5.02687454464E-03  5.11135785905E-03
  5.19726102795E-03  5.28460791389E-03  5.37342278046E-03  5.46373029901E-03
  5.55555555556E-03  5.64892405770E-03  5.74386174174E-03  5.84039497987E-03
  5.93855058748E-03  6.03835583067E-03  6.13983843375E-03  6.24302658699E-03
  6.34794895442E-03  6.45463468182E-03  6.56311340481E-03  6.67341525705E-03
  6.78557087867E-03  6.89961142471E-03  7.01556857385E-03  7.13347453715E-03
  7.25336206703E-03  7.37526446634E-03  7.49921559764E-03  7.62524989262E-03
  7.75340236159E-03  7.88370860330E-03  8.01620481475E-03  8.15092780131E-03
  8.28791498690E-03  8.42720442438E-03  8.56883480617E-03  8.71284547495E-03
  8.85927643460E-03  9.00816836134E-03  9.15956261500E-03  9.31350125050E-03
  9.47002702957E-03  9.62918343260E-03  9.79101467071E-03  9.95556569809E-03
  1.01228822244E-02  1.02930107275E-02  1.04659984665E-02  1.06418934945E-02
  1.08207446725E-02  1.10026016825E-02  1.11875150415E-02  1.13755361155E-02
  1.15667171338E-02  1.17611112034E-02  1.19587723240E-02  1.21597554027E-02
  1.23641162694E-02  1.25719116924E-02  1.27831993938E-02  1.29980380663E-02
  1.32164873884E-02  1.34386080420E-02  1.36644617286E-02  1.38941111870E-02
  1.41276202100E-02  1.43650536629E-02  1.46064775007E-02  1.48519587874E-02
  1.51015657137E-02  1.53553676164E-02  1.56134349978E-02  1.58758395448E-02
  1.61426541493E-02  1.64139529283E-02  1.66898112441E-02  1.69703057260E-02
  1.72555142908E-02  1.75455161649E-02  1.78403919064E-02  1.81402234270E-02
  1.84450940152E-02  1.87550883592E-02  1.90702925706E-02  1.93907942081E-02
  1.97166823020E-02  2.00480473789E-02  2.03849814868E-02  2.07275782206E-02
  2.10759327482E-02  2.14301418372E-02  2.17903038811E-02  2.21565189274E-02
  2.25288887047E-02  2.29075166515E-02  2.32925079447E-02  2.36839695287E-02
  2.40820101455E-02  2.44867403643E-02  2.48982726130E-02  2.53167212086E-02
  2.57422023895E-02  2.61748343477E-02  2.66147372616E-02  2.70620333291E-02
  2.75168468022E-02  2.79793040207E-02  2.84495334481E-02  2.89276657066E-02
  2.94138336137E-02  2.99081722194E-02  3.04108188429E-02  3.09219131117E-02
  3.14415969997E-02  3.19700148667E-02  3.25073134990E-02  3.30536421496E-02
  3.36091525801E-02  3.41739991023E-02  3.47483386219E-02  3.53323306811E-02
  3.59261375039E-02  3.65299240403E-02  3.71438580127E-02  3.77681099622E-02
  3.84028532963E-02  3.90482643366E-02  3.97045223681E-02  4.03718096888E-02
  4.10503116607E-02  4.17402167610E-02  4.24417166342E-02  4.31550061461E-02
  4.38802834373E-02  4.46177499782E-02  4.53676106254E-02  4.61300736784E-02
  4.69053509374E-02  4.76936577621E-02  4.84952131318E-02  4.93102397058E-02
  5.01389638857E-02  5.09816158780E-02  5.18384297581E-02  5.27096435353E-02
  5.35954992191E-02  5.44962428862E-02  5.54121247490E-02  5.63433992249E-02
  5.72903250074E-02  5.82531651374E-02  5.92321870767E-02  6.02276627822E-02
  6.12398687813E-02  6.22690862489E-02  6.33156010852E-02  6.43797039957E-02
  6.54616905712E-02  6.65618613706E-02  6.76805220039E-02  6.88179832174E-02
  6.99745609799E-02  7.11505765704E-02  7.23463566674E-02  7.35622334398E-02
  7.47985446389E-02  7.60556336925E-02  7.73338498001E-02  7.86335480299E-02
  7.99550894175E-02  8.12988410663E-02  8.26651762493E-02  8.40544745128E-02
  8.54671217819E-02  8.69035104677E-02  8.83640395764E-02  8.98491148197E-02
  9.13591487283E-02  9.28945607657E-02  9.44557774450E-02  9.60432324476E-02
  9.76573667435E-02  9.92986287136E-02  1.00967474275E-01  1.02664367006E-01
  1.04389778276E-01  1.06144187379E-01  1.07928081661E-01  1.09741956659E-01
  1.11586316240E-01  1.13461672737E-01  1.15368547095E-01  1.17307469014E-01
  1.19278977095E-01  1.21283618992E-01  1.23321951564E-01  1.25394541025E-01
  1.27501963111E-01  1.29644803227E-01  1.31823656623E-01  1.34039128549E-01
  1.36291834428E-01  1.38582400027E-01  1.40911461627E-01  1.43279666207E-01
  1.45687671615E-01  1.48136146757E-01  1.50625771781E-01  1.53157238267E-01
  1.55731249414E-01  1.58348520243E-01  1.61009777791E-01  1.63715761311E-01
  1.66467222486E-01  1.69264925625E-01  1.72109647888E-01  1.75002179493E-01
  1.77943323940E-01  1.80933898232E-01  1.83974733104E-01  1.87066673251E-01
  1.90210577566E-01  1.93407319376E-01  1.96657786684E-01  1.99962882420E-01
  2.03323524687E-01  2.06740647018E-01  2.10215198636E-01  2.13748144717E-01
  2.17340466656E-01  2.20993162345E-01  2.24707246445E-01  2.28483750669E-01
  2.32323724070E-01  2.36228233334E-01  2.40198363070E-01  2.44235216118E-01
  2.48339913852E-01  2.52513596492E-01  2.56757423422E-01  2.61072573509E-01
  2.65460245434E-01  2.69921658023E-01  2.74458050586E-01  2.79070683262E-01
  2.83760837366E-01  2.88529815749E-01  2.93378943159E-01  2.98309566606E-01
  3.03323055740E-01  3.08420803228E-01  3.13604225145E-01  3.18874761364E-01
  3.24233875955E-01  3.29683057597E-01  3.35223819985E-01  3.40857702257E-01
  3.46586269416E-01  3.52411112767E-01  3.58333850360E-01  3.64356127438E-01
  3.70479616894E-01  3.76706019737E-01  3.83037065563E-01  3.89474513037E-01
  3.96020150380E-01  4.02675795867E-01  4.09443298331E-01  4.16324537677E-01
  4.23321425405E-01  4.30435905140E-01  4.37669953172E-01  4.45025579005E-01
  4.52504825916E-01  4.60109771522E-01  4.67842528356E-01  4.75705244457E-01
  4.83700103961E-01  4.91829327717E-01  5.00095173892E-01  5.08499938609E-01
  5.17045956578E-01  5.25735601750E-01  5.34571287968E-01  5.43555469649E-01
  5.52690642455E-01  5.61979343994E-01  5.71424154519E-01  5.81027697651E-01
  5.90792641101E-01  6.00721697417E-01  6.10817624734E-01  6.21083227541E-01
  6.31521357460E-01  6.42134914040E-01  6.52926845558E-01  6.63900149842E-01
  6.75057875104E-01  6.86403120783E-01  6.97939038409E-01  7.09668832478E-01
  7.21595761341E-01  7.33723138112E-01  7.46054331583E-01  7.58592767166E-01
  7.71341927839E-01  7.84305355119E-01  7.97486650041E-01  8.10889474160E-01
  8.24517550570E-01  8.38374664934E-01  8.52464666540E-01  8.66791469369E-01
  8.81359053179E-01  8.96171464616E-01  9.11232818333E-01  9.26547298136E-01
  9.42119158147E-01  9.57952723983E-01  9.74052393956E-01  9.90422640303E-01