<PP_INFO>
Generated using Vanderbilt code, version   7  3  6                              
Author: kfg        Generation date:   22    9   15                              
Automatically converted from original format                                    
    1        The Pseudo was generated with a Scalar-Relativistic Calculation
  1.50000000000E+00    Local Potential cutoff radius
nl pn  l   occ               Rcut            Rcut US             E pseu
3S  3  0  2.00      0.00000000000      1.44000000000     -9.58521899600
3P  3  1  6.00      0.00000000000      1.55000000000     -6.68242642800
3D  3  2  8.00      0.00000000000      1.50000000000     -2.08294906300
4S  4  0  0.00      0.00000000000      1.44000000000     -1.57637447400
4P  4  1  0.00      0.00000000000      1.55000000000     -1.08646370600
</PP_INFO>


<PP_HEADER>
   0                   Version Number
  Ni                   Element
   US                  Ultrasoft pseudopotential
    T                  Nonlinear Core Correction
SLA  PW   PSX  PSC     PBEsol  Exchange-Correlation functional
   18.00000000000      Z valence
 -340.56066742500      Total energy
    0.00000    0.00000 Suggested cutoff for wfc and rho
    2                  Max angular momentum component
  865                  Number of points in mesh
    5    6             Number of Wavefunctions, Number of Projectors
 Wavefunctions         nl  l   occ
                       3S  0  2.00
                       3P  1  6.00
                       3D  2  8.00
                       4S  0  0.00
                       4P  1  0.00
</PP_HEADER>


<PP_MESH>
  <PP_R>
  0.00000000000E+00  1.51324318143E-06  3.05235314314E-06  4.61777204164E-06
  6.20994959149E-06  7.82934319450E-06  9.47641807110E-06  1.11516473940E-05
  1.28555124243E-05  1.45885026493E-05  1.63511159236E-05  1.81438586119E-05
  1.99672457344E-05  2.18218011151E-05  2.37080575318E-05  2.56265568695E-05
  2.75778502758E-05  2.95624983197E-05  3.15810711521E-05  3.36341486699E-05
  3.57223206825E-05  3.78461870815E-05  4.00063580124E-05  4.22034540506E-05
  4.44381063794E-05  4.67109569709E-05  4.90226587713E-05  5.13738758877E-05
  5.37652837794E-05  5.61975694515E-05  5.86714316526E-05  6.11875810755E-05
  6.37467405612E-05  6.63496453067E-05  6.89970430761E-05  7.16896944157E-05
  7.44283728721E-05  7.72138652145E-05  8.00469716611E-05  8.29285061084E-05
  8.58592963656E-05  8.88401843920E-05  9.18720265391E-05  9.49556937963E-05
  9.80920720417E-05  1.01282062296E-04  1.04526580982E-04  1.07826560186E-04
  1.11182947930E-04  1.14596708438E-04  1.18068822417E-04  1.21600287340E-04
  1.25192117726E-04  1.28845345440E-04  1.32561019984E-04  1.36340208798E-04
  1.40183997570E-04  1.44093490547E-04  1.48069810851E-04  1.52114100801E-04
  1.56227522243E-04  1.60411256884E-04  1.64666506629E-04  1.68994493931E-04
  1.73396462135E-04  1.77873675842E-04  1.82427421269E-04  1.87059006619E-04
  1.91769762457E-04  1.96561042091E-04  2.01434221963E-04  2.06390702045E-04
  2.11431906236E-04  2.16559282778E-04  2.21774304665E-04  2.27078470073E-04
  2.32473302787E-04  2.37960352637E-04  2.43541195946E-04  2.49217435982E-04
  2.54990703421E-04  2.60862656809E-04  2.66834983045E-04  2.72909397863E-04
  2.79087646325E-04  2.85371503321E-04  2.91762774084E-04  2.98263294700E-04
  3.04874932644E-04  3.11599587312E-04  3.18439190565E-04  3.25395707292E-04
  3.32471135962E-04  3.39667509212E-04  3.46986894419E-04  3.54431394301E-04
  3.62003147518E-04  3.69704329290E-04  3.77537152016E-04  3.85503865916E-04
  3.93606759670E-04  4.01848161086E-04  4.10230437756E-04  4.18755997748E-04
  4.27427290289E-04  4.36246806475E-04  4.45217079981E-04  4.54340687793E-04
  4.63620250949E-04  4.73058435285E-04  4.82657952211E-04  4.92421559482E-04
  5.02352061992E-04  5.12452312584E-04  5.22725212864E-04  5.33173714037E-04
  5.43800817755E-04  5.54609576980E-04  5.65603096860E-04  5.76784535618E-04
  5.88157105468E-04  5.99724073527E-04  6.11488762763E-04  6.23454552941E-04
  6.35624881604E-04  6.48003245050E-04  6.60593199343E-04  6.73398361334E-04
  6.86422409699E-04  6.99669085994E-04  7.13142195733E-04  7.26845609479E-04
  7.40783263959E-04  7.54959163191E-04  7.69377379636E-04  7.84042055368E-04
  7.98957403267E-04  8.14127708221E-04  8.29557328367E-04  8.45250696335E-04
  8.61212320527E-04  8.77446786408E-04  8.93958757827E-04  9.10752978352E-04
  9.27834272640E-04  9.45207547814E-04  9.62877794880E-04  9.80850090160E-04
  9.99129596745E-04  1.01772156598E-03  1.03663133899E-03  1.05586434817E-03
  1.07542611881E-03  1.09532227061E-03  1.11555851936E-03  1.13614067854E-03
  1.15707466101E-03  1.17836648070E-03  1.20002225432E-03  1.22204820317E-03
  1.24445065488E-03  1.26723604523E-03  1.29041092004E-03  1.31398193698E-03
  1.33795586756E-03  1.36233959903E-03  1.38714013636E-03  1.41236460426E-03
  1.43802024924E-03  1.46411444166E-03  1.49065467788E-03  1.51764858240E-03
  1.54510391005E-03  1.57302854821E-03  1.60143051908E-03  1.63031798201E-03
  1.65969923580E-03  1.68958272111E-03  1.71997702291E-03  1.75089087287E-03
  1.78233315196E-03  1.81431289293E-03  1.84683928293E-03  1.87992166618E-03
  1.91356954660E-03  1.94779259058E-03  1.98260062973E-03  2.01800366373E-03
  2.05401186319E-03  2.09063557257E-03  2.12788531314E-03  2.16577178605E-03
  2.20430587533E-03  2.24349865109E-03  2.28336137266E-03  2.32390549181E-03
  2.36514265610E-03  2.40708471217E-03  2.44974370914E-03  2.49313190213E-03
  2.53726175573E-03  2.58214594759E-03  2.62779737207E-03  2.67422914394E-03
  2.72145460214E-03  2.76948731365E-03  2.81834107733E-03  2.86802992791E-03
  2.91856814005E-03  2.96997023239E-03  3.02225097176E-03  3.07542537741E-03
  3.12950872531E-03  3.18451655257E-03  3.24046466186E-03  3.29736912600E-03
  3.35524629254E-03  3.41411278846E-03  3.47398552498E-03  3.53488170237E-03
  3.59681881493E-03  3.65981465598E-03  3.72388732302E-03  3.78905522288E-03
  3.85533707704E-03  3.92275192699E-03  3.99131913972E-03  4.06105841326E-03
  4.13198978234E-03  4.20413362419E-03  4.27751066433E-03  4.35214198257E-03
  4.42804901904E-03  4.50525358035E-03  4.58377784590E-03  4.66364437417E-03
  4.74487610928E-03  4.82749638754E-03  4.91152894415E-03  4.99699792003E-03
  5.08392786878E-03  5.17234376368E-03  5.26227100491E-03  5.35373542682E-03
  5.44676330538E-03  5.54138136569E-03  5.63761678969E-03  5.73549722395E-03
  5.83505078764E-03  5.93630608056E-03  6.03929219140E-03  6.14403870608E-03
  6.25057571623E-03  6.35893382790E-03  6.46914417025E-03  6.58123840460E-03
  6.69524873344E-03  6.81120790974E-03  6.92914924633E-03  7.04910662546E-03
  7.17111450857E-03  7.29520794617E-03  7.42142258790E-03  7.54979469279E-03
  7.68036113965E-03  7.81315943769E-03  7.94822773731E-03  8.08560484101E-03
  8.22533021457E-03  8.36744399838E-03  8.51198701900E-03  8.65900080082E-03
  8.80852757808E-03  8.96061030691E-03  9.11529267773E-03  9.27261912782E-03
  9.43263485399E-03  9.59538582569E-03  9.76091879811E-03  9.92928132568E-03
  1.01005217757E-02  1.02746893422E-02  1.04518340602E-02  1.06320068199E-02
  1.08152593815E-02  1.10016443899E-02  1.11912153899E-02  1.13840268415E-02
  1.15801341359E-02  1.17795936107E-02  1.19824625669E-02  1.21887992848E-02
  1.23986630409E-02  1.26121141250E-02  1.28292138575E-02  1.30500246070E-02
  1.32746098080E-02  1.35030339796E-02  1.37353627437E-02  1.39716628437E-02
  1.42120021642E-02  1.44564497499E-02  1.47050758259E-02  1.49579518177E-02
  1.52151503717E-02  1.54767453760E-02  1.57428119819E-02  1.60134266250E-02
  1.62886670478E-02  1.65686123214E-02  1.68533428689E-02  1.71429404876E-02
  1.74374883735E-02  1.77370711445E-02  1.80417748648E-02  1.83516870699E-02
  1.86668967917E-02  1.89874945838E-02  1.93135725477E-02  1.96452243593E-02
  1.99825452957E-02  2.03256322628E-02  2.06745838228E-02  2.10295002227E-02
  2.13904834231E-02  2.17576371276E-02  2.21310668122E-02  2.25108797561E-02
  2.28971850723E-02  2.32900937386E-02  2.36897186303E-02  2.40961745518E-02
  2.45095782700E-02  2.49300485478E-02  2.53577061782E-02  2.57926740189E-02
  2.62350770278E-02  2.66850422988E-02  2.71426990980E-02  2.76081789016E-02
  2.80816154327E-02  2.85631447007E-02  2.90529050394E-02  2.95510371476E-02
  3.00576841290E-02  3.05729915334E-02  3.10971073988E-02  3.16301822934E-02
  3.21723693594E-02  3.27238243566E-02  3.32847057073E-02  3.38551745420E-02
  3.44353947452E-02  3.50255330031E-02  3.56257588508E-02  3.62362447218E-02
  3.68571659967E-02  3.74887010542E-02  3.81310313222E-02  3.87843413296E-02
  3.94488187599E-02  4.01246545045E-02  4.08120427179E-02  4.15111808735E-02
  4.22222698201E-02  4.29455138399E-02  4.36811207069E-02  4.44293017466E-02
  4.51902718970E-02  4.59642497701E-02  4.67514577147E-02  4.75521218806E-02
  4.83664722829E-02  4.91947428689E-02  5.00371715846E-02  5.08940004434E-02
  5.17654755958E-02  5.26518473997E-02  5.35533704926E-02  5.44703038645E-02
  5.54029109327E-02  5.63514596173E-02  5.73162224177E-02  5.82974764919E-02
  5.92955037349E-02  6.03105908608E-02  6.13430294845E-02  6.23931162056E-02
  6.34611526936E-02  6.45474457748E-02  6.56523075203E-02  6.67760553352E-02
  6.79190120508E-02  6.90815060163E-02  7.02638711937E-02  7.14664472538E-02
  7.26895796732E-02  7.39336198344E-02  7.51989251258E-02  7.64858590454E-02
  7.77947913043E-02  7.91260979333E-02  8.04801613912E-02  8.18573706742E-02
  8.32581214278E-02  8.46828160606E-02  8.61318638599E-02  8.76056811089E-02
  8.91046912070E-02  9.06293247906E-02  9.21800198576E-02  9.37572218926E-02
  9.53613839951E-02  9.69929670101E-02  9.86524396596E-02  1.00340278678E-01
  1.02056968949E-01  1.03803003644E-01  1.05578884366E-01  1.07385121290E-01
  1.09222233313E-01  1.11090748203E-01  1.12991202747E-01  1.14924142909E-01
  1.16890123986E-01  1.18889710765E-01  1.20923477690E-01  1.22992009021E-01
  1.25095899010E-01  1.27235752061E-01  1.29412182913E-01  1.31625816814E-01
  1.33877289697E-01  1.36167248367E-01  1.38496350684E-01  1.40865265754E-01
  1.43274674122E-01  1.45725267963E-01  1.48217751286E-01  1.50752840133E-01
  1.53331262786E-01  1.55953759975E-01  1.58621085094E-01  1.61334004413E-01
  1.64093297301E-01  1.66899756451E-01  1.69754188103E-01  1.72657412281E-01
  1.75610263024E-01  1.78613588630E-01  1.81668251895E-01  1.84775130365E-01
  1.87935116588E-01  1.91149118364E-01  1.94418059015E-01  1.97742877645E-01
  2.01124529409E-01  2.04563985790E-01  2.08062234878E-01  2.11620281652E-01
  2.15239148270E-01  2.18919874362E-01  2.22663517330E-01  2.26471152650E-01
  2.30343874181E-01  2.34282794482E-01  2.38289045129E-01  2.42363777039E-01
  2.46508160805E-01  2.50723387027E-01  2.55010666658E-01  2.59371231352E-01
  2.63806333813E-01  2.68317248161E-01  2.72905270294E-01  2.77571718263E-01
  2.82317932647E-01  2.87145276942E-01  2.92055137950E-01  2.97048926181E-01
  3.02128076251E-01  3.07294047304E-01  3.12548323422E-01  3.17892414057E-01
  3.23327854464E-01  3.28856206138E-01  3.34479057269E-01  3.40198023193E-01
  3.46014746858E-01  3.51930899296E-01  3.57948180103E-01  3.64068317927E-01
  3.70293070967E-01  3.76624227472E-01  3.83063606262E-01  3.89613057246E-01
  3.96274461953E-01  4.03049734077E-01  4.09940820023E-01  4.16949699466E-01
  4.24078385920E-01  4.31328927321E-01  4.38703406609E-01  4.46203942327E-01
  4.53832689236E-01  4.61591838927E-01  4.69483620453E-01  4.77510300970E-01
  4.85674186388E-01  4.93977622034E-01  5.02422993324E-01  5.11012726450E-01
  5.19749289076E-01  5.28635191046E-01  5.37672985110E-01  5.46865267650E-01
  5.56214679431E-01  5.65723906358E-01  5.75395680249E-01  5.85232779616E-01
  5.95238030468E-01  6.05414307119E-01  6.15764533018E-01  6.26291681584E-01
  6.36998777063E-01  6.47888895396E-01  6.58965165103E-01  6.70230768183E-01
  6.81688941025E-01  6.93342975341E-01  7.05196219109E-01  7.17252077536E-01
  7.29514014038E-01  7.41985551232E-01  7.54670271948E-01  7.67571820262E-01
  7.80693902539E-01  7.94040288499E-01  8.07614812301E-01  8.21421373642E-01
  8.35463938881E-01  8.49746542174E-01  8.64273286638E-01  8.79048345525E-01
  8.94075963423E-01  9.09360457476E-01  9.24906218624E-01  9.40717712863E-01
  9.56799482529E-01  9.73156147604E-01  9.89792407041E-01  1.00671304011E+00
  1.02392290780E+00  1.04142695415E+00  1.05923020774E+00  1.07733778311E+00
  1.09575488221E+00  1.11448679591E+00  1.13353890554E+00  1.15291668439E+00
  1.17262569933E+00  1.19267161237E+00  1.21306018232E+00  1.23379726641E+00
  1.25488882202E+00  1.27634090834E+00  1.29815968813E+00  1.32035142951E+00
  1.34292250774E+00  1.36587940705E+00  1.38922872252E+00  1.41297716195E+00
  1.43713154781E+00  1.46169881918E+00  1.48668603377E+00  1.51210036992E+00
  1.53794912868E+00  1.56423973589E+00  1.59097974435E+00  1.61817683593E+00
  1.64583882383E+00  1.67397365481E+00  1.70258941147E+00  1.73169431454E+00
  1.76129672532E+00  1.79140514799E+00  1.82202823213E+00  1.85317477515E+00
  1.88485372486E+00  1.91707418200E+00  1.94984540289E+00  1.98317680207E+00
  2.01707795499E+00  2.05155860082E+00  2.08662864516E+00  2.12229816296E+00
  2.15857740139E+00  2.19547678277E+00  2.23300690758E+00  2.27117855749E+00
  2.31000269849E+00  2.34949048399E+00  2.38965325808E+00  2.43050255874E+00
  2.47205012118E+00  2.51430788122E+00  2.55728797869E+00  2.60100276094E+00
  2.64546478639E+00  2.69068682811E+00  2.73668187752E+00  2.78346314811E+00
  2.83104407923E+00  2.87943833996E+00  2.92865983304E+00  2.97872269885E+00
  3.02964131949E+00  3.08143032288E+00  3.13410458701E+00  3.18767924417E+00
  3.24216968532E+00  3.29759156452E+00  3.35396080339E+00  3.41129359574E+00
  3.46960641215E+00  3.52891600478E+00  3.58923941212E+00  3.65059396392E+00
  3.71299728616E+00  3.77646730610E+00  3.84102225746E+00  3.90668068561E+00
  3.97346145295E+00  4.04138374432E+00  4.11046707246E+00  4.18073128368E+00
  4.25219656354E+00  4.32488344261E+00  4.39881280244E+00  4.47400588150E+00
  4.55048428130E+00  4.62826997262E+00  4.70738530176E+00  4.78785299705E+00
  4.86969617529E+00  4.95293834843E+00  5.03760343035E+00  5.12371574369E+00
  5.21130002684E+00  5.30038144109E+00  5.39098557778E+00  5.48313846574E+00
  5.57686657872E+00  5.67219684297E+00  5.76915664505E+00  5.86777383963E+00
  5.96807675751E+00  6.07009421380E+00  6.17385551612E+00  6.27939047309E+00
  6.38672940287E+00  6.49590314185E+00  6.60694305353E+00  6.71988103754E+00
  6.83474953876E+00  6.95158155670E+00  7.07041065493E+00  7.19127097076E+00
  7.31419722502E+00  7.43922473203E+00  7.56638940978E+00  7.69572779023E+00
  7.82727702978E+00  7.96107492000E+00  8.09715989841E+00  8.23557105961E+00
  8.37634816645E+00  8.51953166145E+00  8.66516267847E+00  8.81328305449E+00
  8.96393534161E+00  9.11716281933E+00  9.27300950693E+00  9.43152017616E+00
  9.59274036405E+00  9.75671638606E+00  9.92349534932E+00  1.00931251662E+01
  1.02656545681E+01  1.04411331192E+01  1.06196112314E+01  1.08011401777E+01
  1.09857721081E+01  1.11735600637E+01  1.13645579922E+01  1.15588207638E+01
  1.17564041864E+01  1.19573650218E+01  1.21617610022E+01  1.23696508467E+01
  1.25810942779E+01  1.27961520394E+01  1.30148859133E+01  1.32373587375E+01
  1.34636344241E+01  1.36937779778E+01  1.39278555144E+01  1.41659342797E+01
  1.44080826693E+01  1.46543702477E+01  1.49048677685E+01  1.51596471948E+01
  1.54187817198E+01  1.56823457879E+01  1.59504151159E+01  1.62230667149E+01
  1.65003789125E+01  1.67824313751E+01  1.70693051309E+01  1.73610825932E+01
  1.76578475840E+01  1.79596853582E+01  1.82666826278E+01  1.85789275874E+01
  1.88965099387E+01  1.92195209172E+01  1.95480533174E+01  1.98822015206E+01
  2.02220615210E+01  2.05677309538E+01  2.09193091230E+01  2.12768970305E+01
  2.16405974041E+01  2.20105147281E+01  2.23867552724E+01  2.27694271238E+01
  2.31586402164E+01  2.35545063636E+01  2.39571392902E+01  2.43666546647E+01
  2.47831701330E+01  2.52068053519E+01  2.56376820237E+01  2.60759239308E+01
  2.65216569718E+01  2.69750091970E+01  2.74361108457E+01  2.79050943837E+01
  2.83820945407E+01  2.88672483497E+01  2.93606951859E+01  2.98625768072E+01
  3.03730373943E+01  3.08922235928E+01  3.14202845547E+01  3.19573719819E+01
  3.25036401690E+01  3.30592460484E+01  3.36243492349E+01  3.41991120717E+01
  3.47836996771E+01  3.53782799917E+01  3.59830238270E+01  3.65981049142E+01
  3.72236999541E+01  3.78599886682E+01  3.85071538498E+01  3.91653814170E+01
  3.98348604658E+01  4.05157833247E+01  4.12083456095E+01  4.19127462800E+01
  4.26291876969E+01  4.33578756799E+01  4.40990195671E+01  4.48528322746E+01
  4.56195303584E+01  4.63993340759E+01  4.71924674496E+01  4.79991583315E+01
  4.88196384681E+01  4.96541435676E+01  5.05029133671E+01  5.13661917019E+01
  5.22442265749E+01  5.31372702287E+01  5.40455792174E+01  5.49694144806E+01
  5.59090414183E+01  5.68647299672E+01  5.78367546780E+01  5.88253947948E+01
  5.98309343345E+01  6.08536621693E+01  6.18938721092E+01  6.29518629862E+01
  6.40279387407E+01  6.51224085084E+01  6.62355867094E+01  6.73677931382E+01
  6.85193530557E+01  6.96905972829E+01  7.08818622956E+01  7.20934903211E+01
  7.33258294367E+01  7.45792336696E+01  7.58540630987E+01  7.71506839576E+01
  7.84694687406E+01  7.98107963089E+01  8.11750520000E+01  8.25626277382E+01
  8.39739221471E+01  8.54093406643E+01  8.68692956578E+01  8.83542065443E+01
  8.98644999101E+01  9.14006096332E+01  9.29629770082E+01  9.45520508730E+01
  9.61682877378E+01  9.78121519161E+01  9.94841156584E+01  1.01184659287E+02
  1.02914271337E+02  1.04673448690E+02  1.06462696725E+02  1.08282529458E+02
  1.10133469691E+02  1.12016049165E+02  1.13930808708E+02  1.15878298393E+02
  1.17859077695E+02  1.19873715656E+02  1.21922791041E+02  1.24006892510E+02
  1.26126618785E+02  1.28282578823E+02  1.30475391988E+02  1.32705688234E+02
  1.34974108282E+02  1.37281303804E+02  1.39627937614E+02  1.42014683855E+02
  1.44442228191E+02  1.46911268009E+02  1.49422512618E+02  1.51976683448E+02
  1.54574514264E+02  1.57216751372E+02  1.59904153837E+02  1.62637493695E+02
  1.65417556184E+02  1.68245139961E+02  1.71121057337E+02  1.74046134507E+02
  1.77021211788E+02  1.80047143864E+02  1.83124800025E+02  1.86255064423E+02
  1.89438836323E+02  1.92677030359E+02  1.95970576804E+02  1.99320421829E+02
  2.02727527779E+02
  </PP_R>
  <PP_RAB>
  1.50045531275E-06  1.52610350227E-06  1.55219011179E-06  1.57872263549E-06
  1.60570869566E-06  1.63315604486E-06  1.66107256819E-06  1.68946628553E-06
  1.71834535384E-06  1.74771806952E-06  1.77759287078E-06  1.80797834007E-06
  1.83888320656E-06  1.87031634860E-06  1.90228679634E-06  1.93480373427E-06
  1.96787650387E-06  2.00151460631E-06  2.03572770516E-06  2.07052562919E-06
  2.10591837517E-06  2.14191611074E-06  2.17852917737E-06  2.21576809327E-06
  2.25364355647E-06  2.29216644785E-06  2.33134783430E-06  2.37119897187E-06
  2.41173130901E-06  2.45295648990E-06  2.49488635771E-06  2.53753295810E-06
  2.58090854260E-06  2.62502557219E-06  2.66989672082E-06  2.71553487912E-06
  2.76195315804E-06  2.80916489266E-06  2.85718364599E-06  2.90602321289E-06
  2.95569762403E-06  3.00622114990E-06  3.05760830494E-06  3.10987385167E-06
  3.16303280499E-06  3.21710043641E-06  3.27209227855E-06  3.32802412947E-06
  3.38491205733E-06  3.44277240492E-06  3.50162179440E-06  3.56147713207E-06
  3.62235561319E-06  3.68427472699E-06  3.74725226163E-06  3.81130630932E-06
  3.87645527157E-06  3.94271786440E-06  4.01011312379E-06  4.07866041107E-06
  4.14837941856E-06  4.21929017519E-06  4.29141305223E-06  4.36476876921E-06
  4.43937839979E-06  4.51526337787E-06  4.59244550376E-06  4.67094695036E-06
  4.75079026964E-06  4.83199839904E-06  4.91459466806E-06  4.99860280504E-06
  5.08404694387E-06  5.17095163102E-06  5.25934183250E-06  5.34924294112E-06
  5.44068078372E-06  5.53368162863E-06  5.62827219319E-06  5.72447965144E-06
  5.82233164192E-06  5.92185627561E-06  6.02308214402E-06  6.12603832738E-06
  6.23075440300E-06  6.33726045379E-06  6.44558707689E-06  6.55576539242E-06
  6.66782705248E-06  6.78180425024E-06  6.89772972912E-06  7.01563679227E-06
  7.13555931212E-06  7.25753174007E-06  7.38158911646E-06  7.50776708056E-06
  7.63610188086E-06  7.76663038547E-06  7.89939009269E-06  8.03441914183E-06
  8.17175632412E-06  8.31144109386E-06  8.45351357980E-06  8.59801459661E-06
  8.74498565663E-06  8.89446898181E-06  9.04650751582E-06  9.20114493637E-06
  9.35842566781E-06  9.51839489386E-06  9.68109857057E-06  9.84658343956E-06
  1.00148970414E-05  1.01860877294E-05  1.03602046833E-05  1.05372979235E-05
  1.07174183256E-05  1.09006176345E-05  1.10869484799E-05  1.12764643910E-05
  1.14692198122E-05  1.16652701183E-05  1.18646716308E-05  1.20674816338E-05
  1.22737583908E-05  1.24835611610E-05  1.26969502169E-05  1.29139868608E-05
  1.31347334432E-05  1.33592533804E-05  1.35876111726E-05  1.38198724226E-05
  1.40561038544E-05  1.42963733329E-05  1.45407498828E-05  1.47893037088E-05
  1.50421062156E-05  1.52992300284E-05  1.55607490139E-05  1.58267383015E-05
  1.60972743047E-05  1.63724347434E-05  1.66522986657E-05  1.69369464713E-05
  1.72264599338E-05  1.75209222248E-05  1.78204179378E-05  1.81250331121E-05
  1.84348552576E-05  1.87499733803E-05  1.90704780075E-05  1.93964612140E-05
  1.97280166485E-05  2.00652395604E-05  2.04082268274E-05  2.07570769830E-05
  2.11118902452E-05  2.14727685449E-05  2.18398155555E-05  2.22131367224E-05
  2.25928392938E-05  2.29790323506E-05  2.33718268388E-05  2.37713356006E-05
  2.41776734071E-05  2.45909569913E-05  2.50113050816E-05  2.54388384358E-05
  2.58736798761E-05  2.63159543239E-05  2.67657888362E-05  2.72233126416E-05
  2.76886571780E-05  2.81619561298E-05  2.86433454666E-05  2.91329634823E-05
  2.96309508347E-05  3.01374505859E-05  3.06526082434E-05  3.11765718021E-05
  3.17094917866E-05  3.22515212945E-05  3.28028160404E-05  3.33635344006E-05
  3.39338374585E-05  3.45138890514E-05  3.51038558167E-05  3.57039072404E-05
  3.63142157058E-05  3.69349565427E-05  3.75663080779E-05  3.82084516864E-05
  3.88615718438E-05  3.95258561787E-05  4.02014955273E-05  4.08886839875E-05
  4.15876189755E-05  4.22985012817E-05  4.30215351287E-05  4.37569282303E-05
  4.45048918506E-05  4.52656408652E-05  4.60393938224E-05  4.68263730066E-05
  4.76268045016E-05  4.84409182560E-05  4.92689481488E-05  5.01111320570E-05
  5.09677119237E-05  5.18389338278E-05  5.27250480545E-05  5.36263091672E-05
  5.45429760808E-05  5.54753121360E-05  5.64235851748E-05  5.73880676179E-05
  5.83690365422E-05  5.93667737613E-05  6.03815659057E-05  6.14137045055E-05
  6.24634860742E-05  6.35312121938E-05  6.46171896012E-05  6.57217302768E-05
  6.68451515338E-05  6.79877761092E-05  6.91499322572E-05  7.03319538425E-05
  7.15341804372E-05  7.27569574177E-05  7.40006360642E-05  7.52655736614E-05
  7.65521336015E-05  7.78606854882E-05  7.91916052432E-05  8.05452752140E-05
  8.19220842837E-05  8.33224279829E-05  8.47467086034E-05  8.61953353133E-05
  8.76687242751E-05  8.91672987649E-05  9.06914892942E-05  9.22417337334E-05
  9.38184774378E-05  9.54221733752E-05  9.70532822566E-05  9.87122726679E-05
  1.00399621205E-04  1.02115812610E-04  1.03861339913E-04  1.05636704568E-04
  1.07442416605E-04  1.09278994769E-04  1.11146966673E-04  1.13046868950E-04
  1.14979247405E-04  1.16944657173E-04  1.18943662878E-04  1.20976838795E-04
  1.23044769017E-04  1.25148047621E-04  1.27287278837E-04  1.29463077224E-04
  1.31676067849E-04  1.33926886460E-04  1.36216179674E-04  1.38544605160E-04
  1.40912831831E-04  1.43321540031E-04  1.45771421736E-04  1.48263180750E-04
  1.50797532907E-04  1.53375206277E-04  1.55996941376E-04  1.58663491377E-04
  1.61375622330E-04  1.64134113375E-04  1.66939756976E-04  1.69793359138E-04
  1.72695739646E-04  1.75647732299E-04  1.78650185146E-04  1.81703960735E-04
  1.84809936355E-04  1.87969004294E-04  1.91182072090E-04  1.94450062796E-04
  1.97773915243E-04  2.01154584308E-04  2.04593041192E-04  2.08090273699E-04
  2.11647286514E-04  2.15265101499E-04  2.18944757982E-04  2.22687313058E-04
  2.26493841889E-04  2.30365438018E-04  2.34303213680E-04  2.38308300121E-04
  2.42381847925E-04  2.46525027344E-04  2.50739028633E-04  2.55025062393E-04
  2.59384359918E-04  2.63818173550E-04  2.68327777039E-04  2.72914465906E-04
  2.77579557817E-04  2.82324392964E-04  2.87150334446E-04  2.92058768663E-04
  2.97051105712E-04  3.02128779795E-04  3.07293249631E-04  3.12545998871E-04
  3.17888536528E-04  3.23322397410E-04  3.28849142561E-04  3.34470359707E-04
  3.40187663715E-04  3.46002697055E-04  3.51917130275E-04  3.57932662477E-04
  3.64051021807E-04  3.70273965950E-04  3.76603282638E-04  3.83040790162E-04
  3.89588337893E-04  3.96247806815E-04  4.03021110064E-04  4.09910193478E-04
  4.16917036160E-04  4.24043651038E-04  4.31292085451E-04  4.38664421735E-04
  4.46162777818E-04  4.53789307834E-04  4.61546202737E-04  4.69435690933E-04
  4.77460038919E-04  4.85621551934E-04  4.93922574624E-04  5.02365491713E-04
  5.10952728685E-04  5.19686752490E-04  5.28570072242E-04  5.37605239947E-04
  5.46794851235E-04  5.56141546102E-04  5.65648009674E-04  5.75316972974E-04
  5.85151213706E-04  5.95153557060E-04  6.05326876513E-04  6.15674094665E-04
  6.26198184070E-04  6.36902168096E-04  6.47789121790E-04  6.58862172764E-04
  6.70124502091E-04  6.81579345219E-04  6.93229992904E-04  7.05079792152E-04
  7.17132147179E-04  7.29390520396E-04  7.41858433395E-04  7.54539467966E-04
  7.67437267126E-04  7.80555536161E-04  7.93898043698E-04  8.07468622780E-04
  8.21271171972E-04  8.35309656480E-04  8.49588109288E-04  8.64110632320E-04
  8.78881397615E-04  8.93904648528E-04  9.09184700949E-04  9.24725944542E-04
  9.40532844003E-04  9.56609940351E-04  9.72961852224E-04  9.89593277209E-04
  1.00650899319E-03  1.02371385973E-03  1.04121281946E-03  1.05901089947E-03
  1.07711321283E-03  1.09552495997E-03  1.11425143023E-03  1.13329800337E-03
  1.15267015109E-03  1.17237343864E-03  1.19241352639E-03  1.21279617148E-03
  1.23352722944E-03  1.25461265589E-03  1.27605850829E-03  1.29787094761E-03
  1.32005624013E-03  1.34262075927E-03  1.36557098737E-03  1.38891351759E-03
  1.41265505578E-03  1.43680242244E-03  1.46136255463E-03  1.48634250801E-03
  1.51174945882E-03  1.53759070600E-03  1.56387367324E-03  1.59060591112E-03
  1.61779509930E-03  1.64544904870E-03  1.67357570378E-03  1.70218314477E-03
  1.73127959004E-03  1.76087339844E-03  1.79097307168E-03  1.82158725684E-03
  1.85272474876E-03  1.88439449265E-03  1.91660558662E-03  1.94936728428E-03
  1.98268899744E-03  2.01658029879E-03  2.05105092463E-03  2.08611077771E-03
  2.12176993005E-03  2.15803862583E-03  2.19492728435E-03  2.23244650301E-03
  2.27060706035E-03  2.30941991915E-03  2.34889622961E-03  2.38904733251E-03
  2.42988476247E-03  2.47142025130E-03  2.51366573135E-03  2.55663333892E-03
  2.60033541778E-03  2.64478452268E-03  2.68999342300E-03  2.73597510638E-03
  2.78274278246E-03  2.83030988669E-03  2.87869008418E-03  2.92789727363E-03
  2.97794559131E-03  3.02884941513E-03  3.08062336878E-03  3.13328232591E-03
  3.18684141442E-03  3.24131602080E-03  3.29672179455E-03  3.35307465268E-03
  3.41039078427E-03  3.46868665514E-03  3.52797901257E-03  3.58828489009E-03
  3.64962161243E-03  3.71200680043E-03  3.77545837616E-03  3.83999456802E-03
  3.90563391601E-03  3.97239527705E-03  4.04029783038E-03  4.10936108310E-03
  4.17960487573E-03  4.25104938797E-03  4.32371514443E-03  4.39762302059E-03
  4.47279424875E-03  4.54925042414E-03  4.62701351114E-03  4.70610584959E-03
  4.78655016119E-03  4.86836955602E-03  4.95158753921E-03  5.03622801770E-03
  5.12231530703E-03  5.20987413843E-03  5.29892966586E-03  5.38950747324E-03
  5.48163358182E-03  5.57533445766E-03  5.67063701920E-03  5.76756864503E-03
  5.86615718172E-03  5.96643095185E-03  6.06841876214E-03  6.17214991171E-03
  6.27765420051E-03  6.38496193789E-03  6.49410395128E-03  6.60511159507E-03
  6.71801675960E-03  6.83285188035E-03  6.94964994723E-03  7.06844451405E-03
  7.18926970820E-03  7.31216024042E-03  7.43715141478E-03  7.56427913883E-03
  7.69357993389E-03  7.82509094560E-03  7.95884995451E-03  8.09489538700E-03
  8.23326632630E-03  8.37400252369E-03  8.51714440996E-03  8.66273310701E-03
  8.81081043964E-03  8.96141894762E-03  9.11460189785E-03  9.27040329684E-03
  9.42886790330E-03  9.59004124105E-03  9.75396961207E-03  9.92070010982E-03
  1.00902806327E-02  1.02627598980E-02  1.04381874556E-02  1.06166137025E-02
  1.07980898971E-02  1.09826681739E-02  1.11704015588E-02  1.13613439838E-02
  1.15555503032E-02  1.17530763085E-02  1.19539787453E-02  1.21583153288E-02
  1.23661447610E-02  1.25775267474E-02  1.27925220138E-02  1.30111923242E-02
  1.32336004983E-02  1.34598104299E-02  1.36898871045E-02  1.39238966187E-02
  1.41619061991E-02  1.44039842210E-02  1.46502002288E-02  1.49006249557E-02
  1.51553303438E-02  1.54143895651E-02  1.56778770422E-02  1.59458684699E-02
  1.62184408372E-02  1.64956724486E-02  1.67776429475E-02  1.70644333386E-02
  1.73561260112E-02  1.76528047629E-02  1.79545548238E-02  1.82614628809E-02
  1.85736171029E-02  1.88911071657E-02  1.92140242780E-02  1.95424612077E-02
  1.98765123083E-02  2.02162735463E-02  2.05618425285E-02  2.09133185301E-02
  2.12708025235E-02  2.16343972068E-02  2.20042070338E-02  2.23803382436E-02
  2.27628988916E-02  2.31519988800E-02  2.35477499896E-02  2.39502659121E-02
  2.43596622825E-02  2.47760567126E-02  2.51995688243E-02  2.56303202845E-02
  2.60684348397E-02  2.65140383518E-02  2.69672588341E-02  2.74282264880E-02
  2.78970737406E-02  2.83739352827E-02  2.88589481073E-02  2.93522515492E-02
  2.98539873251E-02  3.03642995738E-02  3.08833348981E-02  3.14112424070E-02
  3.19481737580E-02  3.24942832011E-02  3.30497276230E-02  3.36146665920E-02
  3.41892624043E-02  3.47736801301E-02  3.53680876614E-02  3.59726557597E-02
  3.65875581060E-02  3.72129713498E-02  3.78490751601E-02  3.84960522772E-02
  3.91540885653E-02  3.98233730653E-02  4.05040980499E-02  4.11964590779E-02
  4.19006550516E-02  4.26168882725E-02  4.33453645008E-02  4.40862930136E-02