                                                                                      
                                       ``:oss/                                        
                           `.+s+.     .+ys--yh+     `./ss+.                           
                          -sh//yy+`   +yy   +yy    -+h+-oyy                           
                          -yh- .oyy/.-sh.   .syo-.:sy-  /yh                           
                 `.-.`    `yh+   -oyyyo.     `/syys:    oys      `.`                  
               `/+ssys+-` `sh+      `                   oys`   .:osyo`                
               -yh- ./syyooyo`                          .sys+/oyo--yh/                
               `yy+    .-:-.                             `-/+/:`  -sh-                
                /yh.                                              oys                 
          ``..---hho---------`   .---------..`      `.-----.`    -hd+---.             
       `./osmNMMMMMMMMMMMMMMMs. +NNMMMMMMMMNNmh+.   yNMMMMMNm-  oNMMMMMNmo++:`        
       +sy--/sdMMMhyyyyyyyNMMh- .oyNMMmyyyyyhNMMm+` -yMMMdyyo:` .oyyNMMNhs+syy`       
       -yy/   /MMM+.`-+/``mMMy-   `mMMh:`````.dMMN:` `MMMy-`-dhhy```mMMy:``+hs        
        -yy+` /MMMo:-mMM+`-oo/.    mMMh:     `dMMN/`  dMMm:`dMMMMy..MMMo-.+yo`        
         .sys`/MMMMNNMMMs-         mMMmyooooymMMNo:   oMMM/sMMMMMM++MMN//oh:          
          `sh+/MMMhyyMMMs- `-`     mMMMMMMMMMNmy+-`   -MMMhMMMsmMMmdMMd/yy+           
    `-/+++oyy-/MMM+.`/hh/.`mNm:`   mMMd+/////:-.`      NMMMMMd/:NMMMMMy:/yyo/:.`      
   +os+//:-..-oMMMo:--:::-/MMMo. .-mMMd+---`           hMMMMN+. oMMMMMo. `-+osyso:`   
   syo     `mNMMMMMNNNNNNNNMMMo.oNNMMMMMNNNN:`         +MMMMs:`  dMMMN/`     ``:syo   
   /yh`     :syyyyyyyyyyyyyyyy+.`+syyyyyyyyo:`         .oyys:`   .oyys:`        +yh   
   -yh-        ````````````````    `````````              ``        ``          oys   
   -+h/------------------------::::::::://////++++++++++++++++++++++///////::::/yd:   
   shdddddddddddddddddddddddddddddhhhhhhhhyyyyyssssssssssssssssyyyyyyyhhhhhhhddddh`   
                                                                                      
  S. Ponce, E. R. Margine, C. Verdi, and F. Giustino,                                 
                                                Comput. Phys. Commun. 209, 116 (2016) 
                                                                                      

     Program EPW v.5.7 starts on 15Apr2023 at 22:32:35 

     This program is part of the open-source Quantum ESPRESSO suite
     for quantum simulation of materials; please cite
         "P. Giannozzi et al., J. Phys.:Condens. Matter 21 395502 (2009);
         "P. Giannozzi et al., J. Phys.:Condens. Matter 29 465901 (2017);
         "P. Giannozzi et al., J. Chem. Phys. 152 154105 (2020);
          URL http://www.quantum-espresso.org", 
     in publications or presentations arising from this work. More details at
     http://www.quantum-espresso.org/quote

     Parallel version (MPI), running on     1 processors

     MPI processes distributed on     1 nodes
     49455 MiB available memory on the printing compute node when the environment starts

     Waiting for input...
     Reading input from standard input

     WARNING: The specified dis_win_min is ignored.
              You should instead use bands_skipped = 'exclude_bands = ...'
              to control the lower bound of band manifold.

     Reading supplied temperature list.
                      
     ------------------------------------------------------------------------ 
                   RESTART - RESTART - RESTART - RESTART                         
     Restart is done without reading PWSCF save file.                  
     Be aware that some consistency checks are therefore not done.                  
     ------------------------------------------------------------------------ 
                      

     --                                                                         

     bravais-lattice index     =            0
     lattice parameter (a_0)   =       0.0000  a.u.
     unit-cell volume          =       0.0000 (a.u.)^3
     number of atoms/cell      =            0
     number of atomic types    =            0
     kinetic-energy cut-off    =       0.0000  Ry
     charge density cut-off    =       0.0000  Ry
     Exchange-correlation= not set
                           (  -1  -1  -1  -1  -1  -1  -1)


     celldm(1)=    0.00000  celldm(2)=    0.00000  celldm(3)=    0.00000
     celldm(4)=    0.00000  celldm(5)=    0.00000  celldm(6)=    0.00000

     crystal axes: (cart. coord. in units of a_0)
               a(1) = (  0.0000  0.0000  0.0000 )  
               a(2) = (  0.0000  0.0000  0.0000 )  
               a(3) = (  0.0000  0.0000  0.0000 )  

     reciprocal axes: (cart. coord. in units 2 pi/a_0)
               b(1) = (  0.0000  0.0000  0.0000 )  
               b(2) = (  0.0000  0.0000  0.0000 )  
               b(3) = (  0.0000  0.0000  0.0000 )  


     Atoms inside the unit cell: 

   Cartesian axes

     site n.  atom      mass           positions (a_0 units)


     No symmetry!
                                    s                        frac. trans.

     G cutoff =    0.0000  (      0 G-vectors)     FFT grid: (  0,  0,  0)
     number of k points=    0
                       cart. coord. in units 2pi/a_0

                       cryst. coord.
     EPW          :      0.00s CPU      0.00s WALL

     EPW          :      0.00s CPU      0.00s WALL


     -------------------------------------------------------------------
     Using gan.ukk from disk
     -------------------------------------------------------------------

     Symmetries of Bravais lattice:  24
     Symmetries of crystal:          12

     Do not need to read .epb files; read .fmt files


     Band disentanglement is used: nbndsub =   14

     Computes the analytic long-range interaction for polar materials [lpolar]
      
     Construct the Wigner-Seitz cell using Wannier centers and atomic positions 
     Number of WS vectors for electrons       35
     Number of WS vectors for phonons       25
     Number of WS vectors for electron-phonon       29
     Maximum number of cores for efficient parallelization      116

     Reading Hamiltonian, Dynamical matrix and EP vertex in Wann rep from file


     Finished reading Wann rep data from file

     ===================================================================
     Memory usage:  VmHWM =        16Mb
                   VmPeak =       357Mb
     ===================================================================
     
     Using uniform q-mesh:   20  20  20
     Size of q point mesh for interpolation:       8000
     Using uniform MP k-mesh:   20  20  20
     Size of k point mesh for interpolation:       1760
     Max number of k points per pool:             1760

     Fermi energy coarse grid =  11.381868 eV

     ===================================================================

     Fermi energy is read from the input file: Ef =  11.481872 eV

     ===================================================================

     Skipping the first   12 bands:

     The Fermi level will be determined with  12.00000 electrons

              ibndmin =     4  ebndmin =    11.082 eV
              ibndmax =     6  ebndmax =    11.382 eV


     Number of ep-matrix elements per pool :        95040 ~=  742.50 Kb (@ 8 bytes/ DP)

     File ./Fepmatkq1/gan.epmatkq1_0 deleted, as requested

     File ./Fsparse/sparse_0 deleted, as requested
      
     A selecq.fmt file was found but re-created because selecqread == .FALSE. 
     Number selected, total             50             50
     Number selected, total            100            333
     Number selected, total            150            383
     Number selected, total            200            433
     Number selected, total            250            724
     Number selected, total            300            774
     Number selected, total            350            824
     Number selected, total            400           1135
     Number selected, total            450           1185
     Number selected, total            500           1528
     Number selected, total            550           1587
     Number selected, total            600           6457
     Number selected, total            650           6831
     Number selected, total            700           7158
     Number selected, total            750           7213
     Number selected, total            800           7263
     Number selected, total            850           7570
     Number selected, total            900           7620
     Number selected, total            950           7670
     Number selected, total           1000           7961
     We only need to compute     1039 q-points
      
     Valence band maximum    =  11.381868 eV
     Conduction band minimum =  13.076041 eV

     Temperature  200.000 K
     Mobility VB Fermi level =  11.646392 eV

     Temperature  300.000 K
     Mobility VB Fermi level =  11.790986 eV

     ===================================================================
     Scattering rate for IBTE
     ===================================================================

     Restart and restart_step inputs deactivated (restart point at every q-points).
     No intermediate mobility will be shown.

     Fermi Surface thickness =   0.400000 eV
     This is computed with respect to the fine Fermi level  11.481872 eV
     Only states between  11.081872 eV and  11.881872 eV will be included

     Save matrix elements larger than threshold:   0.173611111111E-24
      
     Progression iq (fine) =         50/      1039
       Adaptative smearing el-phonon = Min:     1.414214 meV
                                       Max:   186.727080 meV
     Progression iq (fine) =        100/      1039
       Adaptative smearing el-phonon = Min:    23.737228 meV
                                       Max:    72.436183 meV
     Progression iq (fine) =        150/      1039
       Adaptative smearing el-phonon = Min:     1.414214 meV
                                       Max:   193.892414 meV
     Progression iq (fine) =        200/      1039
       Adaptative smearing el-phonon = Min:    20.307099 meV
                                       Max:   193.662287 meV
     Progression iq (fine) =        250/      1039
       Adaptative smearing el-phonon = Min:    14.127279 meV
                                       Max:   134.669938 meV
     Progression iq (fine) =        300/      1039
       Adaptative smearing el-phonon = Min:    12.610551 meV
                                       Max:   134.080815 meV
     Progression iq (fine) =        350/      1039
       Adaptative smearing el-phonon = Min:    21.754012 meV
                                       Max:   199.651307 meV
     Progression iq (fine) =        400/      1039
       Adaptative smearing el-phonon = Min:    22.526419 meV
                                       Max:   195.506957 meV
     Progression iq (fine) =        450/      1039
       Adaptative smearing el-phonon = Min:    21.674852 meV
                                       Max:   199.995757 meV
     Progression iq (fine) =        500/      1039
       Adaptative smearing el-phonon = Min:    24.711940 meV
                                       Max:   196.338142 meV
     Progression iq (fine) =        550/      1039
       Adaptative smearing el-phonon = Min:    25.984690 meV
                                       Max:    78.298469 meV
     Progression iq (fine) =        600/      1039
       Adaptative smearing el-phonon = Min:    26.007620 meV
                                       Max:    78.877208 meV
     Progression iq (fine) =        650/      1039
       Adaptative smearing el-phonon = Min:    25.753616 meV
                                       Max:    79.087833 meV
     Progression iq (fine) =        700/      1039
       Adaptative smearing el-phonon = Min:    27.669047 meV
                                       Max:    80.164747 meV
     Progression iq (fine) =        750/      1039
       Adaptative smearing el-phonon = Min:    14.091636 meV
                                       Max:   196.055155 meV
     Progression iq (fine) =        800/      1039
       Adaptative smearing el-phonon = Min:    25.732309 meV
                                       Max:    77.443954 meV
     Progression iq (fine) =        850/      1039
       Adaptative smearing el-phonon = Min:    21.880656 meV
                                       Max:    73.584516 meV
     Progression iq (fine) =        900/      1039
       Adaptative smearing el-phonon = Min:    11.689473 meV
                                       Max:   185.404596 meV
     Progression iq (fine) =        950/      1039
       Adaptative smearing el-phonon = Min:    27.399690 meV
                                       Max:    78.161216 meV
     Progression iq (fine) =       1000/      1039
       Adaptative smearing el-phonon = Min:     1.414214 meV
                                       Max:   195.113453 meV
      200.000     11.6464       0.999994E+13
      300.000     11.7910       0.100000E+14
      
     epmatkqread automatically changed to .TRUE. as all scattering have been computed.
      
     ===================================================================
     Memory usage:  VmHWM =        45Mb
                   VmPeak =       383Mb
     ===================================================================

     Number of elements per core     108004
     Symmetry mapping finished
      
     =============================================================================================
     BTE in the self-energy relaxation time approximation (SERTA)
     =============================================================================================

     =============================================================================================
       Temp     Fermi   Hole density  Population SR            Drift Hole mobility 
        [K]      [eV]     [cm^-3]      [h per cell]                    [cm^2/Vs]
     =============================================================================================

      200.000  11.6464   0.99999E+13   0.33095E-23    0.695333E+02   -0.109206E-15    0.151486E-20
                                       0.00000E+00    0.198556E-16    0.695333E+02    0.000000E+00
                                       0.18574E-07    0.992993E-17    0.000000E+00    0.126470E+03
      300.000  11.7910   0.10000E+14  -0.18156E-22    0.493835E+02   -0.158844E-15    0.148431E-16
                                       0.00000E+00   -0.992773E-16    0.493835E+02    0.000000E+00
                                       0.21201E-07    0.247708E-16    0.000000E+00    0.570213E+02
      
     =============================================================================================
     Start solving iterative Boltzmann Transport Equation
     =============================================================================================

     Iteration number:         1

     =============================================================================================
       Temp     Fermi   Hole density  Population SR            Drift Hole mobility 
        [K]      [eV]     [cm^-3]      [h per cell]                    [cm^2/Vs]
     =============================================================================================

      200.000  11.6464   0.99999E+13  -0.41347E-23    0.942032E+02    0.129061E-15    0.248256E-17
                                       0.00000E+00   -0.208484E-15    0.942032E+02    0.000000E+00
                                       0.25850E-07   -0.124037E-17    0.000000E+00    0.128419E+03
      300.000  11.7910   0.10000E+14   0.58161E-25    0.656615E+02    0.000000E+00    0.396140E-16
                                       0.00000E+00   -0.436820E-15    0.656615E+02    0.000000E+00
                                       0.55523E-07   -0.513838E-17    0.000000E+00    0.615500E+02

                                                      0.128419E+03    Max error
     Iteration number:         2

     =============================================================================================
       Temp     Fermi   Hole density  Population SR            Drift Hole mobility 
        [K]      [eV]     [cm^-3]      [h per cell]                    [cm^2/Vs]
     =============================================================================================

      200.000  11.6464   0.99999E+13   0.66152E-23    0.103192E+03    0.397112E-16    0.992781E-17
                                       0.00000E+00   -0.595668E-16    0.103192E+03    0.000000E+00
                                       0.45288E-07    0.124098E-17    0.000000E+00    0.130289E+03
      300.000  11.7910   0.10000E+14  -0.12925E-25    0.714575E+02    0.158844E-15   -0.985017E-17
                                       0.00000E+00   -0.595664E-15    0.714575E+02    0.000000E+00
                                       0.10566E-06   -0.346113E-16    0.000000E+00    0.629362E+02

                                                      0.579602E+01    Max error
     Iteration number:         3

     =============================================================================================
       Temp     Fermi   Hole density  Population SR            Drift Hole mobility 
        [K]      [eV]     [cm^-3]      [h per cell]                    [cm^2/Vs]
     =============================================================================================

      200.000  11.6464   0.99999E+13  -0.66187E-23    0.106455E+03   -0.397112E-16   -0.744343E-17
                                       0.00000E+00   -0.992781E-16    0.106455E+03    0.000000E+00
                                       0.66927E-07   -0.123779E-17    0.000000E+00    0.130563E+03
      300.000  11.7910   0.10000E+14  -0.13261E-22    0.735263E+02    0.000000E+00   -0.397303E-16
                                       0.00000E+00   -0.794218E-16    0.735263E+02    0.000000E+00
                                       0.16066E-06   -0.496386E-17    0.000000E+00    0.632063E+02

                                                      0.206878E+01    Max error
     Iteration number:         4

     =============================================================================================
       Temp     Fermi   Hole density  Population SR            Drift Hole mobility 
        [K]      [eV]     [cm^-3]      [h per cell]                    [cm^2/Vs]
     =============================================================================================

      200.000  11.6464   0.99999E+13   0.49643E-23    0.107641E+03    0.000000E+00    0.148990E-16
                                       0.00000E+00   -0.198556E-16    0.107641E+03    0.000000E+00
                                       0.89035E-07    0.372444E-17    0.000000E+00    0.130629E+03
      300.000  11.7910   0.10000E+14  -0.99391E-23    0.742665E+02    0.277976E-15    0.297056E-16
                                       0.00000E+00   -0.397109E-15    0.742665E+02    0.000000E+00
                                       0.21706E-06    0.348828E-16    0.000000E+00    0.632710E+02

                                                      0.740162E+00    Max error
     Iteration number:         5

     =============================================================================================
       Temp     Fermi   Hole density  Population SR            Drift Hole mobility 
        [K]      [eV]     [cm^-3]      [h per cell]                    [cm^2/Vs]
     =============================================================================================

      200.000  11.6464   0.99999E+13   0.16540E-23    0.108072E+03   -0.397112E-16    0.496390E-17
                                       0.00000E+00   -0.794225E-16    0.108072E+03    0.000000E+00
                                       0.11069E-06    0.372592E-17    0.000000E+00    0.130643E+03
      300.000  11.7910   0.10000E+14   0.33798E-23    0.745313E+02    0.357398E-15    0.298220E-16
                                       0.00000E+00   -0.754507E-15    0.745313E+02    0.000000E+00
                                       0.27326E-06   -0.496386E-17    0.000000E+00    0.632858E+02

                                                      0.264807E+00    Max error
     Iteration number:         6

     =============================================================================================
       Temp     Fermi   Hole density  Population SR            Drift Hole mobility 
        [K]      [eV]     [cm^-3]      [h per cell]                    [cm^2/Vs]
     =============================================================================================

      200.000  11.6464   0.99999E+13  -0.66158E-23    0.108229E+03    0.158845E-15   -0.993023E-17
                                       0.00000E+00   -0.158845E-15    0.108229E+03    0.000000E+00
                                       0.13145E-06   -0.123889E-17    0.000000E+00    0.130646E+03
      300.000  11.7910   0.10000E+14  -0.99068E-23    0.746261E+02   -0.357398E-15   -0.990834E-17
                                       0.00000E+00   -0.158844E-15    0.746261E+02    0.000000E+00
                                       0.32840E-06   -0.502203E-17    0.000000E+00    0.632894E+02

                                                      0.947722E-01    Max error
     Iteration number:         7

     =============================================================================================
       Temp     Fermi   Hole density  Population SR            Drift Hole mobility 
        [K]      [eV]     [cm^-3]      [h per cell]                    [cm^2/Vs]
     =============================================================================================

      200.000  11.6464   0.99999E+13   0.16527E-23    0.108286E+03    0.138989E-15   -0.148941E-16
                                       0.00000E+00   -0.158845E-15    0.108286E+03    0.000000E+00
                                       0.15124E-06    0.248102E-17    0.000000E+00    0.130646E+03
      300.000  11.7910   0.10000E+14   0.99649E-23    0.746600E+02    0.000000E+00    0.396334E-16
                                       0.00000E+00   -0.397109E-15    0.746600E+02    0.000000E+00
                                       0.38211E-06   -0.499295E-17    0.000000E+00    0.632902E+02

                                                      0.339173E-01    Max error
     Iteration number:         8

     =============================================================================================
       Temp     Fermi   Hole density  Population SR            Drift Hole mobility 
        [K]      [eV]     [cm^-3]      [h per cell]                    [cm^2/Vs]
     =============================================================================================

      200.000  11.6464   0.99999E+13  -0.49623E-23    0.108307E+03    0.595668E-16    0.496027E-17
                                       0.00000E+00   -0.119134E-15    0.108307E+03    0.000000E+00
                                       0.16997E-06    0.372210E-17    0.000000E+00    0.130646E+03
      300.000  11.7910   0.10000E+14  -0.19387E-25    0.746721E+02    0.000000E+00    0.775604E-19
                                       0.00000E+00   -0.119133E-15    0.746721E+02    0.000000E+00
                                       0.43413E-06   -0.498810E-17    0.000000E+00    0.632904E+02

                                                      0.121392E-01    Max error
     Iteration number:         9

     =============================================================================================
       Temp     Fermi   Hole density  Population SR            Drift Hole mobility 
        [K]      [eV]     [cm^-3]      [h per cell]                    [cm^2/Vs]
     =============================================================================================

      200.000  11.6464   0.99999E+13  -0.49643E-23    0.108314E+03   -0.595668E-16   -0.124170E-16
                                       0.00000E+00    0.198556E-16    0.108314E+03    0.000000E+00
                                       0.18771E-06    0.371817E-17    0.000000E+00    0.130646E+03
      300.000  11.7910   0.10000E+14  -0.13196E-22    0.746765E+02   -0.119133E-15    0.213291E-18
                                       0.00000E+00   -0.158844E-15    0.746765E+02    0.000000E+00
                                       0.48441E-06    0.148431E-16    0.000000E+00    0.632905E+02

                                                      0.434470E-02    Max error
     Iteration number:        10

     =============================================================================================
       Temp     Fermi   Hole density  Population SR            Drift Hole mobility 
        [K]      [eV]     [cm^-3]      [h per cell]                    [cm^2/Vs]
     =============================================================================================

      200.000  11.6464   0.99999E+13  -0.49631E-23    0.108317E+03    0.794225E-16   -0.496148E-17
                                       0.00000E+00   -0.119134E-15    0.108317E+03    0.000000E+00
                                       0.20443E-06   -0.620816E-17    0.000000E+00    0.130646E+03
      300.000  11.7910   0.10000E+14  -0.98486E-23    0.746780E+02    0.794218E-16    0.297832E-16
                                       0.00000E+00   -0.516242E-15    0.746780E+02    0.000000E+00
                                       0.53285E-06    0.150370E-16    0.000000E+00    0.632905E+02

                                                      0.155501E-02    Max error
     Iteration number:        11

     =============================================================================================
       Temp     Fermi   Hole density  Population SR            Drift Hole mobility 
        [K]      [eV]     [cm^-3]      [h per cell]                    [cm^2/Vs]
     =============================================================================================

      200.000  11.6464   0.99999E+13  -0.16536E-23    0.108318E+03   -0.198556E-16   -0.496269E-17
                                       0.00000E+00   -0.198556E-15    0.108318E+03    0.000000E+00
                                       0.22023E-06   -0.620066E-17    0.000000E+00    0.130646E+03
      300.000  11.7910   0.10000E+14   0.13248E-22    0.746786E+02    0.119133E-15    0.396721E-16
                                       0.00000E+00   -0.436820E-15    0.746786E+02    0.000000E+00
                                       0.57948E-06    0.147619E-16    0.000000E+00    0.632906E+02

                                                      0.556555E-03    Max error
     Iteration number:        12

     =============================================================================================
       Temp     Fermi   Hole density  Population SR            Drift Hole mobility 
        [K]      [eV]     [cm^-3]      [h per cell]                    [cm^2/Vs]
     =============================================================================================

      200.000  11.6464   0.99999E+13   0.49603E-23    0.108318E+03   -0.992781E-16   -0.247468E-17
                                       0.00000E+00    0.397112E-16    0.108318E+03    0.000000E+00
                                       0.23511E-06    0.372607E-17    0.000000E+00    0.130646E+03
      300.000  11.7910   0.10000E+14   0.96935E-25    0.746788E+02   -0.794218E-16   -0.396140E-16
                                       0.00000E+00   -0.397109E-15    0.746788E+02    0.000000E+00
                                       0.62431E-06    0.150870E-16    0.000000E+00    0.632906E+02

                                                      0.199197E-03    Max error
     Iteration number:        13

     =============================================================================================
       Temp     Fermi   Hole density  Population SR            Drift Hole mobility 
        [K]      [eV]     [cm^-3]      [h per cell]                    [cm^2/Vs]
     =============================================================================================

      200.000  11.6464   0.99999E+13  -0.49659E-23    0.108318E+03   -0.397112E-16    0.496269E-17
                                       0.00000E+00    0.397112E-16    0.108318E+03    0.000000E+00
                                       0.24915E-06   -0.620560E-17    0.000000E+00    0.130646E+03
      300.000  11.7910   0.10000E+14  -0.99132E-23    0.746788E+02    0.397109E-16   -0.495999E-16
                                       0.00000E+00   -0.555953E-15    0.746788E+02    0.000000E+00
                                       0.66736E-06   -0.249987E-16    0.000000E+00    0.632906E+02

                                                      0.712950E-04    Max error
     Iteration number:        14

     =============================================================================================
       Temp     Fermi   Hole density  Population SR            Drift Hole mobility 
        [K]      [eV]     [cm^-3]      [h per cell]                    [cm^2/Vs]
     =============================================================================================

      200.000  11.6464   0.99999E+13  -0.49631E-23    0.108318E+03    0.198556E-16    0.496390E-17
                                       0.00000E+00   -0.158845E-15    0.108318E+03    0.000000E+00
                                       0.26236E-06   -0.248385E-17    0.000000E+00    0.130646E+03
      300.000  11.7910   0.10000E+14   0.33346E-23    0.746789E+02   -0.158844E-15    0.298414E-16
                                       0.00000E+00   -0.238266E-15    0.746789E+02    0.000000E+00
                                       0.70868E-06   -0.476148E-17    0.000000E+00    0.632906E+02

                                                      0.255173E-04    Max error
     Iteration number:        15

     =============================================================================================
       Temp     Fermi   Hole density  Population SR            Drift Hole mobility 
        [K]      [eV]     [cm^-3]      [h per cell]                    [cm^2/Vs]
     =============================================================================================

      200.000  11.6464   0.99999E+13  -0.49615E-23    0.108318E+03    0.000000E+00   -0.148953E-16
                                       0.00000E+00   -0.595668E-16    0.108318E+03    0.000000E+00
                                       0.27483E-06    0.372478E-17    0.000000E+00    0.130646E+03
      300.000  11.7910   0.10000E+14   0.19387E-25    0.746789E+02   -0.119133E-15    0.581703E-19
                                       0.00000E+00   -0.397109E-15    0.746789E+02    0.000000E+00
                                       0.74831E-06   -0.485964E-17    0.000000E+00    0.632906E+02

                                                      0.913296E-05    Max error
     Iteration number:        16

     =============================================================================================
       Temp     Fermi   Hole density  Population SR            Drift Hole mobility 
        [K]      [eV]     [cm^-3]      [h per cell]                    [cm^2/Vs]
     =============================================================================================

      200.000  11.6464   0.99999E+13  -0.80779E-27    0.108318E+03    0.198556E-16    0.000000E+00
                                       0.00000E+00   -0.178701E-15    0.108318E+03    0.000000E+00
                                       0.28656E-06    0.372876E-17    0.000000E+00    0.130646E+03
      300.000  11.7910   0.10000E+14  -0.25849E-25    0.746789E+02   -0.794218E-16   -0.100635E-16
                                       0.00000E+00   -0.317687E-15    0.746789E+02    0.000000E+00
                                       0.78631E-06   -0.492024E-17    0.000000E+00    0.632907E+02

                                                      0.326879E-05    Max error
     Iteration number:        17

     =============================================================================================
       Temp     Fermi   Hole density  Population SR            Drift Hole mobility 
        [K]      [eV]     [cm^-3]      [h per cell]                    [cm^2/Vs]
     =============================================================================================

      200.000  11.6464   0.99999E+13  -0.66183E-23    0.108318E+03   -0.992781E-16   -0.247589E-17
                                       0.00000E+00    0.198556E-16    0.108318E+03    0.000000E+00
                                       0.29762E-06   -0.124533E-17    0.000000E+00    0.130646E+03
      300.000  11.7910   0.10000E+14   0.13248E-22    0.746789E+02    0.119133E-15   -0.986956E-17
                                       0.00000E+00   -0.436820E-15    0.746789E+02    0.000000E+00
                                       0.82273E-06   -0.246666E-16    0.000000E+00    0.632907E+02

                                                      0.116994E-05    Max error
     Iteration number:        18

     =============================================================================================
       Temp     Fermi   Hole density  Population SR            Drift Hole mobility 
        [K]      [eV]     [cm^-3]      [h per cell]                    [cm^2/Vs]
     =============================================================================================

      200.000  11.6464   0.99999E+13   0.16503E-23    0.108318E+03    0.794225E-16   -0.124134E-16
                                       0.00000E+00    0.000000E+00    0.108318E+03    0.000000E+00
                                       0.30802E-06    0.372569E-17    0.000000E+00    0.130646E+03
      300.000  11.7910   0.10000E+14  -0.16485E-22    0.746789E+02    0.198555E-15   -0.296668E-16
                                       0.00000E+00   -0.555953E-15    0.746789E+02    0.000000E+00
                                       0.85762E-06   -0.484752E-17    0.000000E+00    0.632907E+02

                                                      0.672847E-06    Max error

     Unfolding on the coarse grid
     elphon_wrap  :      0.00s CPU      0.00s WALL (       1 calls)

     INITIALIZATION: 




     Electron-Phonon interpolation
     ephwann      :    223.90s CPU    231.68s WALL (       1 calls)
     ep-interp    :    221.15s CPU    228.92s WALL (    1039 calls)

     DynW2B       :      0.82s CPU      0.84s WALL (    1039 calls)
     HamW2B       :     95.68s CPU     97.19s WALL ( 1831280 calls)
     ephW2Bp      :     26.10s CPU     31.57s WALL (    1039 calls)
     ephW2B       :     11.67s CPU     11.75s WALL (   16922 calls)
     print_ibte   :      2.43s CPU      2.54s WALL (    1039 calls)
     vmewan2bloch :      3.57s CPU      3.61s WALL (   34883 calls)
     vmewan2bloch :      3.57s CPU      3.61s WALL (   34883 calls)


     Total program execution
     EPW          :   3m43.90s CPU   3m51.68s WALL

     ===============================================================================
     The functionality-dependent EPW.bib file was created with suggested citations. 
     Please consider citing the papers listed in EPW.bib.                           
     ===============================================================================
                                                                                    
