                                                                                      
                                       ``:oss/                                        
                           `.+s+.     .+ys--yh+     `./ss+.                           
                          -sh//yy+`   +yy   +yy    -+h+-oyy                           
                          -yh- .oyy/.-sh.   .syo-.:sy-  /yh                           
                 `.-.`    `yh+   -oyyyo.     `/syys:    oys      `.`                  
               `/+ssys+-` `sh+      `                   oys`   .:osyo`                
               -yh- ./syyooyo`                          .sys+/oyo--yh/                
               `yy+    .-:-.                             `-/+/:`  -sh-                
                /yh.                                              oys                 
          ``..---hho---------`   .---------..`      `.-----.`    -hd+---.             
       `./osmNMMMMMMMMMMMMMMMs. +NNMMMMMMMMNNmh+.   yNMMMMMNm-  oNMMMMMNmo++:`        
       +sy--/sdMMMhyyyyyyyNMMh- .oyNMMmyyyyyhNMMm+` -yMMMdyyo:` .oyyNMMNhs+syy`       
       -yy/   /MMM+.`-+/``mMMy-   `mMMh:`````.dMMN:` `MMMy-`-dhhy```mMMy:``+hs        
        -yy+` /MMMo:-mMM+`-oo/.    mMMh:     `dMMN/`  dMMm:`dMMMMy..MMMo-.+yo`        
         .sys`/MMMMNNMMMs-         mMMmyooooymMMNo:   oMMM/sMMMMMM++MMN//oh:          
          `sh+/MMMhyyMMMs- `-`     mMMMMMMMMMNmy+-`   -MMMhMMMsmMMmdMMd/yy+           
    `-/+++oyy-/MMM+.`/hh/.`mNm:`   mMMd+/////:-.`      NMMMMMd/:NMMMMMy:/yyo/:.`      
   +os+//:-..-oMMMo:--:::-/MMMo. .-mMMd+---`           hMMMMN+. oMMMMMo. `-+osyso:`   
   syo     `mNMMMMMNNNNNNNNMMMo.oNNMMMMMNNNN:`         +MMMMs:`  dMMMN/`     ``:syo   
   /yh`     :syyyyyyyyyyyyyyyy+.`+syyyyyyyyo:`         .oyys:`   .oyys:`        +yh   
   -yh-        ````````````````    `````````              ``        ``          oys   
   -+h/------------------------::::::::://////++++++++++++++++++++++///////::::/yd:   
   shdddddddddddddddddddddddddddddhhhhhhhhyyyyyssssssssssssssssyyyyyyyhhhhhhhddddh`   
                                                                                      
  S. Ponce, E. R. Margine, C. Verdi, and F. Giustino,                                 
                                                Comput. Phys. Commun. 209, 116 (2016) 
                                                                                      

     Program EPW v.5.2.0 starts on 25Sep2019 at 14:21:58 

     This program is part of the open-source Quantum ESPRESSO suite
     for quantum simulation of materials; please cite
         "P. Giannozzi et al., J. Phys.:Condens. Matter 21 395502 (2009);
         "P. Giannozzi et al., J. Phys.:Condens. Matter 29 465901 (2017);
          URL http://www.quantum-espresso.org", 
     in publications or presentations arising from this work. More details at
     http://www.quantum-espresso.org/quote

     Parallel version (MPI), running on     2 processors

     MPI processes distributed on     1 nodes
     K-points division:     npool     =       2
                      
     ------------------------------------------------------------------------ 
                   RESTART - RESTART - RESTART - RESTART                         
     Restart is done without reading PWSCF save file.                  
     Be aware that some consistency checks are therefore not done.                  
     ------------------------------------------------------------------------ 
                      

     --                                                                         

     bravais-lattice index     =            0
     lattice parameter (a_0)   =       0.0000  a.u.
     unit-cell volume          =       0.0000 (a.u.)^3
     number of atoms/cell      =            0
     number of atomic types    =            0
     kinetic-energy cut-off    =       0.0000  Ry
     charge density cut-off    =       0.0000  Ry
     Exchange-correlation= not set
                           (  -1  -1  -1  -1  -1  -1  -1)


     celldm(1)=    0.00000  celldm(2)=    0.00000  celldm(3)=    0.00000
     celldm(4)=    0.00000  celldm(5)=    0.00000  celldm(6)=    0.00000

     crystal axes: (cart. coord. in units of a_0)
               a(1) = (  0.0000  0.0000  0.0000 )  
               a(2) = (  0.0000  0.0000  0.0000 )  
               a(3) = (  0.0000  0.0000  0.0000 )  

     reciprocal axes: (cart. coord. in units 2 pi/a_0)
               b(1) = (  0.0000  0.0000  0.0000 )  
               b(2) = (  0.0000  0.0000  0.0000 )  
               b(3) = (  0.0000  0.0000  0.0000 )  


     Atoms inside the unit cell: 

   Cartesian axes

     site n.  atom      mass           positions (a_0 units)


     No symmetry!
                                    s                        frac. trans.

     G cutoff =    0.0000  (      0 G-vectors)     FFT grid: (  0,  0,  0)
     number of k points=    0
                       cart. coord. in units 2pi/a_0

                       cryst. coord.
     EPW          :      0.00s CPU      0.00s WALL

     EPW          :      0.00s CPU      0.00s WALL

     No wavefunction gauge setting applied

     -------------------------------------------------------------------
     Using gan.ukk from disk
     -------------------------------------------------------------------


     Using kmap and kgmap from disk

     Do not need to read .epb files; read .fmt files


     Band disentanglement is used: nbndsub =   14
     Construct the Wigner-Seitz cell using Wannier centers and atomic positions 
     Number of WS vectors for electrons       35
     Number of WS vectors for phonons       25
     Number of WS vectors for electron-phonon       29
     Maximum number of cores for efficient parallelization      116

     Reading Hamiltonian, Dynamical matrix and EP vertex in Wann rep from file


     Finished reading Wann rep data from file

     ===================================================================
     Memory usage:  VmHWM =        14Mb
                   VmPeak =       397Mb
     ===================================================================
     
     Using uniform q-mesh:   12  12  12
     Size of q point mesh for interpolation:       1728
     Using uniform MP k-mesh:   12  12  12
     Size of k point mesh for interpolation:        266
     Max number of k points per pool:              134

     Fermi energy coarse grid =   0.000000 eV

     ===================================================================

     Fermi energy is read from the input file: Ef =  11.481872 eV

     ===================================================================

     Skipping the first   12 bands:

     The Fermi level will be determined with  12.00000 electrons

              ibndmin =     4  ebndmin =     0.816
              ibndmax =     6  ebndmax =     0.837


     Number of ep-matrix elements per pool :         7236 ~=   56.53 Kb (@ 8 bytes/ DP)
      
     A selecq.fmt file was found but re-created because selecqread == .FALSE. 
     Number selected, total             50            148
     Number selected, total            100           1443
     Number selected, total            150           1715
     We only need to compute      162 q-points
      
     Valence band maximum    =  11.381872 eV
     Conduction band minimum =  13.076046 eV

     Temperature  100.000 K
     Mobility VB Fermi level =  11.517589 eV

     Temperature  300.000 K
     Mobility VB Fermi level =  11.804356 eV

     ===================================================================
     Scattering rate for IBTE
     ===================================================================

     Restart and restart_freq inputs deactivated (restart point at every q-points).
     No intermediate mobility will be shown.

     Fermi Surface thickness =   0.400000 eV
     This is computed with respect to the fine Fermi level  11.481872 eV
     Only states between  11.081872 eV and  11.881872 eV will be included

     Save matrix elements larger than threshold:   0.372108862978E-23
      
     Progression iq (fine) =         50/       162
       Adaptative smearing = Min:     0.109024 meV
                             Max:   129.423060 meV
     Progression iq (fine) =        100/       162
       Adaptative smearing = Min:    28.955415 meV
                             Max:   319.309341 meV
     Progression iq (fine) =        150/       162
       Adaptative smearing = Min:    50.727379 meV
                             Max:   148.722873 meV
      100.000     11.5176       0.999992E+13
      300.000     11.8044       0.100000E+14
      
     epmatkqread automatically changed to .TRUE. as all scattering have been computed.
      
     ===================================================================
     Memory usage:  VmHWM =        22Mb
                   VmPeak =       438Mb
     ===================================================================

     Number of elements per core       1696
     Symmetry mapping finished

     =============================================================================================
       Temp     Fermi   Hole density  Population SR                  Hole mobility 
        [K]      [eV]     [cm^-3]      [h per cell]                    [cm^2/Vs]
     =============================================================================================

      100.000  11.5176   0.99999E+13   0.25244E-28    0.361754E-01    0.000000E+00    0.000000E+00
                                                      0.000000E+00    0.361754E-01    0.000000E+00
                                                      0.000000E+00    0.000000E+00    0.641343E+04
      300.000  11.8044   0.10000E+14  -0.54620E-22    0.124874E+02    0.000000E+00    0.000000E+00
                                                     -0.620483E-18    0.124874E+02    0.000000E+00
                                                      0.000000E+00    0.000000E+00    0.483775E+03
      
     =============================================================================================
     Start solving iterative Boltzmann Transport Equation
     =============================================================================================


     Iteration number:         1 


     =============================================================================================
       Temp     Fermi   Hole density  Population SR                  Hole mobility 
        [K]      [eV]     [cm^-3]      [h per cell]                    [cm^2/Vs]
     =============================================================================================

      100.000  11.5176   0.99999E+13   0.00000E+00    0.408829E-01    0.000000E+00    0.206022E-19
                                                      0.000000E+00    0.408829E-01    0.000000E+00
                                                      0.000000E+00    0.000000E+00    0.456672E+04
      300.000  11.8044   0.10000E+14   0.00000E+00    0.148240E+02   -0.310242E-18    0.000000E+00
                                                     -0.310242E-18    0.148240E+02    0.000000E+00
                                                      0.000000E+00    0.000000E+00    0.442714E+03

                                                      0.456672E+04    Max error

     Iteration number:         2 


     =============================================================================================
       Temp     Fermi   Hole density  Population SR                  Hole mobility 
        [K]      [eV]     [cm^-3]      [h per cell]                    [cm^2/Vs]
     =============================================================================================

      100.000  11.5176   0.99999E+13   0.00000E+00    0.415795E-01    0.000000E+00    0.000000E+00
                                                      0.000000E+00    0.415795E-01    0.000000E+00
                                                      0.000000E+00    0.000000E+00    0.517317E+04
      300.000  11.8044   0.10000E+14   0.00000E+00    0.152841E+02   -0.310242E-18    0.000000E+00
                                                     -0.310242E-18    0.152841E+02    0.000000E+00
                                                      0.000000E+00    0.000000E+00    0.446472E+03

                                                      0.606448E+03    Max error

     Iteration number:         3 


     =============================================================================================
       Temp     Fermi   Hole density  Population SR                  Hole mobility 
        [K]      [eV]     [cm^-3]      [h per cell]                    [cm^2/Vs]
     =============================================================================================

      100.000  11.5176   0.99999E+13  -0.40390E-27    0.416781E-01    0.000000E+00    0.206022E-19
                                                      0.000000E+00    0.416781E-01    0.000000E+00
                                                      0.000000E+00    0.000000E+00    0.499806E+04
      300.000  11.8044   0.10000E+14  -0.33087E-23    0.153734E+02   -0.310242E-18    0.000000E+00
                                                     -0.620483E-18    0.153734E+02    0.000000E+00
                                                      0.000000E+00    0.000000E+00    0.446155E+03

                                                      0.175102E+03    Max error

     Iteration number:         4 


     =============================================================================================
       Temp     Fermi   Hole density  Population SR                  Hole mobility 
        [K]      [eV]     [cm^-3]      [h per cell]                    [cm^2/Vs]
     =============================================================================================

      100.000  11.5176   0.99999E+13  -0.40390E-27    0.416922E-01    0.000000E+00    0.206022E-19
                                                      0.000000E+00    0.416922E-01    0.000000E+00
                                                      0.000000E+00    0.000000E+00    0.505545E+04
      300.000  11.8044   0.10000E+14   0.56248E-22    0.153908E+02   -0.310242E-18    0.000000E+00
                                                     -0.620483E-18    0.153908E+02    0.000000E+00
                                                      0.000000E+00    0.000000E+00    0.446184E+03

                                                      0.573851E+02    Max error

     Iteration number:         5 


     =============================================================================================
       Temp     Fermi   Hole density  Population SR                  Hole mobility 
        [K]      [eV]     [cm^-3]      [h per cell]                    [cm^2/Vs]
     =============================================================================================

      100.000  11.5176   0.99999E+13   0.40390E-27    0.416942E-01    0.000000E+00    0.000000E+00
                                                      0.000000E+00    0.416942E-01    0.000000E+00
                                                      0.000000E+00    0.000000E+00    0.503885E+04
      300.000  11.8044   0.10000E+14  -0.33087E-23    0.153942E+02   -0.310242E-18    0.000000E+00
                                                     -0.310242E-18    0.153942E+02    0.000000E+00
                                                      0.000000E+00    0.000000E+00    0.446181E+03

                                                      0.166027E+02    Max error

     Iteration number:         6 


     =============================================================================================
       Temp     Fermi   Hole density  Population SR                  Hole mobility 
        [K]      [eV]     [cm^-3]      [h per cell]                    [cm^2/Vs]
     =============================================================================================

      100.000  11.5176   0.99999E+13   0.00000E+00    0.416945E-01    0.000000E+00    0.000000E+00
                                                      0.000000E+00    0.416945E-01    0.000000E+00
                                                      0.000000E+00    0.000000E+00    0.504428E+04
      300.000  11.8044   0.10000E+14   0.00000E+00    0.153948E+02   -0.310242E-18    0.000000E+00
                                                     -0.930725E-18    0.153948E+02    0.000000E+00
                                                      0.000000E+00    0.000000E+00    0.446182E+03

                                                      0.543024E+01    Max error

     Iteration number:         7 


     =============================================================================================
       Temp     Fermi   Hole density  Population SR                  Hole mobility 
        [K]      [eV]     [cm^-3]      [h per cell]                    [cm^2/Vs]
     =============================================================================================

      100.000  11.5176   0.99999E+13  -0.40390E-27    0.416945E-01    0.000000E+00   -0.206022E-19
                                                      0.000000E+00    0.416945E-01    0.000000E+00
                                                      0.000000E+00    0.000000E+00    0.504270E+04
      300.000  11.8044   0.10000E+14   0.25849E-25    0.153950E+02   -0.310242E-18    0.000000E+00
                                                     -0.620483E-18    0.153950E+02    0.000000E+00
                                                      0.000000E+00    0.000000E+00    0.446182E+03

                                                      0.157417E+01    Max error

     Iteration number:         8 


     =============================================================================================
       Temp     Fermi   Hole density  Population SR                  Hole mobility 
        [K]      [eV]     [cm^-3]      [h per cell]                    [cm^2/Vs]
     =============================================================================================

      100.000  11.5176   0.99999E+13  -0.40390E-27    0.416945E-01    0.000000E+00    0.000000E+00
                                                      0.000000E+00    0.416945E-01    0.000000E+00
                                                      0.000000E+00    0.000000E+00    0.504322E+04
      300.000  11.8044   0.10000E+14   0.33087E-23    0.153950E+02   -0.310242E-18    0.000000E+00
                                                     -0.310242E-18    0.153950E+02    0.000000E+00
                                                      0.000000E+00    0.000000E+00    0.446182E+03

                                                      0.513867E+00    Max error

     Iteration number:         9 


     =============================================================================================
       Temp     Fermi   Hole density  Population SR                  Hole mobility 
        [K]      [eV]     [cm^-3]      [h per cell]                    [cm^2/Vs]
     =============================================================================================

      100.000  11.5176   0.99999E+13   0.00000E+00    0.416945E-01    0.000000E+00   -0.206022E-19
                                                      0.000000E+00    0.416945E-01    0.000000E+00
                                                      0.000000E+00    0.000000E+00    0.504307E+04
      300.000  11.8044   0.10000E+14  -0.32829E-23    0.153950E+02   -0.310242E-18    0.000000E+00
                                                     -0.620483E-18    0.153950E+02    0.000000E+00
                                                      0.000000E+00    0.000000E+00    0.446182E+03

                                                      0.149249E+00    Max error

     Iteration number:        10 


     =============================================================================================
       Temp     Fermi   Hole density  Population SR                  Hole mobility 
        [K]      [eV]     [cm^-3]      [h per cell]                    [cm^2/Vs]
     =============================================================================================

      100.000  11.5176   0.99999E+13  -0.40390E-27    0.416945E-01    0.000000E+00    0.000000E+00
                                                      0.000000E+00    0.416945E-01    0.000000E+00
                                                      0.000000E+00    0.000000E+00    0.504312E+04
      300.000  11.8044   0.10000E+14   0.52940E-22    0.153950E+02   -0.310242E-18    0.000000E+00
                                                     -0.310242E-18    0.153950E+02    0.000000E+00
                                                      0.000000E+00    0.000000E+00    0.446182E+03

                                                      0.486291E-01    Max error

     Iteration number:        11 


     =============================================================================================
       Temp     Fermi   Hole density  Population SR                  Hole mobility 
        [K]      [eV]     [cm^-3]      [h per cell]                    [cm^2/Vs]
     =============================================================================================

      100.000  11.5176   0.99999E+13   0.40390E-27    0.416945E-01    0.000000E+00   -0.206022E-19
                                                      0.000000E+00    0.416945E-01    0.000000E+00
                                                      0.000000E+00    0.000000E+00    0.504310E+04
      300.000  11.8044   0.10000E+14  -0.52940E-22    0.153950E+02   -0.310242E-18    0.000000E+00
                                                     -0.310242E-18    0.153950E+02    0.000000E+00
                                                      0.000000E+00    0.000000E+00    0.446182E+03

                                                      0.141500E-01    Max error

     Iteration number:        12 


     =============================================================================================
       Temp     Fermi   Hole density  Population SR                  Hole mobility 
        [K]      [eV]     [cm^-3]      [h per cell]                    [cm^2/Vs]
     =============================================================================================

      100.000  11.5176   0.99999E+13   0.00000E+00    0.416945E-01    0.000000E+00    0.000000E+00
                                                      0.000000E+00    0.416945E-01    0.000000E+00
                                                      0.000000E+00    0.000000E+00    0.504311E+04
      300.000  11.8044   0.10000E+14  -0.49631E-22    0.153950E+02   -0.310242E-18    0.000000E+00
                                                     -0.310242E-18    0.153950E+02    0.000000E+00
                                                      0.000000E+00    0.000000E+00    0.446182E+03

                                                      0.460207E-02    Max error

     Iteration number:        13 


     =============================================================================================
       Temp     Fermi   Hole density  Population SR                  Hole mobility 
        [K]      [eV]     [cm^-3]      [h per cell]                    [cm^2/Vs]
     =============================================================================================

      100.000  11.5176   0.99999E+13   0.00000E+00    0.416945E-01    0.000000E+00    0.000000E+00
                                                      0.000000E+00    0.416945E-01    0.000000E+00
                                                      0.000000E+00    0.000000E+00    0.504311E+04
      300.000  11.8044   0.10000E+14   0.49631E-22    0.153950E+02   -0.310242E-18    0.000000E+00
                                                     -0.310242E-18    0.153950E+02    0.000000E+00
                                                      0.000000E+00    0.000000E+00    0.446182E+03

                                                      0.134149E-02    Max error

     Iteration number:        14 


     =============================================================================================
       Temp     Fermi   Hole density  Population SR                  Hole mobility 
        [K]      [eV]     [cm^-3]      [h per cell]                    [cm^2/Vs]
     =============================================================================================

      100.000  11.5176   0.99999E+13   0.00000E+00    0.416945E-01    0.000000E+00    0.000000E+00
                                                      0.000000E+00    0.416945E-01    0.000000E+00
                                                      0.000000E+00    0.000000E+00    0.504311E+04
      300.000  11.8044   0.10000E+14  -0.33087E-23    0.153950E+02   -0.310242E-18    0.000000E+00
                                                      0.000000E+00    0.153950E+02    0.000000E+00
                                                      0.000000E+00    0.000000E+00    0.446182E+03

                                                      0.435534E-03    Max error

     Iteration number:        15 


     =============================================================================================
       Temp     Fermi   Hole density  Population SR                  Hole mobility 
        [K]      [eV]     [cm^-3]      [h per cell]                    [cm^2/Vs]
     =============================================================================================

      100.000  11.5176   0.99999E+13   0.40390E-27    0.416945E-01    0.000000E+00    0.000000E+00
                                                      0.000000E+00    0.416945E-01    0.000000E+00
                                                      0.000000E+00    0.000000E+00    0.504311E+04
      300.000  11.8044   0.10000E+14  -0.33346E-23    0.153950E+02   -0.310242E-18    0.000000E+00
                                                     -0.620483E-18    0.153950E+02    0.000000E+00
                                                      0.000000E+00    0.000000E+00    0.446182E+03

                                                      0.127177E-03    Max error

     Iteration number:        16 


     =============================================================================================
       Temp     Fermi   Hole density  Population SR                  Hole mobility 
        [K]      [eV]     [cm^-3]      [h per cell]                    [cm^2/Vs]
     =============================================================================================

      100.000  11.5176   0.99999E+13   0.00000E+00    0.416945E-01    0.000000E+00   -0.206022E-19
                                                      0.000000E+00    0.416945E-01    0.000000E+00
                                                      0.000000E+00    0.000000E+00    0.504311E+04
      300.000  11.8044   0.10000E+14   0.00000E+00    0.153950E+02   -0.310242E-18    0.000000E+00
                                                      0.310242E-18    0.153950E+02    0.000000E+00
                                                      0.000000E+00    0.000000E+00    0.446182E+03

                                                      0.412194E-04    Max error

     Iteration number:        17 


     =============================================================================================
       Temp     Fermi   Hole density  Population SR                  Hole mobility 
        [K]      [eV]     [cm^-3]      [h per cell]                    [cm^2/Vs]
     =============================================================================================

      100.000  11.5176   0.99999E+13   0.00000E+00    0.416945E-01    0.000000E+00    0.000000E+00
                                                      0.000000E+00    0.416945E-01    0.000000E+00
                                                      0.000000E+00    0.000000E+00    0.504311E+04
      300.000  11.8044   0.10000E+14  -0.52914E-22    0.153950E+02   -0.310242E-18    0.000000E+00
                                                     -0.620483E-18    0.153950E+02    0.000000E+00
                                                      0.000000E+00    0.000000E+00    0.446182E+03

                                                      0.120563E-04    Max error

     Iteration number:        18 


     =============================================================================================
       Temp     Fermi   Hole density  Population SR                  Hole mobility 
        [K]      [eV]     [cm^-3]      [h per cell]                    [cm^2/Vs]
     =============================================================================================

      100.000  11.5176   0.99999E+13  -0.40390E-27    0.416945E-01    0.000000E+00    0.000000E+00
                                                      0.000000E+00    0.416945E-01    0.000000E+00
                                                      0.000000E+00    0.000000E+00    0.504311E+04
      300.000  11.8044   0.10000E+14  -0.33087E-23    0.153950E+02   -0.310242E-18    0.000000E+00
                                                      0.000000E+00    0.153950E+02    0.000000E+00
                                                      0.000000E+00    0.000000E+00    0.446182E+03

                                                      0.390116E-05    Max error

     Iteration number:        19 


     =============================================================================================
       Temp     Fermi   Hole density  Population SR                  Hole mobility 
        [K]      [eV]     [cm^-3]      [h per cell]                    [cm^2/Vs]
     =============================================================================================

      100.000  11.5176   0.99999E+13   0.00000E+00    0.416945E-01    0.000000E+00    0.000000E+00
                                                      0.000000E+00    0.416945E-01    0.000000E+00
                                                      0.000000E+00    0.000000E+00    0.504311E+04
      300.000  11.8044   0.10000E+14   0.33087E-23    0.153950E+02   -0.310242E-18    0.000000E+00
                                                     -0.310242E-18    0.153950E+02    0.000000E+00
                                                      0.000000E+00    0.000000E+00    0.446182E+03

                                                      0.114290E-05    Max error

     Iteration number:        20 


     =============================================================================================
       Temp     Fermi   Hole density  Population SR                  Hole mobility 
        [K]      [eV]     [cm^-3]      [h per cell]                    [cm^2/Vs]
     =============================================================================================

      100.000  11.5176   0.99999E+13   0.00000E+00    0.416945E-01    0.000000E+00    0.000000E+00
                                                      0.000000E+00    0.416945E-01    0.000000E+00
                                                      0.000000E+00    0.000000E+00    0.504311E+04
      300.000  11.8044   0.10000E+14  -0.33087E-23    0.153950E+02   -0.310242E-18    0.000000E+00
                                                     -0.310242E-18    0.153950E+02    0.000000E+00
                                                      0.000000E+00    0.000000E+00    0.446182E+03

                                                      0.369228E-06    Max error

     Unfolding on the coarse grid
     elphon_wrap  :      0.00s CPU      0.00s WALL (       1 calls)

     INITIALIZATION: 




     Electron-Phonon interpolation
     ephwann      :     11.39s CPU     11.90s WALL (       1 calls)
     ep-interp    :      7.59s CPU      8.08s WALL (     162 calls)

     DynW2B       :      0.01s CPU      0.01s WALL (     162 calls)
     HamW2B       :      1.41s CPU      1.43s WALL (   21909 calls)
     ephW2Bp      :      1.80s CPU      2.22s WALL (     162 calls)
     ephW2B       :      0.07s CPU      0.07s WALL (     351 calls)
     print_ibte   :      0.12s CPU      0.13s WALL (     162 calls)
     vmewan2bloch :      0.08s CPU      0.09s WALL (     864 calls)
     vmewan2bloch :      0.08s CPU      0.09s WALL (     864 calls)
     kpoint_paral :      0.00s CPU      0.00s WALL (       1 calls)


     Total program execution
     EPW          :     11.39s CPU     11.90s WALL

                                                                                          
 Please consider citing:                                                                  
 S. Ponce, E. R. Margine, C. Verdi and F. Giustino, Comput. Phys. Commun. 209, 116 (2016) 
                                                                                          
 In addition, since you have used the following functionalities, please cite:             
   scattering :: S. Ponce, E. R. Margine and F. Giustino, Phys. Rev. B 97, 121201 (2018)     
   iterative_bte :: S. Ponce, E. R. Margine and F. Giustino, Phys. Rev. B 97, 121201 (2018)  
   iterative_bte :: F. Macheda and N. Bonini, Phys. Rev. B 98, 201201 (2018)                 
   adapt_smearing :: F. Macheda and N. Bonini, Phys. Rev. B 98, 201201 (2018)                
