                                                                                      
                                       ``:oss/                                        
                           `.+s+.     .+ys--yh+     `./ss+.                           
                          -sh//yy+`   +yy   +yy    -+h+-oyy                           
                          -yh- .oyy/.-sh.   .syo-.:sy-  /yh                           
                 `.-.`    `yh+   -oyyyo.     `/syys:    oys      `.`                  
               `/+ssys+-` `sh+      `                   oys`   .:osyo`                
               -yh- ./syyooyo`                          .sys+/oyo--yh/                
               `yy+    .-:-.                             `-/+/:`  -sh-                
                /yh.                                              oys                 
          ``..---hho---------`   .---------..`      `.-----.`    -hd+---.             
       `./osmNMMMMMMMMMMMMMMMs. +NNMMMMMMMMNNmh+.   yNMMMMMNm-  oNMMMMMNmo++:`        
       +sy--/sdMMMhyyyyyyyNMMh- .oyNMMmyyyyyhNMMm+` -yMMMdyyo:` .oyyNMMNhs+syy`       
       -yy/   /MMM+.`-+/``mMMy-   `mMMh:`````.dMMN:` `MMMy-`-dhhy```mMMy:``+hs        
        -yy+` /MMMo:-mMM+`-oo/.    mMMh:     `dMMN/`  dMMm:`dMMMMy..MMMo-.+yo`        
         .sys`/MMMMNNMMMs-         mMMmyooooymMMNo:   oMMM/sMMMMMM++MMN//oh:          
          `sh+/MMMhyyMMMs- `-`     mMMMMMMMMMNmy+-`   -MMMhMMMsmMMmdMMd/yy+           
    `-/+++oyy-/MMM+.`/hh/.`mNm:`   mMMd+/////:-.`      NMMMMMd/:NMMMMMy:/yyo/:.`      
   +os+//:-..-oMMMo:--:::-/MMMo. .-mMMd+---`           hMMMMN+. oMMMMMo. `-+osyso:`   
   syo     `mNMMMMMNNNNNNNNMMMo.oNNMMMMMNNNN:`         +MMMMs:`  dMMMN/`     ``:syo   
   /yh`     :syyyyyyyyyyyyyyyy+.`+syyyyyyyyo:`         .oyys:`   .oyys:`        +yh   
   -yh-        ````````````````    `````````              ``        ``          oys   
   -+h/------------------------::::::::://////++++++++++++++++++++++///////::::/yd:   
   shdddddddddddddddddddddddddddddhhhhhhhhyyyyyssssssssssssssssyyyyyyyhhhhhhhddddh`   
                                                                                      
  S. Ponce, E. R. Margine, C. Verdi, and F. Giustino,                                 
                                                Comput. Phys. Commun. 209, 116 (2016) 
                                                                                      

     Program EPW v.5.2.0 starts on  9Jul2020 at 18:57:15 

     This program is part of the open-source Quantum ESPRESSO suite
     for quantum simulation of materials; please cite
         "P. Giannozzi et al., J. Phys.:Condens. Matter 21 395502 (2009);
         "P. Giannozzi et al., J. Phys.:Condens. Matter 29 465901 (2017);
          URL http://www.quantum-espresso.org", 
     in publications or presentations arising from this work. More details at
     http://www.quantum-espresso.org/quote

     Parallel version (MPI), running on     4 processors

     MPI processes distributed on     1 nodes
     K-points division:     npool     =       4
     Fft bands division:     nmany     =       1

     WARNING: The specified dis_win_min is ignored.
              You should instead use bands_skipped = 'exclude_bands = ...'
              to control the lower bound of band manifold.
                      
     ------------------------------------------------------------------------ 
                   RESTART - RESTART - RESTART - RESTART                         
     Restart is done without reading PWSCF save file.                  
     Be aware that some consistency checks are therefore not done.                  
     ------------------------------------------------------------------------ 
                      

     --                                                                         

     bravais-lattice index     =            0
     lattice parameter (a_0)   =       0.0000  a.u.
     unit-cell volume          =       0.0000 (a.u.)^3
     number of atoms/cell      =            0
     number of atomic types    =            0
     kinetic-energy cut-off    =       0.0000  Ry
     charge density cut-off    =       0.0000  Ry
     Exchange-correlation= not set
                           (  -1  -1  -1  -1  -1  -1  -1)


     celldm(1)=    0.00000  celldm(2)=    0.00000  celldm(3)=    0.00000
     celldm(4)=    0.00000  celldm(5)=    0.00000  celldm(6)=    0.00000

     crystal axes: (cart. coord. in units of a_0)
               a(1) = (  0.0000  0.0000  0.0000 )  
               a(2) = (  0.0000  0.0000  0.0000 )  
               a(3) = (  0.0000  0.0000  0.0000 )  

     reciprocal axes: (cart. coord. in units 2 pi/a_0)
               b(1) = (  0.0000  0.0000  0.0000 )  
               b(2) = (  0.0000  0.0000  0.0000 )  
               b(3) = (  0.0000  0.0000  0.0000 )  


     Atoms inside the unit cell: 

   Cartesian axes

     site n.  atom      mass           positions (a_0 units)

 
     No symmetry!
                                    s                        frac. trans.

     G cutoff =    0.0000  (      0 G-vectors)     FFT grid: (  0,  0,  0)
     number of k points=    0
                       cart. coord. in units 2pi/a_0

                       cryst. coord.
     EPW          :      0.00s CPU      0.00s WALL

     EPW          :      0.00s CPU      0.00s WALL


     -------------------------------------------------------------------
     Using gan.ukk from disk
     -------------------------------------------------------------------


     Do not need to read .epb files; read .fmt files


     Band disentanglement is used: nbndsub =   14

     Computes the analytic long-range interaction for polar materials [lpolar]
      
     Construct the Wigner-Seitz cell using Wannier centers and atomic positions 
     Number of WS vectors for electrons       35
     Number of WS vectors for phonons       25
     Number of WS vectors for electron-phonon       29
     Maximum number of cores for efficient parallelization      116

     Reading Hamiltonian, Dynamical matrix and EP vertex in Wann rep from file


     Finished reading Wann rep data from file

     ===================================================================
     Memory usage:  VmHWM =        57Mb
                   VmPeak =       388Mb
     ===================================================================
     
     Using uniform q-mesh:   30  30  30
     Size of q point mesh for interpolation:      27000
     Using uniform MP k-mesh:   30  30  30
     Size of k point mesh for interpolation:       2912
     Max number of k points per pool:              728

     Fermi energy coarse grid =  11.381868 eV

     ===================================================================

     Fermi energy is read from the input file: Ef =  12.976050 eV

     ===================================================================

     Skipping the first   12 bands:

     The Fermi level will be determined with  12.00000 electrons

              ibndmin =     7  ebndmin =     0.961
              ibndmax =     7  ebndmax =     0.983


     Number of ep-matrix elements per pool :         4368 ~=   34.12 Kb (@ 8 bytes/ DP)
      
     A selecq.fmt file was found but re-created because selecqread == .FALSE. 
     Number selected, total             50          26101
     We only need to compute       70 q-points
      
     Valence band maximum    =  11.381868 eV
     Conduction band minimum =  13.076041 eV

     Temperature  100.000 K
     Mobility CB Fermi level =  12.972278 eV

     Temperature  300.000 K
     Mobility CB Fermi level =  12.756135 eV

     ===================================================================
     Scattering rate for IBTE
     ===================================================================

     Restart and restart_step inputs deactivated (restart point at every q-points).
     No intermediate mobility will be shown.

     Fermi Surface thickness =   0.400000 eV
     This is computed with respect to the fine Fermi level  12.976050 eV
     Only states between  12.576050 eV and  13.376050 eV will be included

     Save matrix elements larger than threshold:   0.137174211248E-24
      
     Progression iq (fine) =         50/        70
       Adaptative smearing = Min:    37.466681 meV
                             Max:    63.884725 meV
      100.000     12.9723       0.999996E+13
      300.000     12.7561       0.999995E+13
      
     epmatkqread automatically changed to .TRUE. as all scattering have been computed.
      
     ===================================================================
     Memory usage:  VmHWM =        76Mb
                   VmPeak =       506Mb
     ===================================================================

     Number of elements per core         94
     Symmetry mapping finished
      
     =============================================================================================
     BTE in the self-energy relaxation time approximation (SERTA)
     =============================================================================================

     =============================================================================================
       Temp     Fermi   Elec density  Population SR                  Elec mobility 
        [K]      [eV]     [cm^-3]      [e per cell]                    [cm^2/Vs]
     =============================================================================================

      100.000  12.9723   0.10000E+14  -0.26754E-23    0.548630E-02    0.000000E+00    0.000000E+00
                                                      0.000000E+00    0.548630E-02    0.000000E+00
                                                      0.000000E+00    0.000000E+00    0.127310E+05
      300.000  12.7561   0.10000E+14  -0.21176E-21    0.160801E+03    0.000000E+00    0.489803E-21
                                                      0.000000E+00    0.160801E+03    0.000000E+00
                                                      0.000000E+00    0.000000E+00    0.111064E+05
      
     =============================================================================================
     Start solving iterative Boltzmann Transport Equation
     =============================================================================================

     Iteration number:         1

     =============================================================================================
       Temp     Fermi   Elec density  Population SR                  Elec mobility 
        [K]      [eV]     [cm^-3]      [e per cell]                    [cm^2/Vs]
     =============================================================================================

      100.000  12.9723   0.10000E+14   0.00000E+00    0.607825E-02    0.000000E+00    0.000000E+00
                                                      0.000000E+00    0.607825E-02    0.000000E+00
                                                      0.000000E+00    0.000000E+00    0.390202E+03
      300.000  12.7561   0.10000E+14   0.00000E+00    0.212668E+03    0.000000E+00    0.000000E+00
                                                      0.000000E+00    0.212668E+03    0.000000E+00
                                                      0.000000E+00    0.000000E+00    0.742256E+04

                                                      0.742256E+04    Max error
     Iteration number:         2

     =============================================================================================
       Temp     Fermi   Elec density  Population SR                  Elec mobility 
        [K]      [eV]     [cm^-3]      [e per cell]                    [cm^2/Vs]
     =============================================================================================

      100.000  12.9723   0.10000E+14   0.00000E+00    0.654068E-02    0.000000E+00    0.000000E+00
                                                      0.000000E+00    0.654068E-02    0.000000E+00
                                                      0.000000E+00    0.000000E+00    0.123592E+05
      300.000  12.7561   0.10000E+14   0.00000E+00    0.235587E+03    0.000000E+00    0.000000E+00
                                                      0.000000E+00    0.235587E+03    0.000000E+00
                                                      0.000000E+00    0.000000E+00    0.917443E+04

                                                      0.119690E+05    Max error
     Iteration number:         3

     =============================================================================================
       Temp     Fermi   Elec density  Population SR                  Elec mobility 
        [K]      [eV]     [cm^-3]      [e per cell]                    [cm^2/Vs]
     =============================================================================================

      100.000  12.9723   0.10000E+14   0.00000E+00    0.661404E-02    0.000000E+00    0.000000E+00
                                                      0.000000E+00    0.661404E-02    0.000000E+00
                                                      0.000000E+00    0.000000E+00    0.750692E+03
      300.000  12.7561   0.10000E+14   0.00000E+00    0.244115E+03    0.000000E+00    0.000000E+00
                                                      0.000000E+00    0.244115E+03    0.000000E+00
                                                      0.000000E+00    0.000000E+00    0.838597E+04

                                                      0.116085E+05    Max error
     Iteration number:         4

     =============================================================================================
       Temp     Fermi   Elec density  Population SR                  Elec mobility 
        [K]      [eV]     [cm^-3]      [e per cell]                    [cm^2/Vs]
     =============================================================================================

      100.000  12.9723   0.10000E+14   0.00000E+00    0.665439E-02    0.000000E+00    0.000000E+00
                                                      0.000000E+00    0.665439E-02    0.000000E+00
                                                      0.000000E+00    0.000000E+00    0.120096E+05
      300.000  12.7561   0.10000E+14   0.00000E+00    0.247736E+03    0.000000E+00    0.000000E+00
                                                      0.000000E+00    0.247736E+03    0.000000E+00
                                                      0.000000E+00    0.000000E+00    0.874467E+04

                                                      0.112589E+05    Max error
     Iteration number:         5

     =============================================================================================
       Temp     Fermi   Elec density  Population SR                  Elec mobility 
        [K]      [eV]     [cm^-3]      [e per cell]                    [cm^2/Vs]
     =============================================================================================

      100.000  12.9723   0.10000E+14   0.00000E+00    0.666249E-02    0.000000E+00    0.000000E+00
                                                      0.000000E+00    0.666249E-02    0.000000E+00
                                                      0.000000E+00    0.000000E+00    0.108980E+04
      300.000  12.7561   0.10000E+14   0.00000E+00    0.249121E+03    0.000000E+00    0.000000E+00
                                                      0.000000E+00    0.249121E+03    0.000000E+00
                                                      0.000000E+00    0.000000E+00    0.858198E+04

                                                      0.109198E+05    Max error
     Iteration number:         6

     =============================================================================================
       Temp     Fermi   Elec density  Population SR                  Elec mobility 
        [K]      [eV]     [cm^-3]      [e per cell]                    [cm^2/Vs]
     =============================================================================================

      100.000  12.9723   0.10000E+14   0.00000E+00    0.666611E-02    0.000000E+00    0.000000E+00
                                                      0.000000E+00    0.666611E-02    0.000000E+00
                                                      0.000000E+00    0.000000E+00    0.116807E+05
      300.000  12.7561   0.10000E+14   0.00000E+00    0.249696E+03    0.000000E+00    0.000000E+00
                                                      0.000000E+00    0.249696E+03    0.000000E+00
                                                      0.000000E+00    0.000000E+00    0.865584E+04

                                                      0.105909E+05    Max error
     Iteration number:         7

     =============================================================================================
       Temp     Fermi   Elec density  Population SR                  Elec mobility 
        [K]      [eV]     [cm^-3]      [e per cell]                    [cm^2/Vs]
     =============================================================================================

      100.000  12.9723   0.10000E+14   0.00000E+00    0.666695E-02    0.000000E+00    0.000000E+00
                                                      0.000000E+00    0.666695E-02    0.000000E+00
                                                      0.000000E+00    0.000000E+00    0.140878E+04
      300.000  12.7561   0.10000E+14   0.00000E+00    0.249920E+03    0.000000E+00    0.000000E+00
                                                      0.000000E+00    0.249920E+03    0.000000E+00
                                                      0.000000E+00    0.000000E+00    0.862232E+04

                                                      0.102719E+05    Max error
     Iteration number:         8

     =============================================================================================
       Temp     Fermi   Elec density  Population SR                  Elec mobility 
        [K]      [eV]     [cm^-3]      [e per cell]                    [cm^2/Vs]
     =============================================================================================

      100.000  12.9723   0.10000E+14   0.00000E+00    0.666728E-02    0.000000E+00    0.000000E+00
                                                      0.000000E+00    0.666728E-02    0.000000E+00
                                                      0.000000E+00    0.000000E+00    0.113713E+05
      300.000  12.7561   0.10000E+14   0.00000E+00    0.250012E+03    0.000000E+00    0.000000E+00
                                                      0.000000E+00    0.250012E+03    0.000000E+00
                                                      0.000000E+00    0.000000E+00    0.863754E+04

                                                      0.996254E+04    Max error
     Iteration number:         9

     =============================================================================================
       Temp     Fermi   Elec density  Population SR                  Elec mobility 
        [K]      [eV]     [cm^-3]      [e per cell]                    [cm^2/Vs]
     =============================================================================================

      100.000  12.9723   0.10000E+14   0.00000E+00    0.666737E-02    0.000000E+00    0.000000E+00
                                                      0.000000E+00    0.666737E-02    0.000000E+00
                                                      0.000000E+00    0.000000E+00    0.170884E+04
      300.000  12.7561   0.10000E+14   0.00000E+00    0.250048E+03    0.000000E+00    0.000000E+00
                                                      0.000000E+00    0.250048E+03    0.000000E+00
                                                      0.000000E+00    0.000000E+00    0.863063E+04

                                                      0.966248E+04    Max error
     Iteration number:        10

     =============================================================================================
       Temp     Fermi   Elec density  Population SR                  Elec mobility 
        [K]      [eV]     [cm^-3]      [e per cell]                    [cm^2/Vs]
     =============================================================================================

      100.000  12.9723   0.10000E+14   0.00000E+00    0.666740E-02    0.000000E+00    0.000000E+00
                                                      0.000000E+00    0.666740E-02    0.000000E+00
                                                      0.000000E+00    0.000000E+00    0.110803E+05
      300.000  12.7561   0.10000E+14   0.00000E+00    0.250063E+03    0.000000E+00    0.000000E+00
                                                      0.000000E+00    0.250063E+03    0.000000E+00
                                                      0.000000E+00    0.000000E+00    0.863376E+04

                                                      0.937146E+04    Max error
     Iteration number:        11

     =============================================================================================
       Temp     Fermi   Elec density  Population SR                  Elec mobility 
        [K]      [eV]     [cm^-3]      [e per cell]                    [cm^2/Vs]
     =============================================================================================

      100.000  12.9723   0.10000E+14   0.00000E+00    0.666741E-02    0.000000E+00    0.000000E+00
                                                      0.000000E+00    0.666741E-02    0.000000E+00
                                                      0.000000E+00    0.000000E+00    0.199110E+04
      300.000  12.7561   0.10000E+14   0.00000E+00    0.250069E+03    0.000000E+00    0.000000E+00
                                                      0.000000E+00    0.250069E+03    0.000000E+00
                                                      0.000000E+00    0.000000E+00    0.863234E+04

                                                      0.908920E+04    Max error
     Iteration number:        12

     =============================================================================================
       Temp     Fermi   Elec density  Population SR                  Elec mobility 
        [K]      [eV]     [cm^-3]      [e per cell]                    [cm^2/Vs]
     =============================================================================================

      100.000  12.9723   0.10000E+14   0.00000E+00    0.666741E-02    0.000000E+00    0.000000E+00
                                                      0.000000E+00    0.666741E-02    0.000000E+00
                                                      0.000000E+00    0.000000E+00    0.108065E+05
      300.000  12.7561   0.10000E+14   0.00000E+00    0.250071E+03    0.000000E+00    0.000000E+00
                                                      0.000000E+00    0.250071E+03    0.000000E+00
                                                      0.000000E+00    0.000000E+00    0.863299E+04

                                                      0.881545E+04    Max error
     Iteration number:        13

     =============================================================================================
       Temp     Fermi   Elec density  Population SR                  Elec mobility 
        [K]      [eV]     [cm^-3]      [e per cell]                    [cm^2/Vs]
     =============================================================================================

      100.000  12.9723   0.10000E+14   0.00000E+00    0.666741E-02    0.000000E+00    0.000000E+00
                                                      0.000000E+00    0.666741E-02    0.000000E+00
                                                      0.000000E+00    0.000000E+00    0.225661E+04
      300.000  12.7561   0.10000E+14   0.00000E+00    0.250072E+03    0.000000E+00    0.000000E+00
                                                      0.000000E+00    0.250072E+03    0.000000E+00
                                                      0.000000E+00    0.000000E+00    0.863269E+04

                                                      0.854994E+04    Max error
     Iteration number:        14

     =============================================================================================
       Temp     Fermi   Elec density  Population SR                  Elec mobility 
        [K]      [eV]     [cm^-3]      [e per cell]                    [cm^2/Vs]
     =============================================================================================

      100.000  12.9723   0.10000E+14   0.00000E+00    0.666741E-02    0.000000E+00    0.000000E+00
                                                      0.000000E+00    0.666741E-02    0.000000E+00
                                                      0.000000E+00    0.000000E+00    0.105490E+05
      300.000  12.7561   0.10000E+14   0.00000E+00    0.250072E+03    0.000000E+00    0.000000E+00
                                                      0.000000E+00    0.250072E+03    0.000000E+00
                                                      0.000000E+00    0.000000E+00    0.863283E+04

                                                      0.829242E+04    Max error
     Iteration number:        15

     =============================================================================================
       Temp     Fermi   Elec density  Population SR                  Elec mobility 
        [K]      [eV]     [cm^-3]      [e per cell]                    [cm^2/Vs]
     =============================================================================================

      100.000  12.9723   0.10000E+14   0.00000E+00    0.666741E-02    0.000000E+00    0.000000E+00
                                                      0.000000E+00    0.666741E-02    0.000000E+00
                                                      0.000000E+00    0.000000E+00    0.250637E+04
      300.000  12.7561   0.10000E+14   0.00000E+00    0.250073E+03    0.000000E+00    0.000000E+00
                                                      0.000000E+00    0.250073E+03    0.000000E+00
                                                      0.000000E+00    0.000000E+00    0.863277E+04

                                                      0.804266E+04    Max error
     Iteration number:        16

     =============================================================================================
       Temp     Fermi   Elec density  Population SR                  Elec mobility 
        [K]      [eV]     [cm^-3]      [e per cell]                    [cm^2/Vs]
     =============================================================================================

      100.000  12.9723   0.10000E+14   0.00000E+00    0.666741E-02    0.000000E+00    0.000000E+00
                                                      0.000000E+00    0.666741E-02    0.000000E+00
                                                      0.000000E+00    0.000000E+00    0.103068E+05
      300.000  12.7561   0.10000E+14   0.00000E+00    0.250073E+03    0.000000E+00    0.000000E+00
                                                      0.000000E+00    0.250073E+03    0.000000E+00
                                                      0.000000E+00    0.000000E+00    0.863279E+04

                                                      0.780043E+04    Max error
     Iteration number:        17

     =============================================================================================
       Temp     Fermi   Elec density  Population SR                  Elec mobility 
        [K]      [eV]     [cm^-3]      [e per cell]                    [cm^2/Vs]
     =============================================================================================

      100.000  12.9723   0.10000E+14   0.00000E+00    0.666741E-02    0.000000E+00    0.000000E+00
                                                      0.000000E+00    0.666741E-02    0.000000E+00
                                                      0.000000E+00    0.000000E+00    0.274131E+04
      300.000  12.7561   0.10000E+14   0.00000E+00    0.250073E+03    0.000000E+00    0.000000E+00
                                                      0.000000E+00    0.250073E+03    0.000000E+00
                                                      0.000000E+00    0.000000E+00    0.863278E+04

                                                      0.756549E+04    Max error
     Iteration number:        18

     =============================================================================================
       Temp     Fermi   Elec density  Population SR                  Elec mobility 
        [K]      [eV]     [cm^-3]      [e per cell]                    [cm^2/Vs]
     =============================================================================================

      100.000  12.9723   0.10000E+14   0.00000E+00    0.666741E-02    0.000000E+00    0.000000E+00
                                                      0.000000E+00    0.666741E-02    0.000000E+00
                                                      0.000000E+00    0.000000E+00    0.100789E+05
      300.000  12.7561   0.10000E+14   0.00000E+00    0.250073E+03    0.000000E+00    0.000000E+00
                                                      0.000000E+00    0.250073E+03    0.000000E+00
                                                      0.000000E+00    0.000000E+00    0.863279E+04

                                                      0.733763E+04    Max error
     Iteration number:        19

     =============================================================================================
       Temp     Fermi   Elec density  Population SR                  Elec mobility 
        [K]      [eV]     [cm^-3]      [e per cell]                    [cm^2/Vs]
     =============================================================================================

      100.000  12.9723   0.10000E+14   0.00000E+00    0.666741E-02    0.000000E+00    0.000000E+00
                                                      0.000000E+00    0.666741E-02    0.000000E+00
                                                      0.000000E+00    0.000000E+00    0.296231E+04
      300.000  12.7561   0.10000E+14   0.00000E+00    0.250073E+03    0.000000E+00    0.000000E+00
                                                      0.000000E+00    0.250073E+03    0.000000E+00
                                                      0.000000E+00    0.000000E+00    0.863279E+04

                                                      0.711663E+04    Max error
     Iteration number:        20

     =============================================================================================
       Temp     Fermi   Elec density  Population SR                  Elec mobility 
        [K]      [eV]     [cm^-3]      [e per cell]                    [cm^2/Vs]
     =============================================================================================

      100.000  12.9723   0.10000E+14   0.00000E+00    0.666741E-02    0.000000E+00    0.000000E+00
                                                      0.000000E+00    0.666741E-02    0.000000E+00
                                                      0.000000E+00    0.000000E+00    0.986459E+04
      300.000  12.7561   0.10000E+14   0.00000E+00    0.250073E+03    0.000000E+00    0.000000E+00
                                                      0.000000E+00    0.250073E+03    0.000000E+00
                                                      0.000000E+00    0.000000E+00    0.863279E+04

                                                      0.690228E+04    Max error
     Iteration number:        21

     =============================================================================================
       Temp     Fermi   Elec density  Population SR                  Elec mobility 
        [K]      [eV]     [cm^-3]      [e per cell]                    [cm^2/Vs]
     =============================================================================================

      100.000  12.9723   0.10000E+14   0.00000E+00    0.666741E-02    0.000000E+00    0.000000E+00
                                                      0.000000E+00    0.666741E-02    0.000000E+00
                                                      0.000000E+00    0.000000E+00    0.317019E+04
      300.000  12.7561   0.10000E+14   0.00000E+00    0.250073E+03    0.000000E+00    0.000000E+00
                                                      0.000000E+00    0.250073E+03    0.000000E+00
                                                      0.000000E+00    0.000000E+00    0.863279E+04

                                                      0.669439E+04    Max error
     Iteration number:        22

     =============================================================================================
       Temp     Fermi   Elec density  Population SR                  Elec mobility 
        [K]      [eV]     [cm^-3]      [e per cell]                    [cm^2/Vs]
     =============================================================================================

      100.000  12.9723   0.10000E+14   0.00000E+00    0.666741E-02    0.000000E+00    0.000000E+00
                                                      0.000000E+00    0.666741E-02    0.000000E+00
                                                      0.000000E+00    0.000000E+00    0.966296E+04
      300.000  12.7561   0.10000E+14   0.00000E+00    0.250073E+03    0.000000E+00    0.000000E+00
                                                      0.000000E+00    0.250073E+03    0.000000E+00
                                                      0.000000E+00    0.000000E+00    0.863279E+04

                                                      0.649277E+04    Max error
     Iteration number:        23

     =============================================================================================
       Temp     Fermi   Elec density  Population SR                  Elec mobility 
        [K]      [eV]     [cm^-3]      [e per cell]                    [cm^2/Vs]
     =============================================================================================

      100.000  12.9723   0.10000E+14   0.00000E+00    0.666741E-02    0.000000E+00    0.000000E+00
                                                      0.000000E+00    0.666741E-02    0.000000E+00
                                                      0.000000E+00    0.000000E+00    0.336575E+04
      300.000  12.7561   0.10000E+14   0.00000E+00    0.250073E+03    0.000000E+00    0.000000E+00
                                                      0.000000E+00    0.250073E+03    0.000000E+00
                                                      0.000000E+00    0.000000E+00    0.863279E+04

                                                      0.629721E+04    Max error
     Iteration number:        24

     =============================================================================================
       Temp     Fermi   Elec density  Population SR                  Elec mobility 
        [K]      [eV]     [cm^-3]      [e per cell]                    [cm^2/Vs]
     =============================================================================================

      100.000  12.9723   0.10000E+14   0.00000E+00    0.666741E-02    0.000000E+00    0.000000E+00
                                                      0.000000E+00    0.666741E-02    0.000000E+00
                                                      0.000000E+00    0.000000E+00    0.947330E+04
      300.000  12.7561   0.10000E+14   0.00000E+00    0.250073E+03    0.000000E+00    0.000000E+00
                                                      0.000000E+00    0.250073E+03    0.000000E+00
                                                      0.000000E+00    0.000000E+00    0.863279E+04

                                                      0.610755E+04    Max error
     Iteration number:        25

     =============================================================================================
       Temp     Fermi   Elec density  Population SR                  Elec mobility 
        [K]      [eV]     [cm^-3]      [e per cell]                    [cm^2/Vs]
     =============================================================================================

      100.000  12.9723   0.10000E+14   0.00000E+00    0.666741E-02    0.000000E+00    0.000000E+00
                                                      0.000000E+00    0.666741E-02    0.000000E+00
                                                      0.000000E+00    0.000000E+00    0.354970E+04
      300.000  12.7561   0.10000E+14   0.00000E+00    0.250073E+03    0.000000E+00    0.000000E+00
                                                      0.000000E+00    0.250073E+03    0.000000E+00
                                                      0.000000E+00    0.000000E+00    0.863279E+04

                                                      0.592360E+04    Max error
     Iteration number:        26

     =============================================================================================
       Temp     Fermi   Elec density  Population SR                  Elec mobility 
        [K]      [eV]     [cm^-3]      [e per cell]                    [cm^2/Vs]
     =============================================================================================

      100.000  12.9723   0.10000E+14   0.00000E+00    0.666741E-02    0.000000E+00    0.000000E+00
                                                      0.000000E+00    0.666741E-02    0.000000E+00
                                                      0.000000E+00    0.000000E+00    0.929489E+04
      300.000  12.7561   0.10000E+14   0.00000E+00    0.250073E+03    0.000000E+00    0.000000E+00
                                                      0.000000E+00    0.250073E+03    0.000000E+00
                                                      0.000000E+00    0.000000E+00    0.863279E+04

                                                      0.574518E+04    Max error
     Iteration number:        27

     =============================================================================================
       Temp     Fermi   Elec density  Population SR                  Elec mobility 
        [K]      [eV]     [cm^-3]      [e per cell]                    [cm^2/Vs]
     =============================================================================================

      100.000  12.9723   0.10000E+14   0.00000E+00    0.666741E-02    0.000000E+00    0.000000E+00
                                                      0.000000E+00    0.666741E-02    0.000000E+00
                                                      0.000000E+00    0.000000E+00    0.372274E+04
      300.000  12.7561   0.10000E+14   0.00000E+00    0.250073E+03    0.000000E+00    0.000000E+00
                                                      0.000000E+00    0.250073E+03    0.000000E+00
                                                      0.000000E+00    0.000000E+00    0.863279E+04

                                                      0.557215E+04    Max error
     Iteration number:        28

     =============================================================================================
       Temp     Fermi   Elec density  Population SR                  Elec mobility 
        [K]      [eV]     [cm^-3]      [e per cell]                    [cm^2/Vs]
     =============================================================================================

      100.000  12.9723   0.10000E+14   0.00000E+00    0.666741E-02    0.000000E+00    0.000000E+00
                                                      0.000000E+00    0.666741E-02    0.000000E+00
                                                      0.000000E+00    0.000000E+00    0.912706E+04
      300.000  12.7561   0.10000E+14   0.00000E+00    0.250073E+03    0.000000E+00    0.000000E+00
                                                      0.000000E+00    0.250073E+03    0.000000E+00
                                                      0.000000E+00    0.000000E+00    0.863279E+04

                                                      0.540432E+04    Max error
     Iteration number:        29

     =============================================================================================
       Temp     Fermi   Elec density  Population SR                  Elec mobility 
        [K]      [eV]     [cm^-3]      [e per cell]                    [cm^2/Vs]
     =============================================================================================

      100.000  12.9723   0.10000E+14   0.00000E+00    0.666741E-02    0.000000E+00    0.000000E+00
                                                      0.000000E+00    0.666741E-02    0.000000E+00
                                                      0.000000E+00    0.000000E+00    0.388551E+04
      300.000  12.7561   0.10000E+14   0.00000E+00    0.250073E+03    0.000000E+00    0.000000E+00
                                                      0.000000E+00    0.250073E+03    0.000000E+00
                                                      0.000000E+00    0.000000E+00    0.863279E+04

                                                      0.524155E+04    Max error
     Iteration number:        30

     =============================================================================================
       Temp     Fermi   Elec density  Population SR                  Elec mobility 
        [K]      [eV]     [cm^-3]      [e per cell]                    [cm^2/Vs]
     =============================================================================================

      100.000  12.9723   0.10000E+14   0.00000E+00    0.666741E-02    0.000000E+00    0.000000E+00
                                                      0.000000E+00    0.666741E-02    0.000000E+00
                                                      0.000000E+00    0.000000E+00    0.896919E+04
      300.000  12.7561   0.10000E+14   0.00000E+00    0.250073E+03    0.000000E+00    0.000000E+00
                                                      0.000000E+00    0.250073E+03    0.000000E+00
                                                      0.000000E+00    0.000000E+00    0.863279E+04

                                                      0.508368E+04    Max error
     Iteration number:        31

     =============================================================================================
       Temp     Fermi   Elec density  Population SR                  Elec mobility 
        [K]      [eV]     [cm^-3]      [e per cell]                    [cm^2/Vs]
     =============================================================================================

      100.000  12.9723   0.10000E+14   0.00000E+00    0.666741E-02    0.000000E+00    0.000000E+00
                                                      0.000000E+00    0.666741E-02    0.000000E+00
                                                      0.000000E+00    0.000000E+00    0.403862E+04
      300.000  12.7561   0.10000E+14   0.00000E+00    0.250073E+03    0.000000E+00    0.000000E+00
                                                      0.000000E+00    0.250073E+03    0.000000E+00
                                                      0.000000E+00    0.000000E+00    0.863279E+04

                                                      0.493057E+04    Max error
     Iteration number:        32

     =============================================================================================
       Temp     Fermi   Elec density  Population SR                  Elec mobility 
        [K]      [eV]     [cm^-3]      [e per cell]                    [cm^2/Vs]
     =============================================================================================

      100.000  12.9723   0.10000E+14   0.00000E+00    0.666741E-02    0.000000E+00    0.000000E+00
                                                      0.000000E+00    0.666741E-02    0.000000E+00
                                                      0.000000E+00    0.000000E+00    0.882069E+04
      300.000  12.7561   0.10000E+14   0.00000E+00    0.250073E+03    0.000000E+00    0.000000E+00
                                                      0.000000E+00    0.250073E+03    0.000000E+00
                                                      0.000000E+00    0.000000E+00    0.863279E+04

                                                      0.478206E+04    Max error
     Iteration number:        33

     =============================================================================================
       Temp     Fermi   Elec density  Population SR                  Elec mobility 
        [K]      [eV]     [cm^-3]      [e per cell]                    [cm^2/Vs]
     =============================================================================================

      100.000  12.9723   0.10000E+14   0.00000E+00    0.666741E-02    0.000000E+00    0.000000E+00
                                                      0.000000E+00    0.666741E-02    0.000000E+00
                                                      0.000000E+00    0.000000E+00    0.418265E+04
      300.000  12.7561   0.10000E+14   0.00000E+00    0.250073E+03    0.000000E+00    0.000000E+00
                                                      0.000000E+00    0.250073E+03    0.000000E+00
                                                      0.000000E+00    0.000000E+00    0.863279E+04

                                                      0.463803E+04    Max error
     Iteration number:        34

     =============================================================================================
       Temp     Fermi   Elec density  Population SR                  Elec mobility 
        [K]      [eV]     [cm^-3]      [e per cell]                    [cm^2/Vs]
     =============================================================================================

      100.000  12.9723   0.10000E+14   0.00000E+00    0.666741E-02    0.000000E+00    0.000000E+00
                                                      0.000000E+00    0.666741E-02    0.000000E+00
                                                      0.000000E+00    0.000000E+00    0.868100E+04
      300.000  12.7561   0.10000E+14   0.00000E+00    0.250073E+03    0.000000E+00    0.000000E+00
                                                      0.000000E+00    0.250073E+03    0.000000E+00
                                                      0.000000E+00    0.000000E+00    0.863279E+04

                                                      0.449834E+04    Max error
     Iteration number:        35

     =============================================================================================
       Temp     Fermi   Elec density  Population SR                  Elec mobility 
        [K]      [eV]     [cm^-3]      [e per cell]                    [cm^2/Vs]
     =============================================================================================

      100.000  12.9723   0.10000E+14   0.00000E+00    0.666741E-02    0.000000E+00    0.000000E+00
                                                      0.000000E+00    0.666741E-02    0.000000E+00
                                                      0.000000E+00    0.000000E+00    0.431814E+04
      300.000  12.7561   0.10000E+14   0.00000E+00    0.250073E+03    0.000000E+00    0.000000E+00
                                                      0.000000E+00    0.250073E+03    0.000000E+00
                                                      0.000000E+00    0.000000E+00    0.863279E+04

                                                      0.436286E+04    Max error
     Iteration number:        36

     =============================================================================================
       Temp     Fermi   Elec density  Population SR                  Elec mobility 
        [K]      [eV]     [cm^-3]      [e per cell]                    [cm^2/Vs]
     =============================================================================================

      100.000  12.9723   0.10000E+14   0.00000E+00    0.666741E-02    0.000000E+00    0.000000E+00
                                                      0.000000E+00    0.666741E-02    0.000000E+00
                                                      0.000000E+00    0.000000E+00    0.854959E+04
      300.000  12.7561   0.10000E+14   0.00000E+00    0.250073E+03    0.000000E+00    0.000000E+00
                                                      0.000000E+00    0.250073E+03    0.000000E+00
                                                      0.000000E+00    0.000000E+00    0.863279E+04

                                                      0.423145E+04    Max error
     Iteration number:        37

     =============================================================================================
       Temp     Fermi   Elec density  Population SR                  Elec mobility 
        [K]      [eV]     [cm^-3]      [e per cell]                    [cm^2/Vs]
     =============================================================================================

      100.000  12.9723   0.10000E+14   0.00000E+00    0.666741E-02    0.000000E+00    0.000000E+00
                                                      0.000000E+00    0.666741E-02    0.000000E+00
                                                      0.000000E+00    0.000000E+00    0.444559E+04
      300.000  12.7561   0.10000E+14   0.00000E+00    0.250073E+03    0.000000E+00    0.000000E+00
                                                      0.000000E+00    0.250073E+03    0.000000E+00
                                                      0.000000E+00    0.000000E+00    0.863279E+04

                                                      0.410401E+04    Max error
     Iteration number:        38

     =============================================================================================
       Temp     Fermi   Elec density  Population SR                  Elec mobility 
        [K]      [eV]     [cm^-3]      [e per cell]                    [cm^2/Vs]
     =============================================================================================

      100.000  12.9723   0.10000E+14   0.00000E+00    0.666741E-02    0.000000E+00    0.000000E+00
                                                      0.000000E+00    0.666741E-02    0.000000E+00
                                                      0.000000E+00    0.000000E+00    0.842598E+04
      300.000  12.7561   0.10000E+14   0.00000E+00    0.250073E+03    0.000000E+00    0.000000E+00
                                                      0.000000E+00    0.250073E+03    0.000000E+00
                                                      0.000000E+00    0.000000E+00    0.863279E+04

                                                      0.398040E+04    Max error
     Iteration number:        39

     =============================================================================================
       Temp     Fermi   Elec density  Population SR                  Elec mobility 
        [K]      [eV]     [cm^-3]      [e per cell]                    [cm^2/Vs]
     =============================================================================================

      100.000  12.9723   0.10000E+14   0.00000E+00    0.666741E-02    0.000000E+00    0.000000E+00
                                                      0.000000E+00    0.666741E-02    0.000000E+00
                                                      0.000000E+00    0.000000E+00    0.456547E+04
      300.000  12.7561   0.10000E+14   0.00000E+00    0.250073E+03    0.000000E+00    0.000000E+00
                                                      0.000000E+00    0.250073E+03    0.000000E+00
                                                      0.000000E+00    0.000000E+00    0.863279E+04

                                                      0.386051E+04    Max error
     Iteration number:        40

     =============================================================================================
       Temp     Fermi   Elec density  Population SR                  Elec mobility 
        [K]      [eV]     [cm^-3]      [e per cell]                    [cm^2/Vs]
     =============================================================================================

      100.000  12.9723   0.10000E+14   0.00000E+00    0.666741E-02    0.000000E+00    0.000000E+00
                                                      0.000000E+00    0.666741E-02    0.000000E+00
                                                      0.000000E+00    0.000000E+00    0.830971E+04
      300.000  12.7561   0.10000E+14   0.00000E+00    0.250073E+03    0.000000E+00    0.000000E+00
                                                      0.000000E+00    0.250073E+03    0.000000E+00
                                                      0.000000E+00    0.000000E+00    0.863279E+04

                                                      0.374424E+04    Max error
     Iteration number:        41

     =============================================================================================
       Temp     Fermi   Elec density  Population SR                  Elec mobility 
        [K]      [eV]     [cm^-3]      [e per cell]                    [cm^2/Vs]
     =============================================================================================

      100.000  12.9723   0.10000E+14   0.00000E+00    0.666741E-02    0.000000E+00    0.000000E+00
                                                      0.000000E+00    0.666741E-02    0.000000E+00
                                                      0.000000E+00    0.000000E+00    0.467824E+04
      300.000  12.7561   0.10000E+14   0.00000E+00    0.250073E+03    0.000000E+00    0.000000E+00
                                                      0.000000E+00    0.250073E+03    0.000000E+00
                                                      0.000000E+00    0.000000E+00    0.863279E+04

                                                      0.363147E+04    Max error
     Iteration number:        42

     =============================================================================================
       Temp     Fermi   Elec density  Population SR                  Elec mobility 
        [K]      [eV]     [cm^-3]      [e per cell]                    [cm^2/Vs]
     =============================================================================================

      100.000  12.9723   0.10000E+14   0.00000E+00    0.666741E-02    0.000000E+00    0.000000E+00
                                                      0.000000E+00    0.666741E-02    0.000000E+00
                                                      0.000000E+00    0.000000E+00    0.820033E+04
      300.000  12.7561   0.10000E+14   0.00000E+00    0.250073E+03    0.000000E+00    0.000000E+00
                                                      0.000000E+00    0.250073E+03    0.000000E+00
                                                      0.000000E+00    0.000000E+00    0.863279E+04

                                                      0.352209E+04    Max error
     Iteration number:        43

     =============================================================================================
       Temp     Fermi   Elec density  Population SR                  Elec mobility 
        [K]      [eV]     [cm^-3]      [e per cell]                    [cm^2/Vs]
     =============================================================================================

      100.000  12.9723   0.10000E+14   0.00000E+00    0.666741E-02    0.000000E+00    0.000000E+00
                                                      0.000000E+00    0.666741E-02    0.000000E+00
                                                      0.000000E+00    0.000000E+00    0.478432E+04
      300.000  12.7561   0.10000E+14   0.00000E+00    0.250073E+03    0.000000E+00    0.000000E+00
                                                      0.000000E+00    0.250073E+03    0.000000E+00
                                                      0.000000E+00    0.000000E+00    0.863279E+04

                                                      0.341601E+04    Max error
     Iteration number:        44

     =============================================================================================
       Temp     Fermi   Elec density  Population SR                  Elec mobility 
        [K]      [eV]     [cm^-3]      [e per cell]                    [cm^2/Vs]
     =============================================================================================

      100.000  12.9723   0.10000E+14   0.00000E+00    0.666741E-02    0.000000E+00    0.000000E+00
                                                      0.000000E+00    0.666741E-02    0.000000E+00
                                                      0.000000E+00    0.000000E+00    0.809745E+04
      300.000  12.7561   0.10000E+14   0.00000E+00    0.250073E+03    0.000000E+00    0.000000E+00
                                                      0.000000E+00    0.250073E+03    0.000000E+00
                                                      0.000000E+00    0.000000E+00    0.863279E+04

                                                      0.331313E+04    Max error
     Iteration number:        45

     =============================================================================================
       Temp     Fermi   Elec density  Population SR                  Elec mobility 
        [K]      [eV]     [cm^-3]      [e per cell]                    [cm^2/Vs]
     =============================================================================================

      100.000  12.9723   0.10000E+14   0.00000E+00    0.666741E-02    0.000000E+00    0.000000E+00
                                                      0.000000E+00    0.666741E-02    0.000000E+00
                                                      0.000000E+00    0.000000E+00    0.488411E+04
      300.000  12.7561   0.10000E+14   0.00000E+00    0.250073E+03    0.000000E+00    0.000000E+00
                                                      0.000000E+00    0.250073E+03    0.000000E+00
                                                      0.000000E+00    0.000000E+00    0.863279E+04

                                                      0.321334E+04    Max error
     Iteration number:        46

     =============================================================================================
       Temp     Fermi   Elec density  Population SR                  Elec mobility 
        [K]      [eV]     [cm^-3]      [e per cell]                    [cm^2/Vs]
     =============================================================================================

      100.000  12.9723   0.10000E+14   0.00000E+00    0.666741E-02    0.000000E+00    0.000000E+00
                                                      0.000000E+00    0.666741E-02    0.000000E+00
                                                      0.000000E+00    0.000000E+00    0.800067E+04
      300.000  12.7561   0.10000E+14   0.00000E+00    0.250073E+03    0.000000E+00    0.000000E+00
                                                      0.000000E+00    0.250073E+03    0.000000E+00
                                                      0.000000E+00    0.000000E+00    0.863279E+04

                                                      0.311656E+04    Max error
     Iteration number:        47

     =============================================================================================
       Temp     Fermi   Elec density  Population SR                  Elec mobility 
        [K]      [eV]     [cm^-3]      [e per cell]                    [cm^2/Vs]
     =============================================================================================

      100.000  12.9723   0.10000E+14   0.00000E+00    0.666741E-02    0.000000E+00    0.000000E+00
                                                      0.000000E+00    0.666741E-02    0.000000E+00
                                                      0.000000E+00    0.000000E+00    0.497798E+04
      300.000  12.7561   0.10000E+14   0.00000E+00    0.250073E+03    0.000000E+00    0.000000E+00
                                                      0.000000E+00    0.250073E+03    0.000000E+00
                                                      0.000000E+00    0.000000E+00    0.863279E+04

                                                      0.302269E+04    Max error
     Iteration number:        48

     =============================================================================================
       Temp     Fermi   Elec density  Population SR                  Elec mobility 
        [K]      [eV]     [cm^-3]      [e per cell]                    [cm^2/Vs]
     =============================================================================================

      100.000  12.9723   0.10000E+14   0.00000E+00    0.666741E-02    0.000000E+00    0.000000E+00
                                                      0.000000E+00    0.666741E-02    0.000000E+00
                                                      0.000000E+00    0.000000E+00    0.790963E+04
      300.000  12.7561   0.10000E+14   0.00000E+00    0.250073E+03    0.000000E+00    0.000000E+00
                                                      0.000000E+00    0.250073E+03    0.000000E+00
                                                      0.000000E+00    0.000000E+00    0.863279E+04

                                                      0.293165E+04    Max error
     Iteration number:        49

     =============================================================================================
       Temp     Fermi   Elec density  Population SR                  Elec mobility 
        [K]      [eV]     [cm^-3]      [e per cell]                    [cm^2/Vs]
     =============================================================================================

      100.000  12.9723   0.10000E+14   0.00000E+00    0.666741E-02    0.000000E+00    0.000000E+00
                                                      0.000000E+00    0.666741E-02    0.000000E+00
                                                      0.000000E+00    0.000000E+00    0.506627E+04
      300.000  12.7561   0.10000E+14   0.00000E+00    0.250073E+03    0.000000E+00    0.000000E+00
                                                      0.000000E+00    0.250073E+03    0.000000E+00
                                                      0.000000E+00    0.000000E+00    0.863279E+04

                                                      0.284335E+04    Max error
     Iteration number:        50

     =============================================================================================
       Temp     Fermi   Elec density  Population SR                  Elec mobility 
        [K]      [eV]     [cm^-3]      [e per cell]                    [cm^2/Vs]
     =============================================================================================

      100.000  12.9723   0.10000E+14   0.00000E+00    0.666741E-02    0.000000E+00    0.000000E+00
                                                      0.000000E+00    0.666741E-02    0.000000E+00
                                                      0.000000E+00    0.000000E+00    0.782399E+04
      300.000  12.7561   0.10000E+14   0.00000E+00    0.250073E+03    0.000000E+00    0.000000E+00
                                                      0.000000E+00    0.250073E+03    0.000000E+00
                                                      0.000000E+00    0.000000E+00    0.863279E+04

                                                      0.275771E+04    Max error
     Iteration number:        51

     =============================================================================================
       Temp     Fermi   Elec density  Population SR                  Elec mobility 
        [K]      [eV]     [cm^-3]      [e per cell]                    [cm^2/Vs]
     =============================================================================================

      100.000  12.9723   0.10000E+14   0.00000E+00    0.666741E-02    0.000000E+00    0.000000E+00
                                                      0.000000E+00    0.666741E-02    0.000000E+00
                                                      0.000000E+00    0.000000E+00    0.514933E+04
      300.000  12.7561   0.10000E+14   0.00000E+00    0.250073E+03    0.000000E+00    0.000000E+00
                                                      0.000000E+00    0.250073E+03    0.000000E+00
                                                      0.000000E+00    0.000000E+00    0.863279E+04

                                                      0.267465E+04    Max error
     Iteration number:        52

     =============================================================================================
       Temp     Fermi   Elec density  Population SR                  Elec mobility 
        [K]      [eV]     [cm^-3]      [e per cell]                    [cm^2/Vs]
     =============================================================================================

      100.000  12.9723   0.10000E+14   0.00000E+00    0.666741E-02    0.000000E+00    0.000000E+00
                                                      0.000000E+00    0.666741E-02    0.000000E+00
                                                      0.000000E+00    0.000000E+00    0.774343E+04
      300.000  12.7561   0.10000E+14   0.00000E+00    0.250073E+03    0.000000E+00    0.000000E+00
                                                      0.000000E+00    0.250073E+03    0.000000E+00
                                                      0.000000E+00    0.000000E+00    0.863279E+04

                                                      0.259410E+04    Max error
     Iteration number:        53

     =============================================================================================
       Temp     Fermi   Elec density  Population SR                  Elec mobility 
        [K]      [eV]     [cm^-3]      [e per cell]                    [cm^2/Vs]
     =============================================================================================

      100.000  12.9723   0.10000E+14   0.00000E+00    0.666741E-02    0.000000E+00    0.000000E+00
                                                      0.000000E+00    0.666741E-02    0.000000E+00
                                                      0.000000E+00    0.000000E+00    0.522746E+04
      300.000  12.7561   0.10000E+14   0.00000E+00    0.250073E+03    0.000000E+00    0.000000E+00
                                                      0.000000E+00    0.250073E+03    0.000000E+00
                                                      0.000000E+00    0.000000E+00    0.863279E+04

                                                      0.251597E+04    Max error
     Iteration number:        54

     =============================================================================================
       Temp     Fermi   Elec density  Population SR                  Elec mobility 
        [K]      [eV]     [cm^-3]      [e per cell]                    [cm^2/Vs]
     =============================================================================================

      100.000  12.9723   0.10000E+14   0.00000E+00    0.666741E-02    0.000000E+00    0.000000E+00
                                                      0.000000E+00    0.666741E-02    0.000000E+00
                                                      0.000000E+00    0.000000E+00    0.766765E+04
      300.000  12.7561   0.10000E+14   0.00000E+00    0.250073E+03    0.000000E+00    0.000000E+00
                                                      0.000000E+00    0.250073E+03    0.000000E+00
                                                      0.000000E+00    0.000000E+00    0.863279E+04

                                                      0.244019E+04    Max error
     Iteration number:        55

     =============================================================================================
       Temp     Fermi   Elec density  Population SR                  Elec mobility 
        [K]      [eV]     [cm^-3]      [e per cell]                    [cm^2/Vs]
     =============================================================================================

      100.000  12.9723   0.10000E+14   0.00000E+00    0.666741E-02    0.000000E+00    0.000000E+00
                                                      0.000000E+00    0.666741E-02    0.000000E+00
                                                      0.000000E+00    0.000000E+00    0.530096E+04
      300.000  12.7561   0.10000E+14   0.00000E+00    0.250073E+03    0.000000E+00    0.000000E+00
                                                      0.000000E+00    0.250073E+03    0.000000E+00
                                                      0.000000E+00    0.000000E+00    0.863279E+04

                                                      0.236669E+04    Max error
     Iteration number:        56

     =============================================================================================
       Temp     Fermi   Elec density  Population SR                  Elec mobility 
        [K]      [eV]     [cm^-3]      [e per cell]                    [cm^2/Vs]
     =============================================================================================

      100.000  12.9723   0.10000E+14   0.00000E+00    0.666741E-02    0.000000E+00    0.000000E+00
                                                      0.000000E+00    0.666741E-02    0.000000E+00
                                                      0.000000E+00    0.000000E+00    0.759637E+04
      300.000  12.7561   0.10000E+14   0.00000E+00    0.250073E+03    0.000000E+00    0.000000E+00
                                                      0.000000E+00    0.250073E+03    0.000000E+00
                                                      0.000000E+00    0.000000E+00    0.863279E+04

                                                      0.229541E+04    Max error
     Iteration number:        57

     =============================================================================================
       Temp     Fermi   Elec density  Population SR                  Elec mobility 
        [K]      [eV]     [cm^-3]      [e per cell]                    [cm^2/Vs]
     =============================================================================================

      100.000  12.9723   0.10000E+14   0.00000E+00    0.666741E-02    0.000000E+00    0.000000E+00
                                                      0.000000E+00    0.666741E-02    0.000000E+00
                                                      0.000000E+00    0.000000E+00    0.537010E+04
      300.000  12.7561   0.10000E+14   0.00000E+00    0.250073E+03    0.000000E+00    0.000000E+00
                                                      0.000000E+00    0.250073E+03    0.000000E+00
                                                      0.000000E+00    0.000000E+00    0.863279E+04

                                                      0.222628E+04    Max error
     Iteration number:        58

     =============================================================================================
       Temp     Fermi   Elec density  Population SR                  Elec mobility 
        [K]      [eV]     [cm^-3]      [e per cell]                    [cm^2/Vs]
     =============================================================================================

      100.000  12.9723   0.10000E+14   0.00000E+00    0.666741E-02    0.000000E+00    0.000000E+00
                                                      0.000000E+00    0.666741E-02    0.000000E+00
                                                      0.000000E+00    0.000000E+00    0.752932E+04
      300.000  12.7561   0.10000E+14   0.00000E+00    0.250073E+03    0.000000E+00    0.000000E+00
                                                      0.000000E+00    0.250073E+03    0.000000E+00
                                                      0.000000E+00    0.000000E+00    0.863279E+04

                                                      0.215922E+04    Max error
     Iteration number:        59

     =============================================================================================
       Temp     Fermi   Elec density  Population SR                  Elec mobility 
        [K]      [eV]     [cm^-3]      [e per cell]                    [cm^2/Vs]
     =============================================================================================

      100.000  12.9723   0.10000E+14   0.00000E+00    0.666741E-02    0.000000E+00    0.000000E+00
                                                      0.000000E+00    0.666741E-02    0.000000E+00
                                                      0.000000E+00    0.000000E+00    0.543513E+04
      300.000  12.7561   0.10000E+14   0.00000E+00    0.250073E+03    0.000000E+00    0.000000E+00
                                                      0.000000E+00    0.250073E+03    0.000000E+00
                                                      0.000000E+00    0.000000E+00    0.863279E+04

                                                      0.209419E+04    Max error
     Iteration number:        60

     =============================================================================================
       Temp     Fermi   Elec density  Population SR                  Elec mobility 
        [K]      [eV]     [cm^-3]      [e per cell]                    [cm^2/Vs]
     =============================================================================================

      100.000  12.9723   0.10000E+14   0.00000E+00    0.666741E-02    0.000000E+00    0.000000E+00
                                                      0.000000E+00    0.666741E-02    0.000000E+00
                                                      0.000000E+00    0.000000E+00    0.746624E+04
      300.000  12.7561   0.10000E+14   0.00000E+00    0.250073E+03    0.000000E+00    0.000000E+00
                                                      0.000000E+00    0.250073E+03    0.000000E+00
                                                      0.000000E+00    0.000000E+00    0.863279E+04

                                                      0.203112E+04    Max error
     Iteration number:        61

     =============================================================================================
       Temp     Fermi   Elec density  Population SR                  Elec mobility 
        [K]      [eV]     [cm^-3]      [e per cell]                    [cm^2/Vs]
     =============================================================================================

      100.000  12.9723   0.10000E+14   0.00000E+00    0.666741E-02    0.000000E+00    0.000000E+00
                                                      0.000000E+00    0.666741E-02    0.000000E+00
                                                      0.000000E+00    0.000000E+00    0.549630E+04
      300.000  12.7561   0.10000E+14   0.00000E+00    0.250073E+03    0.000000E+00    0.000000E+00
                                                      0.000000E+00    0.250073E+03    0.000000E+00
                                                      0.000000E+00    0.000000E+00    0.863279E+04

                                                      0.196994E+04    Max error
     Iteration number:        62

     =============================================================================================
       Temp     Fermi   Elec density  Population SR                  Elec mobility 
        [K]      [eV]     [cm^-3]      [e per cell]                    [cm^2/Vs]
     =============================================================================================

      100.000  12.9723   0.10000E+14   0.00000E+00    0.666741E-02    0.000000E+00    0.000000E+00
                                                      0.000000E+00    0.666741E-02    0.000000E+00
                                                      0.000000E+00    0.000000E+00    0.740691E+04
      300.000  12.7561   0.10000E+14   0.00000E+00    0.250073E+03    0.000000E+00    0.000000E+00
                                                      0.000000E+00    0.250073E+03    0.000000E+00
                                                      0.000000E+00    0.000000E+00    0.863279E+04

                                                      0.191061E+04    Max error
     Iteration number:        63

     =============================================================================================
       Temp     Fermi   Elec density  Population SR                  Elec mobility 
        [K]      [eV]     [cm^-3]      [e per cell]                    [cm^2/Vs]
     =============================================================================================

      100.000  12.9723   0.10000E+14   0.00000E+00    0.666741E-02    0.000000E+00    0.000000E+00
                                                      0.000000E+00    0.666741E-02    0.000000E+00
                                                      0.000000E+00    0.000000E+00    0.555385E+04
      300.000  12.7561   0.10000E+14   0.00000E+00    0.250073E+03    0.000000E+00    0.000000E+00
                                                      0.000000E+00    0.250073E+03    0.000000E+00
                                                      0.000000E+00    0.000000E+00    0.863279E+04

                                                      0.185306E+04    Max error
     Iteration number:        64

     =============================================================================================
       Temp     Fermi   Elec density  Population SR                  Elec mobility 
        [K]      [eV]     [cm^-3]      [e per cell]                    [cm^2/Vs]
     =============================================================================================

      100.000  12.9723   0.10000E+14   0.00000E+00    0.666741E-02    0.000000E+00    0.000000E+00
                                                      0.000000E+00    0.666741E-02    0.000000E+00
                                                      0.000000E+00    0.000000E+00    0.735110E+04
      300.000  12.7561   0.10000E+14   0.00000E+00    0.250073E+03    0.000000E+00    0.000000E+00
                                                      0.000000E+00    0.250073E+03    0.000000E+00
                                                      0.000000E+00    0.000000E+00    0.863279E+04

                                                      0.179725E+04    Max error
     Iteration number:        65

     =============================================================================================
       Temp     Fermi   Elec density  Population SR                  Elec mobility 
        [K]      [eV]     [cm^-3]      [e per cell]                    [cm^2/Vs]
     =============================================================================================

      100.000  12.9723   0.10000E+14   0.00000E+00    0.666741E-02    0.000000E+00    0.000000E+00
                                                      0.000000E+00    0.666741E-02    0.000000E+00
                                                      0.000000E+00    0.000000E+00    0.560798E+04
      300.000  12.7561   0.10000E+14   0.00000E+00    0.250073E+03    0.000000E+00    0.000000E+00
                                                      0.000000E+00    0.250073E+03    0.000000E+00
[...]
     =============================================================================================

      100.000  12.9723   0.10000E+14   0.00000E+00    0.666741E-02    0.000000E+00    0.000000E+00
                                                      0.000000E+00    0.666741E-02    0.000000E+00
                                                      0.000000E+00    0.000000E+00    0.648876E+04
      300.000  12.7561   0.10000E+14   0.00000E+00    0.250073E+03    0.000000E+00    0.000000E+00
                                                      0.000000E+00    0.250073E+03    0.000000E+00
                                                      0.000000E+00    0.000000E+00    0.863279E+04

                                                      0.457967E+02    Max error
     Iteration number:       185

     =============================================================================================
       Temp     Fermi   Elec density  Population SR                  Elec mobility 
        [K]      [eV]     [cm^-3]      [e per cell]                    [cm^2/Vs]
     =============================================================================================

      100.000  12.9723   0.10000E+14   0.00000E+00    0.666741E-02    0.000000E+00    0.000000E+00
                                                      0.000000E+00    0.666741E-02    0.000000E+00
                                                      0.000000E+00    0.000000E+00    0.644434E+04
      300.000  12.7561   0.10000E+14   0.00000E+00    0.250073E+03    0.000000E+00    0.000000E+00
                                                      0.000000E+00    0.250073E+03    0.000000E+00
                                                      0.000000E+00    0.000000E+00    0.863279E+04

                                                      0.444174E+02    Max error
     Iteration number:       186

     =============================================================================================
       Temp     Fermi   Elec density  Population SR                  Elec mobility 
        [K]      [eV]     [cm^-3]      [e per cell]                    [cm^2/Vs]
     =============================================================================================

      100.000  12.9723   0.10000E+14   0.00000E+00    0.666741E-02    0.000000E+00    0.000000E+00
                                                      0.000000E+00    0.666741E-02    0.000000E+00
                                                      0.000000E+00    0.000000E+00    0.648742E+04
      300.000  12.7561   0.10000E+14   0.00000E+00    0.250073E+03    0.000000E+00    0.000000E+00
                                                      0.000000E+00    0.250073E+03    0.000000E+00
                                                      0.000000E+00    0.000000E+00    0.863279E+04

                                                      0.430796E+02    Max error
     Iteration number:       187

     =============================================================================================
       Temp     Fermi   Elec density  Population SR                  Elec mobility 
        [K]      [eV]     [cm^-3]      [e per cell]                    [cm^2/Vs]
     =============================================================================================

      100.000  12.9723   0.10000E+14   0.00000E+00    0.666741E-02    0.000000E+00    0.000000E+00
                                                      0.000000E+00    0.666741E-02    0.000000E+00
                                                      0.000000E+00    0.000000E+00    0.644564E+04
      300.000  12.7561   0.10000E+14   0.00000E+00    0.250073E+03    0.000000E+00    0.000000E+00
                                                      0.000000E+00    0.250073E+03    0.000000E+00
                                                      0.000000E+00    0.000000E+00    0.863279E+04

                                                      0.417821E+02    Max error
     Iteration number:       188

     =============================================================================================
       Temp     Fermi   Elec density  Population SR                  Elec mobility 
        [K]      [eV]     [cm^-3]      [e per cell]                    [cm^2/Vs]
     =============================================================================================

      100.000  12.9723   0.10000E+14   0.00000E+00    0.666741E-02    0.000000E+00    0.000000E+00
                                                      0.000000E+00    0.666741E-02    0.000000E+00
                                                      0.000000E+00    0.000000E+00    0.648617E+04
      300.000  12.7561   0.10000E+14   0.00000E+00    0.250073E+03    0.000000E+00    0.000000E+00
                                                      0.000000E+00    0.250073E+03    0.000000E+00
                                                      0.000000E+00    0.000000E+00    0.863279E+04

                                                      0.405237E+02    Max error
     Iteration number:       189

     =============================================================================================
       Temp     Fermi   Elec density  Population SR                  Elec mobility 
        [K]      [eV]     [cm^-3]      [e per cell]                    [cm^2/Vs]
     =============================================================================================

      100.000  12.9723   0.10000E+14   0.00000E+00    0.666741E-02    0.000000E+00    0.000000E+00
                                                      0.000000E+00    0.666741E-02    0.000000E+00
                                                      0.000000E+00    0.000000E+00    0.644686E+04
      300.000  12.7561   0.10000E+14   0.00000E+00    0.250073E+03    0.000000E+00    0.000000E+00
                                                      0.000000E+00    0.250073E+03    0.000000E+00
                                                      0.000000E+00    0.000000E+00    0.863279E+04

                                                      0.393032E+02    Max error
     Iteration number:       190

     =============================================================================================
       Temp     Fermi   Elec density  Population SR                  Elec mobility 
        [K]      [eV]     [cm^-3]      [e per cell]                    [cm^2/Vs]
     =============================================================================================

      100.000  12.9723   0.10000E+14   0.00000E+00    0.666741E-02    0.000000E+00    0.000000E+00
                                                      0.000000E+00    0.666741E-02    0.000000E+00
                                                      0.000000E+00    0.000000E+00    0.648498E+04
      300.000  12.7561   0.10000E+14   0.00000E+00    0.250073E+03    0.000000E+00    0.000000E+00
                                                      0.000000E+00    0.250073E+03    0.000000E+00
                                                      0.000000E+00    0.000000E+00    0.863279E+04

                                                      0.381194E+02    Max error
     Iteration number:       191

     =============================================================================================
       Temp     Fermi   Elec density  Population SR                  Elec mobility 
        [K]      [eV]     [cm^-3]      [e per cell]                    [cm^2/Vs]
     =============================================================================================

      100.000  12.9723   0.10000E+14   0.00000E+00    0.666741E-02    0.000000E+00    0.000000E+00
                                                      0.000000E+00    0.666741E-02    0.000000E+00
                                                      0.000000E+00    0.000000E+00    0.644801E+04
      300.000  12.7561   0.10000E+14   0.00000E+00    0.250073E+03    0.000000E+00    0.000000E+00
                                                      0.000000E+00    0.250073E+03    0.000000E+00
                                                      0.000000E+00    0.000000E+00    0.863279E+04

                                                      0.369713E+02    Max error
     Iteration number:       192

     =============================================================================================
       Temp     Fermi   Elec density  Population SR                  Elec mobility 
        [K]      [eV]     [cm^-3]      [e per cell]                    [cm^2/Vs]
     =============================================================================================

      100.000  12.9723   0.10000E+14   0.00000E+00    0.666741E-02    0.000000E+00    0.000000E+00
                                                      0.000000E+00    0.666741E-02    0.000000E+00
                                                      0.000000E+00    0.000000E+00    0.648387E+04
      300.000  12.7561   0.10000E+14   0.00000E+00    0.250073E+03    0.000000E+00    0.000000E+00
                                                      0.000000E+00    0.250073E+03    0.000000E+00
                                                      0.000000E+00    0.000000E+00    0.863279E+04

                                                      0.358577E+02    Max error
     Iteration number:       193

     =============================================================================================
       Temp     Fermi   Elec density  Population SR                  Elec mobility 
        [K]      [eV]     [cm^-3]      [e per cell]                    [cm^2/Vs]
     =============================================================================================

      100.000  12.9723   0.10000E+14   0.00000E+00    0.666741E-02    0.000000E+00    0.000000E+00
                                                      0.000000E+00    0.666741E-02    0.000000E+00
                                                      0.000000E+00    0.000000E+00    0.644909E+04
      300.000  12.7561   0.10000E+14   0.00000E+00    0.250073E+03    0.000000E+00    0.000000E+00
                                                      0.000000E+00    0.250073E+03    0.000000E+00
                                                      0.000000E+00    0.000000E+00    0.863279E+04

                                                      0.347778E+02    Max error
     Iteration number:       194

     =============================================================================================
       Temp     Fermi   Elec density  Population SR                  Elec mobility 
        [K]      [eV]     [cm^-3]      [e per cell]                    [cm^2/Vs]
     =============================================================================================

      100.000  12.9723   0.10000E+14   0.00000E+00    0.666741E-02    0.000000E+00    0.000000E+00
                                                      0.000000E+00    0.666741E-02    0.000000E+00
                                                      0.000000E+00    0.000000E+00    0.648282E+04
      300.000  12.7561   0.10000E+14   0.00000E+00    0.250073E+03    0.000000E+00    0.000000E+00
                                                      0.000000E+00    0.250073E+03    0.000000E+00
                                                      0.000000E+00    0.000000E+00    0.863279E+04

                                                      0.337303E+02    Max error
     Iteration number:       195

     =============================================================================================
       Temp     Fermi   Elec density  Population SR                  Elec mobility 
        [K]      [eV]     [cm^-3]      [e per cell]                    [cm^2/Vs]
     =============================================================================================

      100.000  12.9723   0.10000E+14   0.00000E+00    0.666741E-02    0.000000E+00    0.000000E+00
                                                      0.000000E+00    0.666741E-02    0.000000E+00
                                                      0.000000E+00    0.000000E+00    0.645011E+04
      300.000  12.7561   0.10000E+14   0.00000E+00    0.250073E+03    0.000000E+00    0.000000E+00
                                                      0.000000E+00    0.250073E+03    0.000000E+00
                                                      0.000000E+00    0.000000E+00    0.863279E+04

                                                      0.327144E+02    Max error
     Iteration number:       196

     =============================================================================================
       Temp     Fermi   Elec density  Population SR                  Elec mobility 
        [K]      [eV]     [cm^-3]      [e per cell]                    [cm^2/Vs]
     =============================================================================================

      100.000  12.9723   0.10000E+14   0.00000E+00    0.666741E-02    0.000000E+00    0.000000E+00
                                                      0.000000E+00    0.666741E-02    0.000000E+00
                                                      0.000000E+00    0.000000E+00    0.648184E+04
      300.000  12.7561   0.10000E+14   0.00000E+00    0.250073E+03    0.000000E+00    0.000000E+00
                                                      0.000000E+00    0.250073E+03    0.000000E+00
                                                      0.000000E+00    0.000000E+00    0.863279E+04

                                                      0.317291E+02    Max error
     Iteration number:       197

     =============================================================================================
       Temp     Fermi   Elec density  Population SR                  Elec mobility 
        [K]      [eV]     [cm^-3]      [e per cell]                    [cm^2/Vs]
     =============================================================================================

      100.000  12.9723   0.10000E+14   0.00000E+00    0.666741E-02    0.000000E+00    0.000000E+00
                                                      0.000000E+00    0.666741E-02    0.000000E+00
                                                      0.000000E+00    0.000000E+00    0.645106E+04
      300.000  12.7561   0.10000E+14   0.00000E+00    0.250073E+03    0.000000E+00    0.000000E+00
                                                      0.000000E+00    0.250073E+03    0.000000E+00
                                                      0.000000E+00    0.000000E+00    0.863279E+04

                                                      0.307734E+02    Max error
     Iteration number:       198

     =============================================================================================
       Temp     Fermi   Elec density  Population SR                  Elec mobility 
        [K]      [eV]     [cm^-3]      [e per cell]                    [cm^2/Vs]
     =============================================================================================

      100.000  12.9723   0.10000E+14   0.00000E+00    0.666741E-02    0.000000E+00    0.000000E+00
                                                      0.000000E+00    0.666741E-02    0.000000E+00
                                                      0.000000E+00    0.000000E+00    0.648091E+04
      300.000  12.7561   0.10000E+14   0.00000E+00    0.250073E+03    0.000000E+00    0.000000E+00
                                                      0.000000E+00    0.250073E+03    0.000000E+00
                                                      0.000000E+00    0.000000E+00    0.863279E+04

                                                      0.298466E+02    Max error
     Iteration number:       199

     =============================================================================================
       Temp     Fermi   Elec density  Population SR                  Elec mobility 
        [K]      [eV]     [cm^-3]      [e per cell]                    [cm^2/Vs]
     =============================================================================================

      100.000  12.9723   0.10000E+14   0.00000E+00    0.666741E-02    0.000000E+00    0.000000E+00
                                                      0.000000E+00    0.666741E-02    0.000000E+00
                                                      0.000000E+00    0.000000E+00    0.645196E+04
      300.000  12.7561   0.10000E+14   0.00000E+00    0.250073E+03    0.000000E+00    0.000000E+00
                                                      0.000000E+00    0.250073E+03    0.000000E+00
                                                      0.000000E+00    0.000000E+00    0.863279E+04

                                                      0.289476E+02    Max error
     Iteration number:       200

     =============================================================================================
       Temp     Fermi   Elec density  Population SR                  Elec mobility 
        [K]      [eV]     [cm^-3]      [e per cell]                    [cm^2/Vs]
     =============================================================================================

      100.000  12.9723   0.10000E+14   0.00000E+00    0.666741E-02    0.000000E+00    0.000000E+00
                                                      0.000000E+00    0.666741E-02    0.000000E+00
                                                      0.000000E+00    0.000000E+00    0.648004E+04
      300.000  12.7561   0.10000E+14   0.00000E+00    0.250073E+03    0.000000E+00    0.000000E+00
                                                      0.000000E+00    0.250073E+03    0.000000E+00
                                                      0.000000E+00    0.000000E+00    0.863279E+04

                                                      0.280758E+02    Max error
     Iteration number:       201
     =============================================================================================
     The iteration reached the maximum but did not converge.
     =============================================================================================


     Unfolding on the coarse grid
     elphon_wrap  :      0.00s CPU      0.00s WALL (       1 calls)

     INITIALIZATION: 




     Electron-Phonon interpolation
     ephwann      :      9.53s CPU     10.30s WALL (       1 calls)
     ep-interp    :      3.53s CPU      4.23s WALL (      70 calls)

     DynW2B       :      0.01s CPU      0.02s WALL (      70 calls)
     HamW2B       :      1.97s CPU      2.02s WALL (   52052 calls)
     ephW2Bp      :      0.19s CPU      0.31s WALL (      70 calls)
     ephW2B       :      0.01s CPU      0.01s WALL (      70 calls)
     print_ibte   :      0.10s CPU      0.55s WALL (      70 calls)
     vmewan2bloch :      0.03s CPU      0.03s WALL (     210 calls)
     vmewan2bloch :      0.03s CPU      0.03s WALL (     210 calls)
     kpoint_paral :      0.01s CPU      0.01s WALL (       1 calls)


     Total program execution
     EPW          :      9.54s CPU     10.31s WALL

                                                                                          
 Please consider citing:                                                                  
 S. Ponce, E. R. Margine, C. Verdi and F. Giustino, Comput. Phys. Commun. 209, 116 (2016) 
                                                                                          
 In addition, since you have used the following functionalities, please cite:             
   scattering :: S. Ponce, E. R. Margine and F. Giustino, Phys. Rev. B 97, 121201 (2018)     
   iterative_bte :: S. Ponce, E. R. Margine and F. Giustino, Phys. Rev. B 97, 121201 (2018)  
   iterative_bte :: F. Macheda and N. Bonini, Phys. Rev. B 98, 201201 (2018)                 
   adapt_smearing :: F. Macheda and N. Bonini, Phys. Rev. B 98, 201201 (2018)                
