                                                                                      
                                       ``:oss/                                        
                           `.+s+.     .+ys--yh+     `./ss+.                           
                          -sh//yy+`   +yy   +yy    -+h+-oyy                           
                          -yh- .oyy/.-sh.   .syo-.:sy-  /yh                           
                 `.-.`    `yh+   -oyyyo.     `/syys:    oys      `.`                  
               `/+ssys+-` `sh+      `                   oys`   .:osyo`                
               -yh- ./syyooyo`                          .sys+/oyo--yh/                
               `yy+    .-:-.                             `-/+/:`  -sh-                
                /yh.                                              oys                 
          ``..---hho---------`   .---------..`      `.-----.`    -hd+---.             
       `./osmNMMMMMMMMMMMMMMMs. +NNMMMMMMMMNNmh+.   yNMMMMMNm-  oNMMMMMNmo++:`        
       +sy--/sdMMMhyyyyyyyNMMh- .oyNMMmyyyyyhNMMm+` -yMMMdyyo:` .oyyNMMNhs+syy`       
       -yy/   /MMM+.`-+/``mMMy-   `mMMh:`````.dMMN:` `MMMy-`-dhhy```mMMy:``+hs        
        -yy+` /MMMo:-mMM+`-oo/.    mMMh:     `dMMN/`  dMMm:`dMMMMy..MMMo-.+yo`        
         .sys`/MMMMNNMMMs-         mMMmyooooymMMNo:   oMMM/sMMMMMM++MMN//oh:          
          `sh+/MMMhyyMMMs- `-`     mMMMMMMMMMNmy+-`   -MMMhMMMsmMMmdMMd/yy+           
    `-/+++oyy-/MMM+.`/hh/.`mNm:`   mMMd+/////:-.`      NMMMMMd/:NMMMMMy:/yyo/:.`      
   +os+//:-..-oMMMo:--:::-/MMMo. .-mMMd+---`           hMMMMN+. oMMMMMo. `-+osyso:`   
   syo     `mNMMMMMNNNNNNNNMMMo.oNNMMMMMNNNN:`         +MMMMs:`  dMMMN/`     ``:syo   
   /yh`     :syyyyyyyyyyyyyyyy+.`+syyyyyyyyo:`         .oyys:`   .oyys:`        +yh   
   -yh-        ````````````````    `````````              ``        ``          oys   
   -+h/------------------------::::::::://////++++++++++++++++++++++///////::::/yd:   
   shdddddddddddddddddddddddddddddhhhhhhhhyyyyyssssssssssssssssyyyyyyyhhhhhhhddddh`   
                                                                                      
  S. Ponce, E. R. Margine, C. Verdi, and F. Giustino,                                 
                                                Comput. Phys. Commun. 209, 116 (2016) 
                                                                                      

     Program EPW v.5.3.0 starts on  7Aug2020 at 12:51: 9 

     This program is part of the open-source Quantum ESPRESSO suite
     for quantum simulation of materials; please cite
         "P. Giannozzi et al., J. Phys.:Condens. Matter 21 395502 (2009);
         "P. Giannozzi et al., J. Phys.:Condens. Matter 29 465901 (2017);
          URL http://www.quantum-espresso.org", 
     in publications or presentations arising from this work. More details at
     http://www.quantum-espresso.org/quote

     Parallel version (MPI), running on     4 processors

     MPI processes distributed on     1 nodes
     K-points division:     npool     =       4
     Fft bands division:     nmany     =       1

     WARNING: The specified dis_win_min is ignored.
              You should instead use bands_skipped = 'exclude_bands = ...'
              to control the lower bound of band manifold.

     Reading supplied temperature list.
                      
     ------------------------------------------------------------------------ 
                   RESTART - RESTART - RESTART - RESTART                         
     Restart is done without reading PWSCF save file.                  
     Be aware that some consistency checks are therefore not done.                  
     ------------------------------------------------------------------------ 
                      

     --                                                                         

     bravais-lattice index     =    987654321
     lattice parameter (a_0)   =       0.0000  a.u.
     unit-cell volume          =       0.0000 (a.u.)^3
     number of atoms/cell      =            0
     number of atomic types    =            0
     kinetic-energy cut-off    =       0.0000  Ry
     charge density cut-off    =       0.0000  Ry
     Exchange-correlation= not set
                           (  -1  -1  -1  -1  -1  -1  -1)


     celldm(1)=    0.00000  celldm(2)=    0.00000  celldm(3)=    0.00000
     celldm(4)=    0.00000  celldm(5)=    0.00000  celldm(6)=    0.00000

     crystal axes: (cart. coord. in units of a_0)
               a(1) = (  0.0000  0.0000  0.0000 )  
               a(2) = (  0.0000  0.0000  0.0000 )  
               a(3) = (  0.0000  0.0000  0.0000 )  

     reciprocal axes: (cart. coord. in units 2 pi/a_0)
               b(1) = (  0.0000  0.0000  0.0000 )  
               b(2) = (  0.0000  0.0000  0.0000 )  
               b(3) = (  0.0000  0.0000  0.0000 )  


     Atoms inside the unit cell: 

   Cartesian axes

     site n.  atom      mass           positions (a_0 units)


     No symmetry!
                                    s                        frac. trans.

     G cutoff =    0.0000  (      0 G-vectors)     FFT grid: (  0,  0,  0)
     number of k points=    0
                       cart. coord. in units 2pi/a_0

                       cryst. coord.
     EPW          :      0.00s CPU      0.00s WALL

     EPW          :      0.00s CPU      0.00s WALL


     -------------------------------------------------------------------
     Using gan.ukk from disk
     -------------------------------------------------------------------


     Do not need to read .epb files; read .fmt files


     Band disentanglement is used: nbndsub =   14

     Computes the analytic long-range interaction for polar materials [lpolar]
      
     Construct the Wigner-Seitz cell using Wannier centers and atomic positions 
     Number of WS vectors for electrons       35
     Number of WS vectors for phonons       25
     Number of WS vectors for electron-phonon       29
     Maximum number of cores for efficient parallelization      116

     Reading Hamiltonian, Dynamical matrix and EP vertex in Wann rep from file


     Finished reading Wann rep data from file

     ===================================================================
     Memory usage:  VmHWM =        17Mb
                   VmPeak =       376Mb
     ===================================================================
     
     Using uniform q-mesh:   30  30  30
     Size of q point mesh for interpolation:      27000
     Using uniform MP k-mesh:   30  30  30
     Size of k point mesh for interpolation:       2912
     Max number of k points per pool:              728

     Fermi energy coarse grid =  11.381868 eV

     ===================================================================

     Fermi energy is read from the input file: Ef =  12.976050 eV

     ===================================================================

     Skipping the first   12 bands:

     The Fermi level will be determined with  12.00000 electrons

              ibndmin =     7  ebndmin =     0.961
              ibndmax =     7  ebndmax =     0.983


     Number of ep-matrix elements per pool :         4368 ~=   34.12 Kb (@ 8 bytes/ DP)
      
     A selecq.fmt file was found but re-created because selecqread == .FALSE. 
     Number selected, total             50          26101
     We only need to compute       70 q-points
      
     Valence band maximum    =  11.381868 eV
     Conduction band minimum =  13.076041 eV

     Temperature  100.000 K
     Mobility CB Fermi level =  12.972278 eV

     Temperature  300.000 K
     Mobility CB Fermi level =  12.756135 eV

     ===================================================================
     Scattering rate for IBTE
     ===================================================================

     Restart and restart_step inputs deactivated (restart point at every q-points).
     No intermediate mobility will be shown.

     Fermi Surface thickness =   0.400000 eV
     This is computed with respect to the fine Fermi level  12.976050 eV
     Only states between  12.576050 eV and  13.376050 eV will be included

     Save matrix elements larger than threshold:   0.137174211248E-24
      
     Progression iq (fine) =         50/        70
       Adaptative smearing = Min:    37.466647 meV
                             Max:    63.884686 meV
      100.000     12.9723       0.999997E+13
      300.000     12.7561       0.100001E+14
      
     epmatkqread automatically changed to .TRUE. as all scattering have been computed.
      
     ===================================================================
     Memory usage:  VmHWM =        34Mb
                   VmPeak =       417Mb
     ===================================================================

     Number of elements per core         94
     Symmetry mapping finished
      
     =============================================================================================
     BTE in the self-energy relaxation time approximation (SERTA)
     =============================================================================================

     =============================================================================================
       Temp     Fermi   Elec density  Population SR                  Elec mobility 
        [K]      [eV]     [cm^-3]      [e per cell]                    [cm^2/Vs]
     =============================================================================================

      100.000  12.9723   0.10000E+14   0.80392E-23    0.549715E-02    0.000000E+00    0.000000E+00
                                                      0.000000E+00    0.549715E-02    0.000000E+00
                                                      0.000000E+00    0.000000E+00    0.128573E+05
      300.000  12.7561   0.10000E+14   0.00000E+00    0.161455E+03    0.000000E+00    0.000000E+00
                                                      0.000000E+00    0.161455E+03    0.000000E+00
                                                      0.000000E+00    0.000000E+00    0.111510E+05
      
     =============================================================================================
     Start solving iterative Boltzmann Transport Equation
     =============================================================================================

     Iteration number:         1

     =============================================================================================
       Temp     Fermi   Elec density  Population SR                  Elec mobility 
        [K]      [eV]     [cm^-3]      [e per cell]                    [cm^2/Vs]
     =============================================================================================

      100.000  12.9723   0.10000E+14   0.00000E+00    0.607888E-02    0.000000E+00    0.000000E+00
                                                      0.000000E+00    0.607888E-02    0.000000E+00
                                                      0.000000E+00    0.000000E+00    0.391959E+03
      300.000  12.7561   0.10000E+14   0.00000E+00    0.212979E+03    0.000000E+00    0.000000E+00
                                                      0.000000E+00    0.212979E+03    0.000000E+00
                                                      0.000000E+00    0.000000E+00    0.747860E+04

                                                      0.747860E+04    Max error
     Iteration number:         2

     =============================================================================================
       Temp     Fermi   Elec density  Population SR                  Elec mobility 
        [K]      [eV]     [cm^-3]      [e per cell]                    [cm^2/Vs]
     =============================================================================================

      100.000  12.9723   0.10000E+14   0.00000E+00    0.653137E-02    0.000000E+00    0.000000E+00
                                                      0.000000E+00    0.653137E-02    0.000000E+00
                                                      0.000000E+00    0.000000E+00    0.124839E+05
      300.000  12.7561   0.10000E+14   0.00000E+00    0.235431E+03    0.000000E+00    0.000000E+00
                                                      0.000000E+00    0.235431E+03    0.000000E+00
                                                      0.000000E+00    0.000000E+00    0.922175E+04

                                                      0.120919E+05    Max error
     Iteration number:         3

     =============================================================================================
       Temp     Fermi   Elec density  Population SR                  Elec mobility 
        [K]      [eV]     [cm^-3]      [e per cell]                    [cm^2/Vs]
     =============================================================================================

      100.000  12.9723   0.10000E+14   0.00000E+00    0.660227E-02    0.000000E+00    0.000000E+00
                                                      0.000000E+00    0.660227E-02    0.000000E+00
                                                      0.000000E+00    0.000000E+00    0.754096E+03
      300.000  12.7561   0.10000E+14   0.00000E+00    0.243720E+03    0.000000E+00    0.000000E+00
                                                      0.000000E+00    0.243720E+03    0.000000E+00
                                                      0.000000E+00    0.000000E+00    0.844001E+04

                                                      0.117298E+05    Max error
     Iteration number:         4

     =============================================================================================
       Temp     Fermi   Elec density  Population SR                  Elec mobility 
        [K]      [eV]     [cm^-3]      [e per cell]                    [cm^2/Vs]
     =============================================================================================

      100.000  12.9723   0.10000E+14   0.00000E+00    0.664087E-02    0.000000E+00    0.000000E+00
                                                      0.000000E+00    0.664087E-02    0.000000E+00
                                                      0.000000E+00    0.000000E+00    0.121326E+05
      300.000  12.7561   0.10000E+14   0.00000E+00    0.247192E+03    0.000000E+00    0.000000E+00
                                                      0.000000E+00    0.247192E+03    0.000000E+00
                                                      0.000000E+00    0.000000E+00    0.879453E+04

                                                      0.113785E+05    Max error
     Iteration number:         5

     =============================================================================================
       Temp     Fermi   Elec density  Population SR                  Elec mobility 
        [K]      [eV]     [cm^-3]      [e per cell]                    [cm^2/Vs]
     =============================================================================================

      100.000  12.9723   0.10000E+14   0.00000E+00    0.664854E-02    0.000000E+00    0.000000E+00
                                                      0.000000E+00    0.664854E-02    0.000000E+00
                                                      0.000000E+00    0.000000E+00    0.109487E+04
      300.000  12.7561   0.10000E+14   0.00000E+00    0.248509E+03    0.000000E+00    0.000000E+00
                                                      0.000000E+00    0.248509E+03    0.000000E+00
                                                      0.000000E+00    0.000000E+00    0.863426E+04

                                                      0.110377E+05    Max error
     Iteration number:         6

     =============================================================================================
       Temp     Fermi   Elec density  Population SR                  Elec mobility 
        [K]      [eV]     [cm^-3]      [e per cell]                    [cm^2/Vs]
     =============================================================================================

      100.000  12.9723   0.10000E+14   0.00000E+00    0.665193E-02    0.000000E+00    0.000000E+00
                                                      0.000000E+00    0.665193E-02    0.000000E+00
                                                      0.000000E+00    0.000000E+00    0.118020E+05
      300.000  12.7561   0.10000E+14   0.00000E+00    0.249049E+03    0.000000E+00    0.000000E+00
                                                      0.000000E+00    0.249049E+03    0.000000E+00
                                                      0.000000E+00    0.000000E+00    0.870678E+04

                                                      0.107072E+05    Max error
     Iteration number:         7

     =============================================================================================
       Temp     Fermi   Elec density  Population SR                  Elec mobility 
        [K]      [eV]     [cm^-3]      [e per cell]                    [cm^2/Vs]
     =============================================================================================

      100.000  12.9723   0.10000E+14   0.00000E+00    0.665271E-02    0.000000E+00    0.000000E+00
                                                      0.000000E+00    0.665271E-02    0.000000E+00
                                                      0.000000E+00    0.000000E+00    0.141554E+04
      300.000  12.7561   0.10000E+14   0.00000E+00    0.249257E+03    0.000000E+00    0.000000E+00
                                                      0.000000E+00    0.249257E+03    0.000000E+00
                                                      0.000000E+00    0.000000E+00    0.867398E+04

                                                      0.103865E+05    Max error
     Iteration number:         8

     =============================================================================================
       Temp     Fermi   Elec density  Population SR                  Elec mobility 
        [K]      [eV]     [cm^-3]      [e per cell]                    [cm^2/Vs]
     =============================================================================================

      100.000  12.9723   0.10000E+14   0.00000E+00    0.665301E-02    0.000000E+00    0.000000E+00
                                                      0.000000E+00    0.665301E-02    0.000000E+00
                                                      0.000000E+00    0.000000E+00    0.114910E+05
      300.000  12.7561   0.10000E+14   0.00000E+00    0.249342E+03    0.000000E+00    0.000000E+00
                                                      0.000000E+00    0.249342E+03    0.000000E+00
                                                      0.000000E+00    0.000000E+00    0.868882E+04

                                                      0.100754E+05    Max error
     Iteration number:         9

     =============================================================================================
       Temp     Fermi   Elec density  Population SR                  Elec mobility 
        [K]      [eV]     [cm^-3]      [e per cell]                    [cm^2/Vs]
     =============================================================================================

      100.000  12.9723   0.10000E+14   0.00000E+00    0.665309E-02    0.000000E+00    0.000000E+00
                                                      0.000000E+00    0.665309E-02    0.000000E+00
                                                      0.000000E+00    0.000000E+00    0.171728E+04
      300.000  12.7561   0.10000E+14   0.00000E+00    0.249375E+03    0.000000E+00    0.000000E+00
                                                      0.000000E+00    0.249375E+03    0.000000E+00
                                                      0.000000E+00    0.000000E+00    0.868211E+04

                                                      0.977367E+04    Max error
     Iteration number:        10

     =============================================================================================
       Temp     Fermi   Elec density  Population SR                  Elec mobility 
        [K]      [eV]     [cm^-3]      [e per cell]                    [cm^2/Vs]
     =============================================================================================

      100.000  12.9723   0.10000E+14   0.00000E+00    0.665312E-02    0.000000E+00    0.000000E+00
                                                      0.000000E+00    0.665312E-02    0.000000E+00
                                                      0.000000E+00    0.000000E+00    0.111982E+05
      300.000  12.7561   0.10000E+14   0.00000E+00    0.249388E+03    0.000000E+00    0.000000E+00
                                                      0.000000E+00    0.249388E+03    0.000000E+00
                                                      0.000000E+00    0.000000E+00    0.868514E+04

                                                      0.948096E+04    Max error
     Iteration number:        11

     =============================================================================================
       Temp     Fermi   Elec density  Population SR                  Elec mobility 
        [K]      [eV]     [cm^-3]      [e per cell]                    [cm^2/Vs]
     =============================================================================================

      100.000  12.9723   0.10000E+14   0.00000E+00    0.665313E-02    0.000000E+00    0.000000E+00
                                                      0.000000E+00    0.665313E-02    0.000000E+00
                                                      0.000000E+00    0.000000E+00    0.200123E+04
      300.000  12.7561   0.10000E+14   0.00000E+00    0.249393E+03    0.000000E+00    0.000000E+00
                                                      0.000000E+00    0.249393E+03    0.000000E+00
                                                      0.000000E+00    0.000000E+00    0.868377E+04

                                                      0.919702E+04    Max error
     Iteration number:        12

     =============================================================================================
       Temp     Fermi   Elec density  Population SR                  Elec mobility 
        [K]      [eV]     [cm^-3]      [e per cell]                    [cm^2/Vs]
     =============================================================================================

      100.000  12.9723   0.10000E+14   0.00000E+00    0.665313E-02    0.000000E+00    0.000000E+00
                                                      0.000000E+00    0.665313E-02    0.000000E+00
                                                      0.000000E+00    0.000000E+00    0.109228E+05
      300.000  12.7561   0.10000E+14   0.00000E+00    0.249395E+03    0.000000E+00    0.000000E+00
                                                      0.000000E+00    0.249395E+03    0.000000E+00
                                                      0.000000E+00    0.000000E+00    0.868439E+04

                                                      0.892158E+04    Max error
     Iteration number:        13

     =============================================================================================
       Temp     Fermi   Elec density  Population SR                  Elec mobility 
        [K]      [eV]     [cm^-3]      [e per cell]                    [cm^2/Vs]
     =============================================================================================

      100.000  12.9723   0.10000E+14   0.00000E+00    0.665313E-02    0.000000E+00    0.000000E+00
                                                      0.000000E+00    0.665313E-02    0.000000E+00
                                                      0.000000E+00    0.000000E+00    0.226842E+04
      300.000  12.7561   0.10000E+14   0.00000E+00    0.249396E+03    0.000000E+00    0.000000E+00
                                                      0.000000E+00    0.249396E+03    0.000000E+00
                                                      0.000000E+00    0.000000E+00    0.868411E+04

                                                      0.865439E+04    Max error
     Iteration number:        14

     =============================================================================================
       Temp     Fermi   Elec density  Population SR                  Elec mobility 
        [K]      [eV]     [cm^-3]      [e per cell]                    [cm^2/Vs]
     =============================================================================================

      100.000  12.9723   0.10000E+14   0.00000E+00    0.665313E-02    0.000000E+00    0.000000E+00
                                                      0.000000E+00    0.665313E-02    0.000000E+00
                                                      0.000000E+00    0.000000E+00    0.106636E+05
      300.000  12.7561   0.10000E+14   0.00000E+00    0.249396E+03    0.000000E+00    0.000000E+00
                                                      0.000000E+00    0.249396E+03    0.000000E+00
                                                      0.000000E+00    0.000000E+00    0.868424E+04

                                                      0.839520E+04    Max error
     Iteration number:        15

     =============================================================================================
       Temp     Fermi   Elec density  Population SR                  Elec mobility 
        [K]      [eV]     [cm^-3]      [e per cell]                    [cm^2/Vs]
     =============================================================================================

      100.000  12.9723   0.10000E+14   0.00000E+00    0.665313E-02    0.000000E+00    0.000000E+00
                                                      0.000000E+00    0.665313E-02    0.000000E+00
                                                      0.000000E+00    0.000000E+00    0.251985E+04
      300.000  12.7561   0.10000E+14   0.00000E+00    0.249396E+03    0.000000E+00    0.000000E+00
                                                      0.000000E+00    0.249396E+03    0.000000E+00
                                                      0.000000E+00    0.000000E+00    0.868418E+04

                                                      0.814377E+04    Max error
     Iteration number:        16

     =============================================================================================
       Temp     Fermi   Elec density  Population SR                  Elec mobility 
        [K]      [eV]     [cm^-3]      [e per cell]                    [cm^2/Vs]
     =============================================================================================

      100.000  12.9723   0.10000E+14   0.00000E+00    0.665313E-02    0.000000E+00    0.000000E+00
                                                      0.000000E+00    0.665313E-02    0.000000E+00
                                                      0.000000E+00    0.000000E+00    0.104197E+05
      300.000  12.7561   0.10000E+14   0.00000E+00    0.249396E+03    0.000000E+00    0.000000E+00
                                                      0.000000E+00    0.249396E+03    0.000000E+00
                                                      0.000000E+00    0.000000E+00    0.868421E+04

                                                      0.789987E+04    Max error
     Iteration number:        17

     =============================================================================================
       Temp     Fermi   Elec density  Population SR                  Elec mobility 
        [K]      [eV]     [cm^-3]      [e per cell]                    [cm^2/Vs]
     =============================================================================================

      100.000  12.9723   0.10000E+14   0.00000E+00    0.665313E-02    0.000000E+00    0.000000E+00
                                                      0.000000E+00    0.665313E-02    0.000000E+00
                                                      0.000000E+00    0.000000E+00    0.275644E+04
      300.000  12.7561   0.10000E+14   0.00000E+00    0.249396E+03    0.000000E+00    0.000000E+00
                                                      0.000000E+00    0.249396E+03    0.000000E+00
                                                      0.000000E+00    0.000000E+00    0.868419E+04

                                                      0.766328E+04    Max error
     Iteration number:        18

     =============================================================================================
       Temp     Fermi   Elec density  Population SR                  Elec mobility 
        [K]      [eV]     [cm^-3]      [e per cell]                    [cm^2/Vs]
     =============================================================================================

      100.000  12.9723   0.10000E+14   0.00000E+00    0.665313E-02    0.000000E+00    0.000000E+00
                                                      0.000000E+00    0.665313E-02    0.000000E+00
                                                      0.000000E+00    0.000000E+00    0.101902E+05
      300.000  12.7561   0.10000E+14   0.00000E+00    0.249396E+03    0.000000E+00    0.000000E+00
                                                      0.000000E+00    0.249396E+03    0.000000E+00
                                                      0.000000E+00    0.000000E+00    0.868420E+04

                                                      0.743377E+04    Max error
     Iteration number:        19

     =============================================================================================
       Temp     Fermi   Elec density  Population SR                  Elec mobility 
        [K]      [eV]     [cm^-3]      [e per cell]                    [cm^2/Vs]
     =============================================================================================

      100.000  12.9723   0.10000E+14   0.00000E+00    0.665313E-02    0.000000E+00    0.000000E+00
                                                      0.000000E+00    0.665313E-02    0.000000E+00
                                                      0.000000E+00    0.000000E+00    0.297907E+04
      300.000  12.7561   0.10000E+14   0.00000E+00    0.249396E+03    0.000000E+00    0.000000E+00
                                                      0.000000E+00    0.249396E+03    0.000000E+00
                                                      0.000000E+00    0.000000E+00    0.868420E+04

                                                      0.721114E+04    Max error
     Iteration number:        20

     =============================================================================================
       Temp     Fermi   Elec density  Population SR                  Elec mobility 
        [K]      [eV]     [cm^-3]      [e per cell]                    [cm^2/Vs]
     =============================================================================================

      100.000  12.9723   0.10000E+14   0.00000E+00    0.665313E-02    0.000000E+00    0.000000E+00
                                                      0.000000E+00    0.665313E-02    0.000000E+00
                                                      0.000000E+00    0.000000E+00    0.997425E+04
      300.000  12.7561   0.10000E+14   0.00000E+00    0.249396E+03    0.000000E+00    0.000000E+00
                                                      0.000000E+00    0.249396E+03    0.000000E+00
                                                      0.000000E+00    0.000000E+00    0.868420E+04

                                                      0.699518E+04    Max error
     Iteration number:        21

     =============================================================================================
       Temp     Fermi   Elec density  Population SR                  Elec mobility 
        [K]      [eV]     [cm^-3]      [e per cell]                    [cm^2/Vs]
     =============================================================================================

      100.000  12.9723   0.10000E+14   0.00000E+00    0.665313E-02    0.000000E+00    0.000000E+00
                                                      0.000000E+00    0.665313E-02    0.000000E+00
                                                      0.000000E+00    0.000000E+00    0.318857E+04
      300.000  12.7561   0.10000E+14   0.00000E+00    0.249396E+03    0.000000E+00    0.000000E+00
                                                      0.000000E+00    0.249396E+03    0.000000E+00
                                                      0.000000E+00    0.000000E+00    0.868420E+04

                                                      0.678568E+04    Max error
     Iteration number:        22

     =============================================================================================
       Temp     Fermi   Elec density  Population SR                  Elec mobility 
        [K]      [eV]     [cm^-3]      [e per cell]                    [cm^2/Vs]
     =============================================================================================

      100.000  12.9723   0.10000E+14   0.00000E+00    0.665313E-02    0.000000E+00    0.000000E+00
                                                      0.000000E+00    0.665313E-02    0.000000E+00
                                                      0.000000E+00    0.000000E+00    0.977103E+04
      300.000  12.7561   0.10000E+14   0.00000E+00    0.249396E+03    0.000000E+00    0.000000E+00
                                                      0.000000E+00    0.249396E+03    0.000000E+00
                                                      0.000000E+00    0.000000E+00    0.868420E+04

                                                      0.658245E+04    Max error
     Iteration number:        23

     =============================================================================================
       Temp     Fermi   Elec density  Population SR                  Elec mobility 
        [K]      [eV]     [cm^-3]      [e per cell]                    [cm^2/Vs]
     =============================================================================================

      100.000  12.9723   0.10000E+14   0.00000E+00    0.665313E-02    0.000000E+00    0.000000E+00
                                                      0.000000E+00    0.665313E-02    0.000000E+00
                                                      0.000000E+00    0.000000E+00    0.338571E+04
      300.000  12.7561   0.10000E+14   0.00000E+00    0.249396E+03    0.000000E+00    0.000000E+00
                                                      0.000000E+00    0.249396E+03    0.000000E+00
                                                      0.000000E+00    0.000000E+00    0.868420E+04

                                                      0.638532E+04    Max error
     Iteration number:        24

     =============================================================================================
       Temp     Fermi   Elec density  Population SR                  Elec mobility 
        [K]      [eV]     [cm^-3]      [e per cell]                    [cm^2/Vs]
     =============================================================================================

      100.000  12.9723   0.10000E+14   0.00000E+00    0.665313E-02    0.000000E+00    0.000000E+00
                                                      0.000000E+00    0.665313E-02    0.000000E+00
                                                      0.000000E+00    0.000000E+00    0.957979E+04
      300.000  12.7561   0.10000E+14   0.00000E+00    0.249396E+03    0.000000E+00    0.000000E+00
                                                      0.000000E+00    0.249396E+03    0.000000E+00
                                                      0.000000E+00    0.000000E+00    0.868420E+04

                                                      0.619408E+04    Max error
     Iteration number:        25

     =============================================================================================
       Temp     Fermi   Elec density  Population SR                  Elec mobility 
        [K]      [eV]     [cm^-3]      [e per cell]                    [cm^2/Vs]
     =============================================================================================

      100.000  12.9723   0.10000E+14   0.00000E+00    0.665313E-02    0.000000E+00    0.000000E+00
                                                      0.000000E+00    0.665313E-02    0.000000E+00
                                                      0.000000E+00    0.000000E+00    0.357121E+04
      300.000  12.7561   0.10000E+14   0.00000E+00    0.249396E+03    0.000000E+00    0.000000E+00
                                                      0.000000E+00    0.249396E+03    0.000000E+00
                                                      0.000000E+00    0.000000E+00    0.868420E+04

                                                      0.600858E+04    Max error
     Iteration number:        26

     =============================================================================================
       Temp     Fermi   Elec density  Population SR                  Elec mobility 
        [K]      [eV]     [cm^-3]      [e per cell]                    [cm^2/Vs]
     =============================================================================================

      100.000  12.9723   0.10000E+14   0.00000E+00    0.665313E-02    0.000000E+00    0.000000E+00
                                                      0.000000E+00    0.665313E-02    0.000000E+00
                                                      0.000000E+00    0.000000E+00    0.939984E+04
      300.000  12.7561   0.10000E+14   0.00000E+00    0.249396E+03    0.000000E+00    0.000000E+00
                                                      0.000000E+00    0.249396E+03    0.000000E+00
                                                      0.000000E+00    0.000000E+00    0.868420E+04

                                                      0.582863E+04    Max error
     Iteration number:        27

     =============================================================================================
       Temp     Fermi   Elec density  Population SR                  Elec mobility 
        [K]      [eV]     [cm^-3]      [e per cell]                    [cm^2/Vs]
     =============================================================================================

      100.000  12.9723   0.10000E+14   0.00000E+00    0.665313E-02    0.000000E+00    0.000000E+00
                                                      0.000000E+00    0.665313E-02    0.000000E+00
                                                      0.000000E+00    0.000000E+00    0.374578E+04
      300.000  12.7561   0.10000E+14   0.00000E+00    0.249396E+03    0.000000E+00    0.000000E+00
                                                      0.000000E+00    0.249396E+03    0.000000E+00
                                                      0.000000E+00    0.000000E+00    0.868420E+04

                                                      0.565407E+04    Max error
     Iteration number:        28

     =============================================================================================
       Temp     Fermi   Elec density  Population SR                  Elec mobility 
        [K]      [eV]     [cm^-3]      [e per cell]                    [cm^2/Vs]
     =============================================================================================

      100.000  12.9723   0.10000E+14   0.00000E+00    0.665313E-02    0.000000E+00    0.000000E+00
                                                      0.000000E+00    0.665313E-02    0.000000E+00
                                                      0.000000E+00    0.000000E+00    0.923051E+04
      300.000  12.7561   0.10000E+14   0.00000E+00    0.249396E+03    0.000000E+00    0.000000E+00
                                                      0.000000E+00    0.249396E+03    0.000000E+00
                                                      0.000000E+00    0.000000E+00    0.868420E+04

                                                      0.548473E+04    Max error
     Iteration number:        29

     =============================================================================================
       Temp     Fermi   Elec density  Population SR                  Elec mobility 
        [K]      [eV]     [cm^-3]      [e per cell]                    [cm^2/Vs]
     =============================================================================================

      100.000  12.9723   0.10000E+14   0.00000E+00    0.665313E-02    0.000000E+00    0.000000E+00
                                                      0.000000E+00    0.665313E-02    0.000000E+00
                                                      0.000000E+00    0.000000E+00    0.391004E+04
      300.000  12.7561   0.10000E+14   0.00000E+00    0.249396E+03    0.000000E+00    0.000000E+00
                                                      0.000000E+00    0.249396E+03    0.000000E+00
                                                      0.000000E+00    0.000000E+00    0.868420E+04

                                                      0.532047E+04    Max error
     Iteration number:        30

     =============================================================================================
       Temp     Fermi   Elec density  Population SR                  Elec mobility 
        [K]      [eV]     [cm^-3]      [e per cell]                    [cm^2/Vs]
     =============================================================================================

      100.000  12.9723   0.10000E+14   0.00000E+00    0.665313E-02    0.000000E+00    0.000000E+00
                                                      0.000000E+00    0.665313E-02    0.000000E+00
                                                      0.000000E+00    0.000000E+00    0.907117E+04
      300.000  12.7561   0.10000E+14   0.00000E+00    0.249396E+03    0.000000E+00    0.000000E+00
                                                      0.000000E+00    0.249396E+03    0.000000E+00
                                                      0.000000E+00    0.000000E+00    0.868420E+04

                                                      0.516113E+04    Max error
     Iteration number:        31

     =============================================================================================
       Temp     Fermi   Elec density  Population SR                  Elec mobility 
        [K]      [eV]     [cm^-3]      [e per cell]                    [cm^2/Vs]
     =============================================================================================

      100.000  12.9723   0.10000E+14   0.00000E+00    0.665313E-02    0.000000E+00    0.000000E+00
                                                      0.000000E+00    0.665313E-02    0.000000E+00
                                                      0.000000E+00    0.000000E+00    0.406461E+04
      300.000  12.7561   0.10000E+14   0.00000E+00    0.249396E+03    0.000000E+00    0.000000E+00
                                                      0.000000E+00    0.249396E+03    0.000000E+00
                                                      0.000000E+00    0.000000E+00    0.868420E+04

                                                      0.500656E+04    Max error
     Iteration number:        32

     =============================================================================================
       Temp     Fermi   Elec density  Population SR                  Elec mobility 
        [K]      [eV]     [cm^-3]      [e per cell]                    [cm^2/Vs]
     =============================================================================================

      100.000  12.9723   0.10000E+14   0.00000E+00    0.665313E-02    0.000000E+00    0.000000E+00
                                                      0.000000E+00    0.665313E-02    0.000000E+00
                                                      0.000000E+00    0.000000E+00    0.892123E+04
      300.000  12.7561   0.10000E+14   0.00000E+00    0.249396E+03    0.000000E+00    0.000000E+00
                                                      0.000000E+00    0.249396E+03    0.000000E+00
                                                      0.000000E+00    0.000000E+00    0.868420E+04

                                                      0.485662E+04    Max error
     Iteration number:        33

     =============================================================================================
       Temp     Fermi   Elec density  Population SR                  Elec mobility 
        [K]      [eV]     [cm^-3]      [e per cell]                    [cm^2/Vs]
     =============================================================================================

      100.000  12.9723   0.10000E+14   0.00000E+00    0.665313E-02    0.000000E+00    0.000000E+00
                                                      0.000000E+00    0.665313E-02    0.000000E+00
                                                      0.000000E+00    0.000000E+00    0.421006E+04
      300.000  12.7561   0.10000E+14   0.00000E+00    0.249396E+03    0.000000E+00    0.000000E+00
                                                      0.000000E+00    0.249396E+03    0.000000E+00
                                                      0.000000E+00    0.000000E+00    0.868420E+04

                                                      0.471117E+04    Max error
     Iteration number:        34

     =============================================================================================
       Temp     Fermi   Elec density  Population SR                  Elec mobility 
        [K]      [eV]     [cm^-3]      [e per cell]                    [cm^2/Vs]
     =============================================================================================

      100.000  12.9723   0.10000E+14   0.00000E+00    0.665313E-02    0.000000E+00    0.000000E+00
                                                      0.000000E+00    0.665313E-02    0.000000E+00
                                                      0.000000E+00    0.000000E+00    0.878013E+04
      300.000  12.7561   0.10000E+14   0.00000E+00    0.249396E+03    0.000000E+00    0.000000E+00
                                                      0.000000E+00    0.249396E+03    0.000000E+00
                                                      0.000000E+00    0.000000E+00    0.868420E+04

                                                      0.457007E+04    Max error
     Iteration number:        35

     =============================================================================================
       Temp     Fermi   Elec density  Population SR                  Elec mobility 
        [K]      [eV]     [cm^-3]      [e per cell]                    [cm^2/Vs]
     =============================================================================================

      100.000  12.9723   0.10000E+14   0.00000E+00    0.665313E-02    0.000000E+00    0.000000E+00
                                                      0.000000E+00    0.665313E-02    0.000000E+00
                                                      0.000000E+00    0.000000E+00    0.434693E+04
      300.000  12.7561   0.10000E+14   0.00000E+00    0.249396E+03    0.000000E+00    0.000000E+00
                                                      0.000000E+00    0.249396E+03    0.000000E+00
                                                      0.000000E+00    0.000000E+00    0.868420E+04

                                                      0.443320E+04    Max error
     Iteration number:        36

     =============================================================================================
       Temp     Fermi   Elec density  Population SR                  Elec mobility 
        [K]      [eV]     [cm^-3]      [e per cell]                    [cm^2/Vs]
     =============================================================================================

      100.000  12.9723   0.10000E+14   0.00000E+00    0.665313E-02    0.000000E+00    0.000000E+00
                                                      0.000000E+00    0.665313E-02    0.000000E+00
                                                      0.000000E+00    0.000000E+00    0.864736E+04
      300.000  12.7561   0.10000E+14   0.00000E+00    0.249396E+03    0.000000E+00    0.000000E+00
                                                      0.000000E+00    0.249396E+03    0.000000E+00
                                                      0.000000E+00    0.000000E+00    0.868420E+04

                                                      0.430044E+04    Max error
     Iteration number:        37

     =============================================================================================
       Temp     Fermi   Elec density  Population SR                  Elec mobility 
        [K]      [eV]     [cm^-3]      [e per cell]                    [cm^2/Vs]
     =============================================================================================

      100.000  12.9723   0.10000E+14   0.00000E+00    0.665313E-02    0.000000E+00    0.000000E+00
                                                      0.000000E+00    0.665313E-02    0.000000E+00
                                                      0.000000E+00    0.000000E+00    0.447572E+04
      300.000  12.7561   0.10000E+14   0.00000E+00    0.249396E+03    0.000000E+00    0.000000E+00
                                                      0.000000E+00    0.249396E+03    0.000000E+00
                                                      0.000000E+00    0.000000E+00    0.868420E+04

                                                      0.417164E+04    Max error
     Iteration number:        38

     =============================================================================================
       Temp     Fermi   Elec density  Population SR                  Elec mobility 
        [K]      [eV]     [cm^-3]      [e per cell]                    [cm^2/Vs]
     =============================================================================================

      100.000  12.9723   0.10000E+14   0.00000E+00    0.665313E-02    0.000000E+00    0.000000E+00
                                                      0.000000E+00    0.665313E-02    0.000000E+00
                                                      0.000000E+00    0.000000E+00    0.852243E+04
      300.000  12.7561   0.10000E+14   0.00000E+00    0.249396E+03    0.000000E+00    0.000000E+00
                                                      0.000000E+00    0.249396E+03    0.000000E+00
                                                      0.000000E+00    0.000000E+00    0.868420E+04

                                                      0.404671E+04    Max error
     Iteration number:        39

     =============================================================================================
       Temp     Fermi   Elec density  Population SR                  Elec mobility 
        [K]      [eV]     [cm^-3]      [e per cell]                    [cm^2/Vs]
     =============================================================================================

      100.000  12.9723   0.10000E+14   0.00000E+00    0.665313E-02    0.000000E+00    0.000000E+00
                                                      0.000000E+00    0.665313E-02    0.000000E+00
                                                      0.000000E+00    0.000000E+00    0.459691E+04
      300.000  12.7561   0.10000E+14   0.00000E+00    0.249396E+03    0.000000E+00    0.000000E+00
                                                      0.000000E+00    0.249396E+03    0.000000E+00
                                                      0.000000E+00    0.000000E+00    0.868420E+04

                                                      0.392551E+04    Max error
     Iteration number:        40

     =============================================================================================
       Temp     Fermi   Elec density  Population SR                  Elec mobility 
        [K]      [eV]     [cm^-3]      [e per cell]                    [cm^2/Vs]
     =============================================================================================

      100.000  12.9723   0.10000E+14   0.00000E+00    0.665313E-02    0.000000E+00    0.000000E+00
                                                      0.000000E+00    0.665313E-02    0.000000E+00
                                                      0.000000E+00    0.000000E+00    0.840486E+04
      300.000  12.7561   0.10000E+14   0.00000E+00    0.249396E+03    0.000000E+00    0.000000E+00
                                                      0.000000E+00    0.249396E+03    0.000000E+00
                                                      0.000000E+00    0.000000E+00    0.868420E+04

                                                      0.380795E+04    Max error
     Iteration number:        41

     =============================================================================================
       Temp     Fermi   Elec density  Population SR                  Elec mobility 
        [K]      [eV]     [cm^-3]      [e per cell]                    [cm^2/Vs]
     =============================================================================================

      100.000  12.9723   0.10000E+14   0.00000E+00    0.665313E-02    0.000000E+00    0.000000E+00
                                                      0.000000E+00    0.665313E-02    0.000000E+00
                                                      0.000000E+00    0.000000E+00    0.471096E+04
      300.000  12.7561   0.10000E+14   0.00000E+00    0.249396E+03    0.000000E+00    0.000000E+00
                                                      0.000000E+00    0.249396E+03    0.000000E+00
                                                      0.000000E+00    0.000000E+00    0.868420E+04

                                                      0.369390E+04    Max error
     Iteration number:        42

     =============================================================================================
       Temp     Fermi   Elec density  Population SR                  Elec mobility 
        [K]      [eV]     [cm^-3]      [e per cell]                    [cm^2/Vs]
     =============================================================================================

      100.000  12.9723   0.10000E+14   0.00000E+00    0.665313E-02    0.000000E+00    0.000000E+00
                                                      0.000000E+00    0.665313E-02    0.000000E+00
                                                      0.000000E+00    0.000000E+00    0.829423E+04
      300.000  12.7561   0.10000E+14   0.00000E+00    0.249396E+03    0.000000E+00    0.000000E+00
                                                      0.000000E+00    0.249396E+03    0.000000E+00
                                                      0.000000E+00    0.000000E+00    0.868420E+04

                                                      0.358327E+04    Max error
     Iteration number:        43

     =============================================================================================
       Temp     Fermi   Elec density  Population SR                  Elec mobility 
        [K]      [eV]     [cm^-3]      [e per cell]                    [cm^2/Vs]
     =============================================================================================

      100.000  12.9723   0.10000E+14   0.00000E+00    0.665313E-02    0.000000E+00    0.000000E+00
                                                      0.000000E+00    0.665313E-02    0.000000E+00
                                                      0.000000E+00    0.000000E+00    0.481827E+04
      300.000  12.7561   0.10000E+14   0.00000E+00    0.249396E+03    0.000000E+00    0.000000E+00
                                                      0.000000E+00    0.249396E+03    0.000000E+00
                                                      0.000000E+00    0.000000E+00    0.868420E+04

                                                      0.347596E+04    Max error
     Iteration number:        44

     =============================================================================================
       Temp     Fermi   Elec density  Population SR                  Elec mobility 
        [K]      [eV]     [cm^-3]      [e per cell]                    [cm^2/Vs]
     =============================================================================================

      100.000  12.9723   0.10000E+14   0.00000E+00    0.665313E-02    0.000000E+00    0.000000E+00
                                                      0.000000E+00    0.665313E-02    0.000000E+00
                                                      0.000000E+00    0.000000E+00    0.819013E+04
      300.000  12.7561   0.10000E+14   0.00000E+00    0.249396E+03    0.000000E+00    0.000000E+00
                                                      0.000000E+00    0.249396E+03    0.000000E+00
                                                      0.000000E+00    0.000000E+00    0.868420E+04

                                                      0.337186E+04    Max error
     Iteration number:        45

     =============================================================================================
       Temp     Fermi   Elec density  Population SR                  Elec mobility 
        [K]      [eV]     [cm^-3]      [e per cell]                    [cm^2/Vs]
     =============================================================================================

      100.000  12.9723   0.10000E+14   0.00000E+00    0.665313E-02    0.000000E+00    0.000000E+00
                                                      0.000000E+00    0.665313E-02    0.000000E+00
                                                      0.000000E+00    0.000000E+00    0.491926E+04
      300.000  12.7561   0.10000E+14   0.00000E+00    0.249396E+03    0.000000E+00    0.000000E+00
                                                      0.000000E+00    0.249396E+03    0.000000E+00
                                                      0.000000E+00    0.000000E+00    0.868420E+04

                                                      0.327087E+04    Max error
     Iteration number:        46

     =============================================================================================
       Temp     Fermi   Elec density  Population SR                  Elec mobility 
        [K]      [eV]     [cm^-3]      [e per cell]                    [cm^2/Vs]
     =============================================================================================

      100.000  12.9723   0.10000E+14   0.00000E+00    0.665313E-02    0.000000E+00    0.000000E+00
                                                      0.000000E+00    0.665313E-02    0.000000E+00
                                                      0.000000E+00    0.000000E+00    0.809217E+04
      300.000  12.7561   0.10000E+14   0.00000E+00    0.249396E+03    0.000000E+00    0.000000E+00
                                                      0.000000E+00    0.249396E+03    0.000000E+00
                                                      0.000000E+00    0.000000E+00    0.868420E+04

                                                      0.317292E+04    Max error
     Iteration number:        47

     =============================================================================================
       Temp     Fermi   Elec density  Population SR                  Elec mobility 
        [K]      [eV]     [cm^-3]      [e per cell]                    [cm^2/Vs]
     =============================================================================================

      100.000  12.9723   0.10000E+14   0.00000E+00    0.665313E-02    0.000000E+00    0.000000E+00
                                                      0.000000E+00    0.665313E-02    0.000000E+00
                                                      0.000000E+00    0.000000E+00    0.501428E+04
      300.000  12.7561   0.10000E+14   0.00000E+00    0.249396E+03    0.000000E+00    0.000000E+00
                                                      0.000000E+00    0.249396E+03    0.000000E+00
                                                      0.000000E+00    0.000000E+00    0.868420E+04

                                                      0.307789E+04    Max error
     Iteration number:        48

     =============================================================================================
       Temp     Fermi   Elec density  Population SR                  Elec mobility 
        [K]      [eV]     [cm^-3]      [e per cell]                    [cm^2/Vs]
     =============================================================================================

      100.000  12.9723   0.10000E+14   0.00000E+00    0.665313E-02    0.000000E+00    0.000000E+00
                                                      0.000000E+00    0.665313E-02    0.000000E+00
                                                      0.000000E+00    0.000000E+00    0.799999E+04
      300.000  12.7561   0.10000E+14   0.00000E+00    0.249396E+03    0.000000E+00    0.000000E+00
                                                      0.000000E+00    0.249396E+03    0.000000E+00
                                                      0.000000E+00    0.000000E+00    0.868420E+04

                                                      0.298571E+04    Max error
     Iteration number:        49

     =============================================================================================
       Temp     Fermi   Elec density  Population SR                  Elec mobility 
        [K]      [eV]     [cm^-3]      [e per cell]                    [cm^2/Vs]
     =============================================================================================

      100.000  12.9723   0.10000E+14   0.00000E+00    0.665313E-02    0.000000E+00    0.000000E+00
                                                      0.000000E+00    0.665313E-02    0.000000E+00
                                                      0.000000E+00    0.000000E+00    0.510370E+04
      300.000  12.7561   0.10000E+14   0.00000E+00    0.249396E+03    0.000000E+00    0.000000E+00
                                                      0.000000E+00    0.249396E+03    0.000000E+00
                                                      0.000000E+00    0.000000E+00    0.868420E+04

                                                      0.289629E+04    Max error
     Iteration number:        50

     =============================================================================================
       Temp     Fermi   Elec density  Population SR                  Elec mobility 
        [K]      [eV]     [cm^-3]      [e per cell]                    [cm^2/Vs]
     =============================================================================================

      100.000  12.9723   0.10000E+14   0.00000E+00    0.665313E-02    0.000000E+00    0.000000E+00
                                                      0.000000E+00    0.665313E-02    0.000000E+00
                                                      0.000000E+00    0.000000E+00    0.791325E+04
      300.000  12.7561   0.10000E+14   0.00000E+00    0.249396E+03    0.000000E+00    0.000000E+00
                                                      0.000000E+00    0.249396E+03    0.000000E+00
                                                      0.000000E+00    0.000000E+00    0.868420E+04

                                                      0.280955E+04    Max error
     Iteration number:        51

     =============================================================================================
       Temp     Fermi   Elec density  Population SR                  Elec mobility 
        [K]      [eV]     [cm^-3]      [e per cell]                    [cm^2/Vs]
     =============================================================================================

      100.000  12.9723   0.10000E+14   0.00000E+00    0.665313E-02    0.000000E+00    0.000000E+00
                                                      0.000000E+00    0.665313E-02    0.000000E+00
                                                      0.000000E+00    0.000000E+00    0.518784E+04
      300.000  12.7561   0.10000E+14   0.00000E+00    0.249396E+03    0.000000E+00    0.000000E+00
                                                      0.000000E+00    0.249396E+03    0.000000E+00
                                                      0.000000E+00    0.000000E+00    0.868420E+04

                                                      0.272541E+04    Max error
     Iteration number:        52

     =============================================================================================
       Temp     Fermi   Elec density  Population SR                  Elec mobility 
        [K]      [eV]     [cm^-3]      [e per cell]                    [cm^2/Vs]
     =============================================================================================

      100.000  12.9723   0.10000E+14   0.00000E+00    0.665313E-02    0.000000E+00    0.000000E+00
                                                      0.000000E+00    0.665313E-02    0.000000E+00
                                                      0.000000E+00    0.000000E+00    0.783163E+04
      300.000  12.7561   0.10000E+14   0.00000E+00    0.249396E+03    0.000000E+00    0.000000E+00
                                                      0.000000E+00    0.249396E+03    0.000000E+00
                                                      0.000000E+00    0.000000E+00    0.868420E+04

                                                      0.264379E+04    Max error
     Iteration number:        53

     =============================================================================================
       Temp     Fermi   Elec density  Population SR                  Elec mobility 
        [K]      [eV]     [cm^-3]      [e per cell]                    [cm^2/Vs]
     =============================================================================================

      100.000  12.9723   0.10000E+14   0.00000E+00    0.665313E-02    0.000000E+00    0.000000E+00
                                                      0.000000E+00    0.665313E-02    0.000000E+00
                                                      0.000000E+00    0.000000E+00    0.526702E+04
      300.000  12.7561   0.10000E+14   0.00000E+00    0.249396E+03    0.000000E+00    0.000000E+00
                                                      0.000000E+00    0.249396E+03    0.000000E+00
                                                      0.000000E+00    0.000000E+00    0.868420E+04

                                                      0.256461E+04    Max error
     Iteration number:        54

     =============================================================================================
       Temp     Fermi   Elec density  Population SR                  Elec mobility 
        [K]      [eV]     [cm^-3]      [e per cell]                    [cm^2/Vs]
     =============================================================================================

      100.000  12.9723   0.10000E+14   0.00000E+00    0.665313E-02    0.000000E+00    0.000000E+00
                                                      0.000000E+00    0.665313E-02    0.000000E+00
                                                      0.000000E+00    0.000000E+00    0.775482E+04
      300.000  12.7561   0.10000E+14   0.00000E+00    0.249396E+03    0.000000E+00    0.000000E+00
                                                      0.000000E+00    0.249396E+03    0.000000E+00
                                                      0.000000E+00    0.000000E+00    0.868420E+04

                                                      0.248780E+04    Max error
     Iteration number:        55

     =============================================================================================
       Temp     Fermi   Elec density  Population SR                  Elec mobility 
        [K]      [eV]     [cm^-3]      [e per cell]                    [cm^2/Vs]
     =============================================================================================

      100.000  12.9723   0.10000E+14   0.00000E+00    0.665313E-02    0.000000E+00    0.000000E+00
                                                      0.000000E+00    0.665313E-02    0.000000E+00
                                                      0.000000E+00    0.000000E+00    0.534153E+04
      300.000  12.7561   0.10000E+14   0.00000E+00    0.249396E+03    0.000000E+00    0.000000E+00
                                                      0.000000E+00    0.249396E+03    0.000000E+00
                                                      0.000000E+00    0.000000E+00    0.868420E+04

                                                      0.241329E+04    Max error
     Iteration number:        56

     =============================================================================================
       Temp     Fermi   Elec density  Population SR                  Elec mobility 
        [K]      [eV]     [cm^-3]      [e per cell]                    [cm^2/Vs]
     =============================================================================================

      100.000  12.9723   0.10000E+14   0.00000E+00    0.665313E-02    0.000000E+00    0.000000E+00
                                                      0.000000E+00    0.665313E-02    0.000000E+00
                                                      0.000000E+00    0.000000E+00    0.768255E+04
      300.000  12.7561   0.10000E+14   0.00000E+00    0.249396E+03    0.000000E+00    0.000000E+00
                                                      0.000000E+00    0.249396E+03    0.000000E+00
                                                      0.000000E+00    0.000000E+00    0.868420E+04

                                                      0.234102E+04    Max error
     Iteration number:        57

     =============================================================================================
       Temp     Fermi   Elec density  Population SR                  Elec mobility 
        [K]      [eV]     [cm^-3]      [e per cell]                    [cm^2/Vs]
     =============================================================================================

      100.000  12.9723   0.10000E+14   0.00000E+00    0.665313E-02    0.000000E+00    0.000000E+00
                                                      0.000000E+00    0.665313E-02    0.000000E+00
                                                      0.000000E+00    0.000000E+00    0.541164E+04
      300.000  12.7561   0.10000E+14   0.00000E+00    0.249396E+03    0.000000E+00    0.000000E+00
                                                      0.000000E+00    0.249396E+03    0.000000E+00
                                                      0.000000E+00    0.000000E+00    0.868420E+04

                                                      0.227091E+04    Max error
     Iteration number:        58

     =============================================================================================
       Temp     Fermi   Elec density  Population SR                  Elec mobility 
        [K]      [eV]     [cm^-3]      [e per cell]                    [cm^2/Vs]
     =============================================================================================

      100.000  12.9723   0.10000E+14   0.00000E+00    0.665313E-02    0.000000E+00    0.000000E+00
                                                      0.000000E+00    0.665313E-02    0.000000E+00
                                                      0.000000E+00    0.000000E+00    0.761454E+04
      300.000  12.7561   0.10000E+14   0.00000E+00    0.249396E+03    0.000000E+00    0.000000E+00
                                                      0.000000E+00    0.249396E+03    0.000000E+00
                                                      0.000000E+00    0.000000E+00    0.868420E+04

                                                      0.220290E+04    Max error
     Iteration number:        59

     =============================================================================================
       Temp     Fermi   Elec density  Population SR                  Elec mobility 
        [K]      [eV]     [cm^-3]      [e per cell]                    [cm^2/Vs]
     =============================================================================================

      100.000  12.9723   0.10000E+14   0.00000E+00    0.665313E-02    0.000000E+00    0.000000E+00
                                                      0.000000E+00    0.665313E-02    0.000000E+00
                                                      0.000000E+00    0.000000E+00    0.547761E+04
      300.000  12.7561   0.10000E+14   0.00000E+00    0.249396E+03    0.000000E+00    0.000000E+00
                                                      0.000000E+00    0.249396E+03    0.000000E+00
                                                      0.000000E+00    0.000000E+00    0.868420E+04

                                                      0.213692E+04    Max error
     Iteration number:        60

     =============================================================================================
       Temp     Fermi   Elec density  Population SR                  Elec mobility 
        [K]      [eV]     [cm^-3]      [e per cell]                    [cm^2/Vs]
     =============================================================================================

      100.000  12.9723   0.10000E+14   0.00000E+00    0.665313E-02    0.000000E+00    0.000000E+00
                                                      0.000000E+00    0.665313E-02    0.000000E+00
                                                      0.000000E+00    0.000000E+00    0.755054E+04
      300.000  12.7561   0.10000E+14   0.00000E+00    0.249396E+03    0.000000E+00    0.000000E+00
                                                      0.000000E+00    0.249396E+03    0.000000E+00
                                                      0.000000E+00    0.000000E+00    0.868420E+04

                                                      0.207292E+04    Max error
     Iteration number:        61

     =============================================================================================
       Temp     Fermi   Elec density  Population SR                  Elec mobility 
        [K]      [eV]     [cm^-3]      [e per cell]                    [cm^2/Vs]
     =============================================================================================

      100.000  12.9723   0.10000E+14   0.00000E+00    0.665313E-02    0.000000E+00    0.000000E+00
                                                      0.000000E+00    0.665313E-02    0.000000E+00
                                                      0.000000E+00    0.000000E+00    0.553970E+04
      300.000  12.7561   0.10000E+14   0.00000E+00    0.249396E+03    0.000000E+00    0.000000E+00
                                                      0.000000E+00    0.249396E+03    0.000000E+00
                                                      0.000000E+00    0.000000E+00    0.868420E+04

                                                      0.201084E+04    Max error
     Iteration number:        62

     =============================================================================================
       Temp     Fermi   Elec density  Population SR                  Elec mobility 
        [K]      [eV]     [cm^-3]      [e per cell]                    [cm^2/Vs]
     =============================================================================================

      100.000  12.9723   0.10000E+14   0.00000E+00    0.665313E-02    0.000000E+00    0.000000E+00
                                                      0.000000E+00    0.665313E-02    0.000000E+00
                                                      0.000000E+00    0.000000E+00    0.749031E+04
      300.000  12.7561   0.10000E+14   0.00000E+00    0.249396E+03    0.000000E+00    0.000000E+00
                                                      0.000000E+00    0.249396E+03    0.000000E+00
                                                      0.000000E+00    0.000000E+00    0.868420E+04

                                                      0.195062E+04    Max error
     Iteration number:        63

     =============================================================================================
       Temp     Fermi   Elec density  Population SR                  Elec mobility 
        [K]      [eV]     [cm^-3]      [e per cell]                    [cm^2/Vs]
     =============================================================================================

      100.000  12.9723   0.10000E+14   0.00000E+00    0.665313E-02    0.000000E+00    0.000000E+00
                                                      0.000000E+00    0.665313E-02    0.000000E+00
                                                      0.000000E+00    0.000000E+00    0.559811E+04
      300.000  12.7561   0.10000E+14   0.00000E+00    0.249396E+03    0.000000E+00    0.000000E+00
                                                      0.000000E+00    0.249396E+03    0.000000E+00
                                                      0.000000E+00    0.000000E+00    0.868420E+04

                                                      0.189220E+04    Max error
     Iteration number:        64

     =============================================================================================
       Temp     Fermi   Elec density  Population SR                  Elec mobility 
        [K]      [eV]     [cm^-3]      [e per cell]                    [cm^2/Vs]
     =============================================================================================

      100.000  12.9723   0.10000E+14   0.00000E+00    0.665313E-02    0.000000E+00    0.000000E+00
                                                      0.000000E+00    0.665313E-02    0.000000E+00
                                                      0.000000E+00    0.000000E+00    0.743365E+04
      300.000  12.7561   0.10000E+14   0.00000E+00    0.249396E+03    0.000000E+00    0.000000E+00
                                                      0.000000E+00    0.249396E+03    0.000000E+00
                                                      0.000000E+00    0.000000E+00    0.868420E+04

                                                      0.183553E+04    Max error
     Iteration number:        65

     =============================================================================================
       Temp     Fermi   Elec density  Population SR                  Elec mobility 
        [K]      [eV]     [cm^-3]      [e per cell]                    [cm^2/Vs]
     =============================================================================================

      100.000  12.9723   0.10000E+14   0.00000E+00    0.665313E-02    0.000000E+00    0.000000E+00
                                                      0.000000E+00    0.665313E-02    0.000000E+00
                                                      0.000000E+00    0.000000E+00    0.565309E+04
      300.000  12.7561   0.10000E+14   0.00000E+00    0.249396E+03    0.000000E+00    0.000000E+00
                                                      0.000000E+00    0.249396E+03    0.000000E+00
[...]

                                                      0.492403E+02    Max error
     Iteration number:       184

     =============================================================================================
       Temp     Fermi   Elec density  Population SR                  Elec mobility 
        [K]      [eV]     [cm^-3]      [e per cell]                    [cm^2/Vs]
     =============================================================================================

      100.000  12.9723   0.10000E+14   0.00000E+00    0.665313E-02    0.000000E+00    0.000000E+00
                                                      0.000000E+00    0.665313E-02    0.000000E+00
                                                      0.000000E+00    0.000000E+00    0.655335E+04
      300.000  12.7561   0.10000E+14   0.00000E+00    0.249396E+03    0.000000E+00    0.000000E+00
                                                      0.000000E+00    0.249396E+03    0.000000E+00
                                                      0.000000E+00    0.000000E+00    0.868420E+04

                                                      0.477656E+02    Max error
     Iteration number:       185

     =============================================================================================
       Temp     Fermi   Elec density  Population SR                  Elec mobility 
        [K]      [eV]     [cm^-3]      [e per cell]                    [cm^2/Vs]
     =============================================================================================

      100.000  12.9723   0.10000E+14   0.00000E+00    0.665313E-02    0.000000E+00    0.000000E+00
                                                      0.000000E+00    0.665313E-02    0.000000E+00
                                                      0.000000E+00    0.000000E+00    0.650702E+04
      300.000  12.7561   0.10000E+14   0.00000E+00    0.249396E+03    0.000000E+00    0.000000E+00
                                                      0.000000E+00    0.249396E+03    0.000000E+00
                                                      0.000000E+00    0.000000E+00    0.868420E+04

                                                      0.463351E+02    Max error
     Iteration number:       186

     =============================================================================================
       Temp     Fermi   Elec density  Population SR                  Elec mobility 
        [K]      [eV]     [cm^-3]      [e per cell]                    [cm^2/Vs]
     =============================================================================================

      100.000  12.9723   0.10000E+14   0.00000E+00    0.665313E-02    0.000000E+00    0.000000E+00
                                                      0.000000E+00    0.665313E-02    0.000000E+00
                                                      0.000000E+00    0.000000E+00    0.655196E+04
      300.000  12.7561   0.10000E+14   0.00000E+00    0.249396E+03    0.000000E+00    0.000000E+00
                                                      0.000000E+00    0.249396E+03    0.000000E+00
                                                      0.000000E+00    0.000000E+00    0.868420E+04

                                                      0.449474E+02    Max error
     Iteration number:       187

     =============================================================================================
       Temp     Fermi   Elec density  Population SR                  Elec mobility 
        [K]      [eV]     [cm^-3]      [e per cell]                    [cm^2/Vs]
     =============================================================================================

      100.000  12.9723   0.10000E+14   0.00000E+00    0.665313E-02    0.000000E+00    0.000000E+00
                                                      0.000000E+00    0.665313E-02    0.000000E+00
                                                      0.000000E+00    0.000000E+00    0.650836E+04
      300.000  12.7561   0.10000E+14   0.00000E+00    0.249396E+03    0.000000E+00    0.000000E+00
                                                      0.000000E+00    0.249396E+03    0.000000E+00
                                                      0.000000E+00    0.000000E+00    0.868420E+04

                                                      0.436012E+02    Max error
     Iteration number:       188

     =============================================================================================
       Temp     Fermi   Elec density  Population SR                  Elec mobility 
        [K]      [eV]     [cm^-3]      [e per cell]                    [cm^2/Vs]
     =============================================================================================

      100.000  12.9723   0.10000E+14   0.00000E+00    0.665313E-02    0.000000E+00    0.000000E+00
                                                      0.000000E+00    0.665313E-02    0.000000E+00
                                                      0.000000E+00    0.000000E+00    0.655066E+04
      300.000  12.7561   0.10000E+14   0.00000E+00    0.249396E+03    0.000000E+00    0.000000E+00
                                                      0.000000E+00    0.249396E+03    0.000000E+00
                                                      0.000000E+00    0.000000E+00    0.868420E+04

                                                      0.422954E+02    Max error
     Iteration number:       189

     =============================================================================================
       Temp     Fermi   Elec density  Population SR                  Elec mobility 
        [K]      [eV]     [cm^-3]      [e per cell]                    [cm^2/Vs]
     =============================================================================================

      100.000  12.9723   0.10000E+14   0.00000E+00    0.665313E-02    0.000000E+00    0.000000E+00
                                                      0.000000E+00    0.665313E-02    0.000000E+00
                                                      0.000000E+00    0.000000E+00    0.650963E+04
      300.000  12.7561   0.10000E+14   0.00000E+00    0.249396E+03    0.000000E+00    0.000000E+00
                                                      0.000000E+00    0.249396E+03    0.000000E+00
                                                      0.000000E+00    0.000000E+00    0.868420E+04

                                                      0.410287E+02    Max error
     Iteration number:       190

     =============================================================================================
       Temp     Fermi   Elec density  Population SR                  Elec mobility 
        [K]      [eV]     [cm^-3]      [e per cell]                    [cm^2/Vs]
     =============================================================================================

      100.000  12.9723   0.10000E+14   0.00000E+00    0.665313E-02    0.000000E+00    0.000000E+00
                                                      0.000000E+00    0.665313E-02    0.000000E+00
                                                      0.000000E+00    0.000000E+00    0.654943E+04
      300.000  12.7561   0.10000E+14   0.00000E+00    0.249396E+03    0.000000E+00    0.000000E+00
                                                      0.000000E+00    0.249396E+03    0.000000E+00
                                                      0.000000E+00    0.000000E+00    0.868420E+04

                                                      0.398000E+02    Max error
     Iteration number:       191

     =============================================================================================
       Temp     Fermi   Elec density  Population SR                  Elec mobility 
        [K]      [eV]     [cm^-3]      [e per cell]                    [cm^2/Vs]
     =============================================================================================

      100.000  12.9723   0.10000E+14   0.00000E+00    0.665313E-02    0.000000E+00    0.000000E+00
                                                      0.000000E+00    0.665313E-02    0.000000E+00
                                                      0.000000E+00    0.000000E+00    0.651082E+04
      300.000  12.7561   0.10000E+14   0.00000E+00    0.249396E+03    0.000000E+00    0.000000E+00
                                                      0.000000E+00    0.249396E+03    0.000000E+00
                                                      0.000000E+00    0.000000E+00    0.868420E+04

                                                      0.386080E+02    Max error
     Iteration number:       192

     =============================================================================================
       Temp     Fermi   Elec density  Population SR                  Elec mobility 
        [K]      [eV]     [cm^-3]      [e per cell]                    [cm^2/Vs]
     =============================================================================================

      100.000  12.9723   0.10000E+14   0.00000E+00    0.665313E-02    0.000000E+00    0.000000E+00
                                                      0.000000E+00    0.665313E-02    0.000000E+00
                                                      0.000000E+00    0.000000E+00    0.654827E+04
      300.000  12.7561   0.10000E+14   0.00000E+00    0.249396E+03    0.000000E+00    0.000000E+00
                                                      0.000000E+00    0.249396E+03    0.000000E+00
                                                      0.000000E+00    0.000000E+00    0.868420E+04

                                                      0.374517E+02    Max error
     Iteration number:       193

     =============================================================================================
       Temp     Fermi   Elec density  Population SR                  Elec mobility 
        [K]      [eV]     [cm^-3]      [e per cell]                    [cm^2/Vs]
     =============================================================================================

      100.000  12.9723   0.10000E+14   0.00000E+00    0.665313E-02    0.000000E+00    0.000000E+00
                                                      0.000000E+00    0.665313E-02    0.000000E+00
                                                      0.000000E+00    0.000000E+00    0.651194E+04
      300.000  12.7561   0.10000E+14   0.00000E+00    0.249396E+03    0.000000E+00    0.000000E+00
                                                      0.000000E+00    0.249396E+03    0.000000E+00
                                                      0.000000E+00    0.000000E+00    0.868420E+04

                                                      0.363301E+02    Max error
     Iteration number:       194

     =============================================================================================
       Temp     Fermi   Elec density  Population SR                  Elec mobility 
        [K]      [eV]     [cm^-3]      [e per cell]                    [cm^2/Vs]
     =============================================================================================

      100.000  12.9723   0.10000E+14   0.00000E+00    0.665313E-02    0.000000E+00    0.000000E+00
                                                      0.000000E+00    0.665313E-02    0.000000E+00
                                                      0.000000E+00    0.000000E+00    0.654719E+04
      300.000  12.7561   0.10000E+14   0.00000E+00    0.249396E+03    0.000000E+00    0.000000E+00
                                                      0.000000E+00    0.249396E+03    0.000000E+00
                                                      0.000000E+00    0.000000E+00    0.868420E+04

                                                      0.352421E+02    Max error
     Iteration number:       195

     =============================================================================================
       Temp     Fermi   Elec density  Population SR                  Elec mobility 
        [K]      [eV]     [cm^-3]      [e per cell]                    [cm^2/Vs]
     =============================================================================================

      100.000  12.9723   0.10000E+14   0.00000E+00    0.665313E-02    0.000000E+00    0.000000E+00
                                                      0.000000E+00    0.665313E-02    0.000000E+00
                                                      0.000000E+00    0.000000E+00    0.651300E+04
      300.000  12.7561   0.10000E+14   0.00000E+00    0.249396E+03    0.000000E+00    0.000000E+00
                                                      0.000000E+00    0.249396E+03    0.000000E+00
                                                      0.000000E+00    0.000000E+00    0.868420E+04

                                                      0.341866E+02    Max error
     Iteration number:       196

     =============================================================================================
       Temp     Fermi   Elec density  Population SR                  Elec mobility 
        [K]      [eV]     [cm^-3]      [e per cell]                    [cm^2/Vs]
     =============================================================================================

      100.000  12.9723   0.10000E+14   0.00000E+00    0.665313E-02    0.000000E+00    0.000000E+00
                                                      0.000000E+00    0.665313E-02    0.000000E+00
                                                      0.000000E+00    0.000000E+00    0.654616E+04
      300.000  12.7561   0.10000E+14   0.00000E+00    0.249396E+03    0.000000E+00    0.000000E+00
                                                      0.000000E+00    0.249396E+03    0.000000E+00
                                                      0.000000E+00    0.000000E+00    0.868420E+04

                                                      0.331627E+02    Max error
     Iteration number:       197

     =============================================================================================
       Temp     Fermi   Elec density  Population SR                  Elec mobility 
        [K]      [eV]     [cm^-3]      [e per cell]                    [cm^2/Vs]
     =============================================================================================

      100.000  12.9723   0.10000E+14   0.00000E+00    0.665313E-02    0.000000E+00    0.000000E+00
                                                      0.000000E+00    0.665313E-02    0.000000E+00
                                                      0.000000E+00    0.000000E+00    0.651399E+04
      300.000  12.7561   0.10000E+14   0.00000E+00    0.249396E+03    0.000000E+00    0.000000E+00
                                                      0.000000E+00    0.249396E+03    0.000000E+00
                                                      0.000000E+00    0.000000E+00    0.868420E+04

                                                      0.321696E+02    Max error
     Iteration number:       198

     =============================================================================================
       Temp     Fermi   Elec density  Population SR                  Elec mobility 
        [K]      [eV]     [cm^-3]      [e per cell]                    [cm^2/Vs]
     =============================================================================================

      100.000  12.9723   0.10000E+14   0.00000E+00    0.665313E-02    0.000000E+00    0.000000E+00
                                                      0.000000E+00    0.665313E-02    0.000000E+00
                                                      0.000000E+00    0.000000E+00    0.654520E+04
      300.000  12.7561   0.10000E+14   0.00000E+00    0.249396E+03    0.000000E+00    0.000000E+00
                                                      0.000000E+00    0.249396E+03    0.000000E+00
                                                      0.000000E+00    0.000000E+00    0.868420E+04

                                                      0.312061E+02    Max error
     Iteration number:       199

     =============================================================================================
       Temp     Fermi   Elec density  Population SR                  Elec mobility 
        [K]      [eV]     [cm^-3]      [e per cell]                    [cm^2/Vs]
     =============================================================================================

      100.000  12.9723   0.10000E+14   0.00000E+00    0.665313E-02    0.000000E+00    0.000000E+00
                                                      0.000000E+00    0.665313E-02    0.000000E+00
                                                      0.000000E+00    0.000000E+00    0.651493E+04
      300.000  12.7561   0.10000E+14   0.00000E+00    0.249396E+03    0.000000E+00    0.000000E+00
                                                      0.000000E+00    0.249396E+03    0.000000E+00
                                                      0.000000E+00    0.000000E+00    0.868420E+04

                                                      0.302715E+02    Max error
     Iteration number:       200

     =============================================================================================
       Temp     Fermi   Elec density  Population SR                  Elec mobility 
        [K]      [eV]     [cm^-3]      [e per cell]                    [cm^2/Vs]
     =============================================================================================

      100.000  12.9723   0.10000E+14   0.00000E+00    0.665313E-02    0.000000E+00    0.000000E+00
                                                      0.000000E+00    0.665313E-02    0.000000E+00
                                                      0.000000E+00    0.000000E+00    0.654429E+04
      300.000  12.7561   0.10000E+14   0.00000E+00    0.249396E+03    0.000000E+00    0.000000E+00
                                                      0.000000E+00    0.249396E+03    0.000000E+00
                                                      0.000000E+00    0.000000E+00    0.868420E+04

                                                      0.293649E+02    Max error
     Iteration number:       201
     =============================================================================================
     The iteration reached the maximum but did not converge.
     =============================================================================================


     Unfolding on the coarse grid
     elphon_wrap  :      1.23s CPU      1.23s WALL (       1 calls)

     INITIALIZATION: 




     Electron-Phonon interpolation
     ephwann      :     37.95s CPU     38.40s WALL (       1 calls)
     ep-interp    :     13.63s CPU     14.03s WALL (      70 calls)

     DynW2B       :      0.02s CPU      0.02s WALL (      70 calls)
     HamW2B       :      6.47s CPU      6.51s WALL (   52052 calls)
     ephW2Bp      :      0.46s CPU      0.57s WALL (      70 calls)
     ephW2B       :      0.09s CPU      0.10s WALL (      70 calls)
     print_ibte   :      1.39s CPU      1.61s WALL (      70 calls)
     vmewan2bloch :      0.13s CPU      0.13s WALL (     210 calls)
     vmewan2bloch :      0.13s CPU      0.13s WALL (     210 calls)
     kpoint_paral :      0.06s CPU      0.06s WALL (       1 calls)


     Total program execution
     EPW          :     39.18s CPU     39.63s WALL

     ===============================================================================
     The functionality-dependent EPW.bib file was created with suggested citations. 
     Please consider citing the papers listed in EPW.bib.                           
     ===============================================================================
                                                                                    
