                                                                                      
                                       ``:oss/                                        
                           `.+s+.     .+ys--yh+     `./ss+.                           
                          -sh//yy+`   +yy   +yy    -+h+-oyy                           
                          -yh- .oyy/.-sh.   .syo-.:sy-  /yh                           
                 `.-.`    `yh+   -oyyyo.     `/syys:    oys      `.`                  
               `/+ssys+-` `sh+      `                   oys`   .:osyo`                
               -yh- ./syyooyo`                          .sys+/oyo--yh/                
               `yy+    .-:-.                             `-/+/:`  -sh-                
                /yh.                                              oys                 
          ``..---hho---------`   .---------..`      `.-----.`    -hd+---.             
       `./osmNMMMMMMMMMMMMMMMs. +NNMMMMMMMMNNmh+.   yNMMMMMNm-  oNMMMMMNmo++:`        
       +sy--/sdMMMhyyyyyyyNMMh- .oyNMMmyyyyyhNMMm+` -yMMMdyyo:` .oyyNMMNhs+syy`       
       -yy/   /MMM+.`-+/``mMMy-   `mMMh:`````.dMMN:` `MMMy-`-dhhy```mMMy:``+hs        
        -yy+` /MMMo:-mMM+`-oo/.    mMMh:     `dMMN/`  dMMm:`dMMMMy..MMMo-.+yo`        
         .sys`/MMMMNNMMMs-         mMMmyooooymMMNo:   oMMM/sMMMMMM++MMN//oh:          
          `sh+/MMMhyyMMMs- `-`     mMMMMMMMMMNmy+-`   -MMMhMMMsmMMmdMMd/yy+           
    `-/+++oyy-/MMM+.`/hh/.`mNm:`   mMMd+/////:-.`      NMMMMMd/:NMMMMMy:/yyo/:.`      
   +os+//:-..-oMMMo:--:::-/MMMo. .-mMMd+---`           hMMMMN+. oMMMMMo. `-+osyso:`   
   syo     `mNMMMMMNNNNNNNNMMMo.oNNMMMMMNNNN:`         +MMMMs:`  dMMMN/`     ``:syo   
   /yh`     :syyyyyyyyyyyyyyyy+.`+syyyyyyyyo:`         .oyys:`   .oyys:`        +yh   
   -yh-        ````````````````    `````````              ``        ``          oys   
   -+h/------------------------::::::::://////++++++++++++++++++++++///////::::/yd:   
   shdddddddddddddddddddddddddddddhhhhhhhhyyyyyssssssssssssssssyyyyyyyhhhhhhhddddh`   
                                                                                      
  S. Ponce, E. R. Margine, C. Verdi, and F. Giustino,                                 
                                                Comput. Phys. Commun. 209, 116 (2016) 
                                                                                      

     Program EPW v.5.6 starts on  6Feb2023 at 16: 9:33 

     This program is part of the open-source Quantum ESPRESSO suite
     for quantum simulation of materials; please cite
         "P. Giannozzi et al., J. Phys.:Condens. Matter 21 395502 (2009);
         "P. Giannozzi et al., J. Phys.:Condens. Matter 29 465901 (2017);
         "P. Giannozzi et al., J. Chem. Phys. 152 154105 (2020);
          URL http://www.quantum-espresso.org", 
     in publications or presentations arising from this work. More details at
     http://www.quantum-espresso.org/quote

     Parallel version (MPI), running on     1 processors

     MPI processes distributed on     1 nodes
     45705 MiB available memory on the printing compute node when the environment starts

     Reading input from epw2.in

     WARNING: The specified dis_win_min is ignored.
              You should instead use bands_skipped = 'exclude_bands = ...'
              to control the lower bound of band manifold.

     Reading supplied temperature list.
                      
     ------------------------------------------------------------------------ 
                   RESTART - RESTART - RESTART - RESTART                         
     Restart is done without reading PWSCF save file.                  
     Be aware that some consistency checks are therefore not done.                  
     ------------------------------------------------------------------------ 
                      

     --                                                                         

     bravais-lattice index     =            0
     lattice parameter (a_0)   =       0.0000  a.u.
     unit-cell volume          =       0.0000 (a.u.)^3
     number of atoms/cell      =            0
     number of atomic types    =            0
     kinetic-energy cut-off    =       0.0000  Ry
     charge density cut-off    =       0.0000  Ry
     Exchange-correlation= not set
                           (  -1  -1  -1  -1  -1  -1  -1)


     celldm(1)=    0.00000  celldm(2)=    0.00000  celldm(3)=    0.00000
     celldm(4)=    0.00000  celldm(5)=    0.00000  celldm(6)=    0.00000

     crystal axes: (cart. coord. in units of a_0)
               a(1) = (  0.0000  0.0000  0.0000 )  
               a(2) = (  0.0000  0.0000  0.0000 )  
               a(3) = (  0.0000  0.0000  0.0000 )  

     reciprocal axes: (cart. coord. in units 2 pi/a_0)
               b(1) = (  0.0000  0.0000  0.0000 )  
               b(2) = (  0.0000  0.0000  0.0000 )  
               b(3) = (  0.0000  0.0000  0.0000 )  


     Atoms inside the unit cell: 

   Cartesian axes

     site n.  atom      mass           positions (a_0 units)


     No symmetry!
                                    s                        frac. trans.

     G cutoff =    0.0000  (      0 G-vectors)     FFT grid: (  0,  0,  0)
     number of k points=    0
                       cart. coord. in units 2pi/a_0

                       cryst. coord.
     EPW          :      0.00s CPU      0.00s WALL

     EPW          :      0.00s CPU      0.00s WALL


     -------------------------------------------------------------------
     Using gan.ukk from disk
     -------------------------------------------------------------------

     Symmetries of Bravais lattice:  24
     Symmetries of crystal:          12

     Do not need to read .epb files; read .fmt files


     Band disentanglement is used: nbndsub =   14

     Computes the analytic long-range interaction for polar materials [lpolar]
      
     Construct the Wigner-Seitz cell using Wannier centers and atomic positions 
     Number of WS vectors for electrons       35
     Number of WS vectors for phonons       25
     Number of WS vectors for electron-phonon       29
     Maximum number of cores for efficient parallelization      116

     Reading Hamiltonian, Dynamical matrix and EP vertex in Wann rep from file


     Finished reading Wann rep data from file

     ===================================================================
     Memory usage:  VmHWM =        14Mb
                   VmPeak =       250Mb
     ===================================================================
     
     Using uniform q-mesh:   12  12  12
     Size of q point mesh for interpolation:       1728
     Using uniform MP k-mesh:   12  12  12
     Size of k point mesh for interpolation:        456
     Max number of k points per pool:              456

     Fermi energy coarse grid =  11.381868 eV

     ===================================================================

     Fermi energy is read from the input file: Ef =  11.481872 eV

     ===================================================================

     Skipping the first   12 bands:

     The Fermi level will be determined with  12.00000 electrons

              ibndmin =     4  ebndmin =    11.097 eV
              ibndmax =     6  ebndmax =    11.382 eV


     Number of ep-matrix elements per pool :        24624 ~=  192.38 Kb (@ 8 bytes/ DP)
      
     A selecq.fmt file was found but re-created because selecqread == .FALSE. 
     Number selected, total             50            145
     Number selected, total            100            287
     Number selected, total            150           1592
     We only need to compute      194 q-points
      
     Valence band maximum    =  11.381868 eV
     Conduction band minimum =  13.076041 eV

     Temperature  100.000 K
     Mobility VB Fermi level =  11.517584 eV

     Temperature  300.000 K
     Mobility VB Fermi level =  11.804351 eV

     ===================================================================
     Scattering rate for IBTE
     ===================================================================

     Restart and restart_step inputs deactivated (restart point at every q-points).
     No intermediate mobility will be shown.

     Fermi Surface thickness =   0.400000 eV
     This is computed with respect to the fine Fermi level  11.481872 eV
     Only states between  11.081872 eV and  11.881872 eV will be included

     Save matrix elements larger than threshold:   0.372108862978E-23
      
     Progression iq (fine) =         50/       194
       Adaptative smearing el-phonon = Min:     1.414214 meV
                                       Max:   321.693738 meV
       Adaptative smearing el-impurity = Min:     1.414214 meV
                                         Max:   295.874452 meV
     Progression iq (fine) =        100/       194
       Adaptative smearing el-phonon = Min:    28.797934 meV
                                       Max:   319.177819 meV
       Adaptative smearing el-impurity = Min:    26.428081 meV
                                         Max:   295.874452 meV
     Progression iq (fine) =        150/       194
       Adaptative smearing el-phonon = Min:    34.780387 meV
                                       Max:   294.468531 meV
       Adaptative smearing el-impurity = Min:    33.634485 meV
                                         Max:   295.874573 meV
      100.000     11.5176       0.100000E+14
      300.000     11.8044       0.999998E+13
      
     epmatkqread automatically changed to .TRUE. as all scattering have been computed.
      
     ===================================================================
     Memory usage:  VmHWM =        26Mb
                   VmPeak =       250Mb
     ===================================================================

     Number of elements per core       5827
     Symmetry mapping finished
      
     =============================================================================================
     BTE in the self-energy relaxation time approximation (SERTA)
     =============================================================================================

     =============================================================================================
       Temp     Fermi   Hole density  Population SR            Drift Hole mobility 
        [K]      [eV]     [cm^-3]      [h per cell]                    [cm^2/Vs]
     =============================================================================================

      100.000  11.5176   0.10000E+14   0.00000E+00    0.745941E-02    0.000000E+00   -0.775603E-19
                                       0.00000E+00    0.000000E+00    0.745941E-02    0.000000E+00
                                      -0.96844E-08    0.000000E+00    0.000000E+00    0.524947E+04
      300.000  11.8044   0.10000E+14   0.00000E+00    0.553341E+01    0.000000E+00   -0.591741E-24
                                       0.00000E+00   -0.310243E-18    0.553341E+01    0.000000E+00
                                       0.25020E-08    0.591741E-24    0.000000E+00    0.183915E+03
      
     =============================================================================================
     Start solving iterative Boltzmann Transport Equation
     =============================================================================================

     Iteration number:         1

     =============================================================================================
       Temp     Fermi   Hole density  Population SR            Drift Hole mobility 
        [K]      [eV]     [cm^-3]      [h per cell]                    [cm^2/Vs]
     =============================================================================================

      100.000  11.5176   0.10000E+14   0.00000E+00    0.850047E-02    0.000000E+00    0.000000E+00
                                       0.00000E+00    0.000000E+00    0.850047E-02   -0.387801E-19
                                      -0.60599E-08    0.000000E+00    0.000000E+00    0.265101E+04
      300.000  11.8044   0.10000E+14   0.00000E+00    0.674270E+01    0.124097E-17    0.118348E-23
                                       0.00000E+00   -0.139609E-17    0.674270E+01    0.000000E+00
                                       0.31040E-07    0.000000E+00    0.000000E+00    0.178039E+03

                                                      0.265101E+04    Max error
     Iteration number:         2

     =============================================================================================
       Temp     Fermi   Hole density  Population SR            Drift Hole mobility 
        [K]      [eV]     [cm^-3]      [h per cell]                    [cm^2/Vs]
     =============================================================================================

      100.000  11.5176   0.10000E+14  -0.25849E-25    0.866664E-02    0.000000E+00   -0.775603E-19
                                       0.00000E+00    0.000000E+00    0.866664E-02   -0.387801E-19
                                       0.55275E-07    0.000000E+00    0.000000E+00    0.393355E+04
      300.000  11.8044   0.10000E+14   0.00000E+00    0.702580E+01   -0.310243E-18    0.000000E+00
                                       0.00000E+00    0.620486E-18    0.702580E+01    0.000000E+00
                                       0.14129E-06   -0.581705E-19    0.000000E+00    0.183505E+03

                                                      0.128254E+04    Max error
     Iteration number:         3

     =============================================================================================
       Temp     Fermi   Hole density  Population SR            Drift Hole mobility 
        [K]      [eV]     [cm^-3]      [h per cell]                    [cm^2/Vs]
     =============================================================================================

      100.000  11.5176   0.10000E+14  -0.25849E-25    0.869349E-02    0.000000E+00   -0.775603E-19
                                       0.00000E+00    0.000000E+00    0.869349E-02    0.000000E+00
                                       0.16821E-06    0.000000E+00    0.000000E+00    0.329804E+04
      300.000  11.8044   0.10000E+14   0.00000E+00    0.709236E+01   -0.930729E-18    0.000000E+00
                                       0.00000E+00    0.310243E-18    0.709236E+01    0.000000E+00
                                       0.26562E-06    0.000000E+00    0.000000E+00    0.183733E+03

                                                      0.635510E+03    Max error
     Iteration number:         4

     =============================================================================================
       Temp     Fermi   Hole density  Population SR            Drift Hole mobility 
        [K]      [eV]     [cm^-3]      [h per cell]                    [cm^2/Vs]
     =============================================================================================

      100.000  11.5176   0.10000E+14   0.00000E+00    0.869780E-02    0.000000E+00    0.775603E-19
                                       0.00000E+00    0.000000E+00    0.869780E-02    0.000000E+00
                                       0.21087E-06    0.000000E+00    0.000000E+00    0.361173E+04
      300.000  11.8044   0.10000E+14   0.00000E+00    0.710809E+01    0.124097E-17   -0.118348E-23
                                       0.00000E+00   -0.620486E-18    0.710809E+01    0.000000E+00
                                       0.38017E-06   -0.116341E-18    0.000000E+00    0.184387E+03

                                                      0.313685E+03    Max error
     Iteration number:         5

     =============================================================================================
       Temp     Fermi   Hole density  Population SR            Drift Hole mobility 
        [K]      [eV]     [cm^-3]      [h per cell]                    [cm^2/Vs]
     =============================================================================================

      100.000  11.5176   0.10000E+14   0.25849E-25    0.869850E-02    0.000000E+00    0.775603E-19
                                       0.00000E+00    0.000000E+00    0.869850E-02    0.387801E-19
                                       0.25981E-06    0.000000E+00    0.000000E+00    0.345629E+04
      300.000  11.8044   0.10000E+14   0.12925E-25    0.711180E+01    0.310243E-18   -0.118348E-23
                                       0.00000E+00    0.620486E-18    0.711180E+01    0.000000E+00
                                       0.47913E-06   -0.387804E-19    0.000000E+00    0.184431E+03

                                                      0.155435E+03    Max error
     Iteration number:         6

     =============================================================================================
       Temp     Fermi   Hole density  Population SR            Drift Hole mobility 
        [K]      [eV]     [cm^-3]      [h per cell]                    [cm^2/Vs]
     =============================================================================================

      100.000  11.5176   0.10000E+14  -0.25849E-25    0.869861E-02    0.000000E+00    0.000000E+00
                                      -0.12925E-25    0.000000E+00    0.869861E-02    0.000000E+00
                                       0.28065E-06    0.000000E+00    0.000000E+00    0.353301E+04
      300.000  11.8044   0.10000E+14  -0.38774E-25    0.711268E+01    0.310243E-18   -0.118348E-23
                                       0.00000E+00   -0.124097E-17    0.711268E+01    0.000000E+00
                                       0.56251E-06    0.000000E+00    0.000000E+00    0.184522E+03

                                                      0.767222E+02    Max error
     Iteration number:         7

     =============================================================================================
       Temp     Fermi   Hole density  Population SR            Drift Hole mobility 
        [K]      [eV]     [cm^-3]      [h per cell]                    [cm^2/Vs]
     =============================================================================================

      100.000  11.5176   0.10000E+14   0.00000E+00    0.869863E-02    0.000000E+00    0.000000E+00
                                       0.00000E+00    0.000000E+00    0.869863E-02    0.000000E+00
                                       0.30306E-06    0.000000E+00    0.000000E+00    0.349500E+04
      300.000  11.8044   0.10000E+14   0.12925E-25    0.711289E+01    0.310243E-18    0.236697E-23
                                       0.00000E+00   -0.310243E-18    0.711289E+01    0.000000E+00
                                       0.63202E-06    0.000000E+00    0.000000E+00    0.184528E+03

                                                      0.380168E+02    Max error
     Iteration number:         8

     =============================================================================================
       Temp     Fermi   Hole density  Population SR            Drift Hole mobility 
        [K]      [eV]     [cm^-3]      [h per cell]                    [cm^2/Vs]
     =============================================================================================

      100.000  11.5176   0.10000E+14   0.25849E-25    0.869863E-02    0.000000E+00    0.775603E-19
                                       0.12925E-25    0.000000E+00    0.869863E-02    0.000000E+00
                                       0.31422E-06    0.000000E+00    0.000000E+00    0.351376E+04
      300.000  11.8044   0.10000E+14   0.12925E-25    0.711294E+01   -0.310243E-18   -0.118348E-23
                                       0.00000E+00   -0.310243E-18    0.711294E+01    0.000000E+00
                                       0.68978E-06    0.000000E+00    0.000000E+00    0.184541E+03

                                                      0.187650E+02    Max error
     Iteration number:         9

     =============================================================================================
       Temp     Fermi   Hole density  Population SR            Drift Hole mobility 
        [K]      [eV]     [cm^-3]      [h per cell]                    [cm^2/Vs]
     =============================================================================================

      100.000  11.5176   0.10000E+14   0.00000E+00    0.869863E-02    0.000000E+00    0.775603E-19
                                       0.00000E+00    0.000000E+00    0.869863E-02    0.000000E+00
                                       0.32454E-06    0.000000E+00    0.000000E+00    0.350446E+04
      300.000  11.8044   0.10000E+14   0.12925E-25    0.711295E+01    0.310243E-18    0.355045E-23
                                       0.00000E+00   -0.930729E-18    0.711295E+01    0.000000E+00
                                       0.73771E-06   -0.155121E-18    0.000000E+00    0.184542E+03

                                                      0.929828E+01    Max error
     Iteration number:        10

     =============================================================================================
       Temp     Fermi   Hole density  Population SR            Drift Hole mobility 
        [K]      [eV]     [cm^-3]      [h per cell]                    [cm^2/Vs]
     =============================================================================================

      100.000  11.5176   0.10000E+14  -0.25849E-25    0.869863E-02    0.000000E+00    0.775603E-19
                                       0.00000E+00    0.000000E+00    0.869863E-02    0.000000E+00
                                       0.33034E-06    0.000000E+00    0.000000E+00    0.350905E+04
      300.000  11.8044   0.10000E+14   0.12925E-25    0.711295E+01   -0.310243E-18   -0.118348E-23
                                       0.00000E+00   -0.930729E-18    0.711295E+01    0.000000E+00
                                       0.77750E-06    0.000000E+00    0.000000E+00    0.184543E+03

                                                      0.458962E+01    Max error
     Iteration number:        11

     =============================================================================================
       Temp     Fermi   Hole density  Population SR            Drift Hole mobility 
        [K]      [eV]     [cm^-3]      [h per cell]                    [cm^2/Vs]
     =============================================================================================

      100.000  11.5176   0.10000E+14  -0.25849E-25    0.869863E-02    0.000000E+00    0.000000E+00
                                       0.00000E+00    0.000000E+00    0.869863E-02   -0.387801E-19
                                       0.33517E-06    0.000000E+00    0.000000E+00    0.350678E+04
      300.000  11.8044   0.10000E+14   0.12925E-25    0.711295E+01    0.310243E-18   -0.118348E-23
                                       0.00000E+00   -0.310243E-18    0.711295E+01    0.000000E+00
                                       0.81054E-06    0.000000E+00    0.000000E+00    0.184544E+03

                                                      0.227420E+01    Max error
     Iteration number:        12

     =============================================================================================
       Temp     Fermi   Hole density  Population SR            Drift Hole mobility 
        [K]      [eV]     [cm^-3]      [h per cell]                    [cm^2/Vs]
     =============================================================================================

      100.000  11.5176   0.10000E+14   0.00000E+00    0.869863E-02    0.000000E+00    0.000000E+00
                                       0.12925E-25    0.000000E+00    0.869863E-02    0.000000E+00
                                       0.33812E-06    0.000000E+00    0.000000E+00    0.350790E+04
      300.000  11.8044   0.10000E+14   0.00000E+00    0.711295E+01    0.310243E-18    0.355045E-23
                                       0.00000E+00   -0.124097E-17    0.711295E+01    0.000000E+00
                                       0.83799E-06    0.000000E+00    0.000000E+00    0.184544E+03

                                                      0.112255E+01    Max error
     Iteration number:        13

     =============================================================================================
       Temp     Fermi   Hole density  Population SR            Drift Hole mobility 
        [K]      [eV]     [cm^-3]      [h per cell]                    [cm^2/Vs]
     =============================================================================================

      100.000  11.5176   0.10000E+14   0.25849E-25    0.869863E-02    0.000000E+00    0.000000E+00
                                       0.00000E+00    0.000000E+00    0.869863E-02    0.000000E+00
                                       0.34041E-06    0.000000E+00    0.000000E+00    0.350734E+04
      300.000  11.8044   0.10000E+14   0.00000E+00    0.711295E+01   -0.930729E-18    0.000000E+00
                                       0.00000E+00    0.000000E+00    0.711295E+01    0.000000E+00
                                       0.86080E-06    0.000000E+00    0.000000E+00    0.184544E+03

                                                      0.556233E+00    Max error
     Iteration number:        14

     =============================================================================================
       Temp     Fermi   Hole density  Population SR            Drift Hole mobility 
        [K]      [eV]     [cm^-3]      [h per cell]                    [cm^2/Vs]
     =============================================================================================

      100.000  11.5176   0.10000E+14  -0.25849E-25    0.869863E-02    0.000000E+00    0.000000E+00
                                      -0.12925E-25    0.000000E+00    0.869863E-02    0.000000E+00
                                       0.34189E-06    0.000000E+00    0.000000E+00    0.350762E+04
      300.000  11.8044   0.10000E+14   0.00000E+00    0.711295E+01   -0.930729E-18    0.000000E+00
                                       0.00000E+00    0.000000E+00    0.711295E+01    0.000000E+00
                                       0.87977E-06    0.000000E+00    0.000000E+00    0.184544E+03

                                                      0.274558E+00    Max error
     Iteration number:        15

     =============================================================================================
       Temp     Fermi   Hole density  Population SR            Drift Hole mobility 
        [K]      [eV]     [cm^-3]      [h per cell]                    [cm^2/Vs]
     =============================================================================================

      100.000  11.5176   0.10000E+14   0.25849E-25    0.869863E-02    0.000000E+00    0.000000E+00
                                       0.00000E+00    0.000000E+00    0.869863E-02    0.000000E+00
                                       0.34299E-06    0.000000E+00    0.000000E+00    0.350748E+04
      300.000  11.8044   0.10000E+14   0.00000E+00    0.711295E+01   -0.930729E-18    0.000000E+00
                                       0.00000E+00    0.000000E+00    0.711295E+01    0.000000E+00
                                       0.89554E-06    0.000000E+00    0.000000E+00    0.184544E+03

                                                      0.136045E+00    Max error
     Iteration number:        16

     =============================================================================================
       Temp     Fermi   Hole density  Population SR            Drift Hole mobility 
        [K]      [eV]     [cm^-3]      [h per cell]                    [cm^2/Vs]
     =============================================================================================

      100.000  11.5176   0.10000E+14   0.25849E-25    0.869863E-02    0.000000E+00    0.000000E+00
                                       0.00000E+00    0.000000E+00    0.869863E-02    0.000000E+00
                                       0.34372E-06    0.000000E+00    0.000000E+00    0.350755E+04
      300.000  11.8044   0.10000E+14   0.12925E-25    0.711295E+01    0.310243E-18   -0.118348E-23
                                       0.00000E+00   -0.930729E-18    0.711295E+01    0.000000E+00
                                       0.90866E-06    0.000000E+00    0.000000E+00    0.184544E+03

                                                      0.671526E-01    Max error
     Iteration number:        17

     =============================================================================================
       Temp     Fermi   Hole density  Population SR            Drift Hole mobility 
        [K]      [eV]     [cm^-3]      [h per cell]                    [cm^2/Vs]
     =============================================================================================

      100.000  11.5176   0.10000E+14   0.00000E+00    0.869863E-02    0.000000E+00    0.000000E+00
                                       0.00000E+00    0.000000E+00    0.869863E-02    0.000000E+00
                                       0.34425E-06    0.000000E+00    0.000000E+00    0.350752E+04
      300.000  11.8044   0.10000E+14   0.38774E-25    0.711295E+01   -0.155121E-17    0.118348E-23
                                       0.00000E+00    0.310243E-18    0.711295E+01    0.000000E+00
                                       0.91958E-06    0.000000E+00    0.000000E+00    0.184544E+03

                                                      0.332744E-01    Max error
     Iteration number:        18

     =============================================================================================
       Temp     Fermi   Hole density  Population SR            Drift Hole mobility 
        [K]      [eV]     [cm^-3]      [h per cell]                    [cm^2/Vs]
     =============================================================================================

      100.000  11.5176   0.10000E+14   0.00000E+00    0.869863E-02    0.000000E+00    0.775603E-19
                                       0.00000E+00    0.000000E+00    0.869863E-02   -0.387801E-19
                                       0.34462E-06    0.000000E+00    0.000000E+00    0.350753E+04
      300.000  11.8044   0.10000E+14   0.12925E-25    0.711295E+01    0.310243E-18    0.236697E-23
                                       0.00000E+00    0.000000E+00    0.711295E+01    0.000000E+00
                                       0.92866E-06    0.000000E+00    0.000000E+00    0.184544E+03

                                                      0.164245E-01    Max error
     Iteration number:        19

     =============================================================================================
       Temp     Fermi   Hole density  Population SR            Drift Hole mobility 
        [K]      [eV]     [cm^-3]      [h per cell]                    [cm^2/Vs]
     =============================================================================================

      100.000  11.5176   0.10000E+14   0.00000E+00    0.869863E-02    0.000000E+00    0.000000E+00
                                       0.00000E+00    0.000000E+00    0.869863E-02    0.000000E+00
                                       0.34488E-06    0.000000E+00    0.000000E+00    0.350753E+04
      300.000  11.8044   0.10000E+14  -0.12925E-25    0.711295E+01   -0.155121E-17   -0.355045E-23
                                       0.00000E+00    0.310243E-18    0.711295E+01    0.000000E+00
                                       0.93623E-06    0.000000E+00    0.000000E+00    0.184544E+03

                                                      0.813836E-02    Max error
     Iteration number:        20

     =============================================================================================
       Temp     Fermi   Hole density  Population SR            Drift Hole mobility 
        [K]      [eV]     [cm^-3]      [h per cell]                    [cm^2/Vs]
     =============================================================================================

      100.000  11.5176   0.10000E+14   0.00000E+00    0.869863E-02    0.000000E+00    0.000000E+00
                                       0.00000E+00    0.000000E+00    0.869863E-02   -0.387801E-19
                                       0.34505E-06    0.000000E+00    0.000000E+00    0.350753E+04
      300.000  11.8044   0.10000E+14   0.00000E+00    0.711295E+01    0.310243E-18   -0.236697E-23
                                       0.00000E+00   -0.620486E-18    0.711295E+01    0.000000E+00
                                       0.94252E-06    0.000000E+00    0.000000E+00    0.184544E+03

                                                      0.401719E-02    Max error
     Iteration number:        21
     =============================================================================================
     The iteration reached the maximum but did not converge.
     =============================================================================================


     Unfolding on the coarse grid
     elphon_wrap  :      0.00s CPU      0.00s WALL (       1 calls)

     INITIALIZATION: 




     Electron-Phonon interpolation
     ephwann      :     16.32s CPU     20.62s WALL (       1 calls)
     ep-interp    :     14.83s CPU     19.13s WALL (     194 calls)

     DynW2B       :      0.17s CPU      0.18s WALL (     194 calls)
     HamW2B       :      4.74s CPU      4.78s WALL (   89148 calls)
     ephW2Bp      :      3.12s CPU      3.99s WALL (     194 calls)
     ephW2B       :      0.24s CPU      0.25s WALL (     997 calls)
     print_ibte   :      0.13s CPU      3.48s WALL (     194 calls)
     vmewan2bloch :      0.31s CPU      0.31s WALL (    2188 calls)
     vmewan2bloch :      0.31s CPU      0.31s WALL (    2188 calls)


     Total program execution
     EPW          :     16.32s CPU     20.62s WALL

     ===============================================================================
     The functionality-dependent EPW.bib file was created with suggested citations. 
     Please consider citing the papers listed in EPW.bib.                           
     ===============================================================================
                                                                                    
