<PP_INFO>
Generated using Andrea Dal Corso code (rrkj3)                                   
Andrea Dal Corso   Generation date: 22Feb2004                                   
As                                                                              
    2        The Pseudo was generated with a Fully-Relativistic Calculation
  2.30000000000E+00    Local Potential cutoff radius
nl pn  l   occ               Rcut            Rcut US             E pseu
4S  1  0  2.00      2.20000000000      2.20000000000     -1.07447735457
4P  2  1  2.00      2.20000000000      2.20000000000     -0.40258743367
4P  2  1  1.00      2.20000000000      2.20000000000     -0.38195958010
4D  3  2  0.00      2.30000000000      2.30000000000      0.05000000000
4D  3  2  0.00      2.30000000000      2.30000000000      0.05000000000
</PP_INFO>


<PP_HEADER>
   0                   Version Number
  As                   Element                                               
   NC                  Norm - Conserving pseudopotential
    F                  Nonlinear Core Correction
 SLA  PZ   NOGX NOGC   PZ   Exchange-Correlation functional
    5.00000000000      Z valence
  -12.38702273777      Total energy
  0.0000000  0.0000000 Suggested cutoff for wfc and rho
    2                  Max angular momentum component
 1209                  Number of points in mesh
    3    3             Number of Wavefunctions, Number of Projectors
 Wavefunctions         nl  l   occ
                       4S  0  2.00
                       4P  1  2.00
                       4P  1  1.00
</PP_HEADER>


<PP_MESH>
  <PP_R>
  2.76327868350E-05  2.79803645051E-05  2.83323141641E-05  2.86886908049E-05
  2.90495501119E-05  2.94149484703E-05  2.97849429742E-05  3.01595914360E-05
  3.05389523954E-05  3.09230851282E-05  3.13120496560E-05  3.17059067552E-05
  3.21047179669E-05  3.25085456061E-05  3.29174527716E-05  3.33315033562E-05
  3.37507620559E-05  3.41752943809E-05  3.46051666651E-05  3.50404460771E-05
  3.54812006300E-05  3.59274991928E-05  3.63794115003E-05  3.68370081650E-05
  3.73003606871E-05  3.77695414664E-05  3.82446238135E-05  3.87256819608E-05
  3.92127910747E-05  3.97060272670E-05  4.02054676069E-05  4.07111901328E-05
  4.12232738651E-05  4.17417988177E-05  4.22668460114E-05  4.27984974857E-05
  4.33368363124E-05  4.38819466078E-05  4.44339135468E-05  4.49928233751E-05
  4.55587634236E-05  4.61318221215E-05  4.67120890106E-05  4.72996547586E-05
  4.78946111738E-05  4.84970512195E-05  4.91070690282E-05  4.97247599162E-05
  5.03502203992E-05  5.09835482066E-05  5.16248422970E-05  5.22742028742E-05
  5.29317314019E-05  5.35975306203E-05  5.42717045619E-05  5.49543585677E-05
  5.56455993039E-05  5.63455347782E-05  5.70542743569E-05  5.77719287821E-05
  5.84986101887E-05  5.92344321222E-05  5.99795095562E-05  6.07339589105E-05
  6.14978980696E-05  6.22714464003E-05  6.30547247712E-05  6.38478555711E-05
  6.46509627284E-05  6.54641717302E-05  6.62876096419E-05  6.71214051275E-05
  6.79656884693E-05  6.88205915881E-05  6.96862480644E-05  7.05627931587E-05
  7.14503638330E-05  7.23490987721E-05  7.32591384050E-05  7.41806249273E-05
  7.51137023232E-05  7.60585163879E-05  7.70152147506E-05  7.79839468972E-05
  7.89648641942E-05  7.99581199119E-05  8.09638692485E-05  8.19822693544E-05
  8.30134793566E-05  8.40576603839E-05  8.51149755917E-05  8.61855901875E-05
  8.72696714572E-05  8.83673887906E-05  8.94789137083E-05  9.06044198883E-05
  9.17440831932E-05  9.28980816978E-05  9.40665957166E-05  9.52498078325E-05
  9.64479029245E-05  9.76610681977E-05  9.88894932114E-05  1.00133369910E-04
  1.01392892651E-04  1.02668258237E-04  1.03959665948E-04  1.05267317569E-04
  1.06591417422E-04  1.07932172400E-04  1.09289792000E-04  1.10664488353E-04
  1.12056476257E-04  1.13465973213E-04  1.14893199459E-04  1.16338378001E-04
  1.17801734651E-04  1.19283498061E-04  1.20783899761E-04  1.22303174192E-04
  1.23841558741E-04  1.25399293787E-04  1.26976622727E-04  1.28573792023E-04
  1.30191051235E-04  1.31828653064E-04  1.33486853388E-04  1.35165911305E-04
  1.36866089170E-04  1.38587652640E-04  1.40330870713E-04  1.42096015770E-04
  1.43883363619E-04  1.45693193535E-04  1.47525788310E-04  1.49381434289E-04
  1.51260421422E-04  1.53163043302E-04  1.55089597220E-04  1.57040384203E-04
  1.59015709066E-04  1.61015880457E-04  1.63041210906E-04  1.65092016877E-04
  1.67168618811E-04  1.69271341182E-04  1.71400512544E-04  1.73556465585E-04
  1.75739537177E-04  1.77950068429E-04  1.80188404742E-04  1.82454895859E-04
  1.84749895925E-04  1.87073763538E-04  1.89426861807E-04  1.91809558409E-04
  1.94222225644E-04  1.96665240498E-04  1.99138984695E-04  2.01643844764E-04
  2.04180212093E-04  2.06748482997E-04  2.09349058771E-04  2.11982345762E-04
  2.14648755426E-04  2.17348704394E-04  2.20082614540E-04  2.22850913042E-04
  2.25654032452E-04  2.28492410764E-04  2.31366491481E-04  2.34276723682E-04
  2.37223562098E-04  2.40207467178E-04  2.43228905163E-04  2.46288348160E-04
  2.49386274213E-04  2.52523167378E-04  2.55699517802E-04  2.58915821795E-04
  2.62172581913E-04  2.65470307030E-04  2.68809512422E-04  2.72190719848E-04
  2.75614457627E-04  2.79081260726E-04  2.82591670840E-04  2.86146236478E-04
  2.89745513047E-04  2.93390062942E-04  2.97080455631E-04  3.00817267746E-04
  3.04601083171E-04  3.08432493135E-04  3.12312096303E-04  3.16240498872E-04
  3.20218314662E-04  3.24246165216E-04  3.28324679892E-04  3.32454495968E-04
  3.36636258735E-04  3.40870621602E-04  3.45158246197E-04  3.49499802471E-04
  3.53895968800E-04  3.58347432094E-04  3.62854887903E-04  3.67419040527E-04
  3.72040603123E-04  3.76720297821E-04  3.81458855831E-04  3.86257017564E-04
  3.91115532742E-04  3.96035160517E-04  4.01016669592E-04  4.06060838338E-04
  4.11168454915E-04  4.16340317400E-04  4.21577233907E-04  4.26880022715E-04
  4.32249512394E-04  4.37686541939E-04  4.43191960897E-04  4.48766629500E-04
  4.54411418802E-04  4.60127210813E-04  4.65914898637E-04  4.71775386612E-04
  4.77709590450E-04  4.83718437384E-04  4.89802866308E-04  4.95963827926E-04
  5.02202284902E-04  5.08519212006E-04  5.14915596272E-04  5.21392437147E-04
  5.27950746651E-04  5.34591549534E-04  5.41315883434E-04  5.48124799042E-04
  5.55019360265E-04  5.62000644392E-04  5.69069742263E-04  5.76227758439E-04
  5.83475811375E-04  5.90815033594E-04  5.98246571863E-04  6.05771587377E-04
  6.13391255933E-04  6.21106768122E-04  6.28919329506E-04  6.36830160815E-04
  6.44840498133E-04  6.52951593090E-04  6.61164713062E-04  6.69481141366E-04
  6.77902177460E-04  6.86429137148E-04  6.95063352786E-04  7.03806173486E-04
  7.12658965334E-04  7.21623111594E-04  7.30700012934E-04  7.39891087637E-04
  7.49197771828E-04  7.58621519696E-04  7.68163803719E-04  7.77826114899E-04
  7.87609962993E-04  7.97516876745E-04  8.07548404132E-04  8.17706112600E-04
  8.27991589312E-04  8.38406441394E-04  8.48952296189E-04  8.59630801506E-04
  8.70443625886E-04  8.81392458853E-04  8.92479011185E-04  9.03705015178E-04
  9.15072224919E-04  9.26582416556E-04  9.38237388581E-04  9.50038962107E-04
  9.61988981154E-04  9.74089312936E-04  9.86341848155E-04  9.98748501294E-04
  1.01131121092E-03  1.02403193998E-03  1.03691267611E-03  1.04995543196E-03
  1.06316224548E-03  1.07653518026E-03  1.09007632586E-03  1.10378779810E-03
  1.11767173943E-03  1.13173031924E-03  1.14596573422E-03  1.16038020868E-03
  1.17497599490E-03  1.18975537351E-03  1.20472065382E-03  1.21987417419E-03
  1.23521830237E-03  1.25075543593E-03  1.26648800257E-03  1.28241846054E-03
  1.29854929900E-03  1.31488303843E-03  1.33142223101E-03  1.34816946103E-03
  1.36512734526E-03  1.38229853342E-03  1.39968570854E-03  1.41729158739E-03
  1.43511892094E-03  1.45317049475E-03  1.47144912939E-03  1.48995768096E-03
  1.50869904145E-03  1.52767613923E-03  1.54689193952E-03  1.56634944482E-03
  1.58605169541E-03  1.60600176980E-03  1.62620278523E-03  1.64665789816E-03
  1.66737030474E-03  1.68834324132E-03  1.70957998496E-03  1.73108385396E-03
  1.75285820833E-03  1.77490645036E-03  1.79723202513E-03  1.81983842107E-03
  1.84272917046E-03  1.86590785003E-03  1.88937808151E-03  1.91314353215E-03
  1.93720791535E-03  1.96157499124E-03  1.98624856721E-03  2.01123249856E-03
  2.03653068908E-03  2.06214709167E-03  2.08808570893E-03  2.11435059383E-03
  2.14094585032E-03  2.16787563395E-03  2.19514415255E-03  2.22275566690E-03
  2.25071449134E-03  2.27902499450E-03  2.30769159996E-03  2.33671878692E-03
  2.36611109094E-03  2.39587310464E-03  2.42600947839E-03  2.45652492105E-03
  2.48742420072E-03  2.51871214549E-03  2.55039364416E-03  2.58247364702E-03
  2.61495716665E-03  2.64784927865E-03  2.68115512249E-03  2.71487990227E-03
  2.74902888756E-03  2.78360741420E-03  2.81862088517E-03  2.85407477139E-03
  2.88997461259E-03  2.92632601821E-03  2.96313466822E-03  3.00040631406E-03
  3.03814677948E-03  3.07636196152E-03  3.11505783137E-03  3.15424043535E-03
  3.19391589581E-03  3.23409041213E-03  3.27477026166E-03  3.31596180070E-03
  3.35767146553E-03  3.39990577334E-03  3.44267132336E-03  3.48597479777E-03
  3.52982296283E-03  3.57422266992E-03  3.61918085657E-03  3.66470454759E-03
  3.71080085615E-03  3.75747698490E-03  3.80474022707E-03  3.85259796764E-03
  3.90105768448E-03  3.95012694952E-03  3.99981342993E-03  4.05012488933E-03
  4.10106918899E-03  4.15265428905E-03  4.20488824979E-03  4.25777923287E-03
  4.31133550262E-03  4.36556542732E-03  4.42047748049E-03  4.47608024227E-03
  4.53238240069E-03  4.58939275308E-03  4.64712020742E-03  4.70557378375E-03
  4.76476261556E-03  4.82469595123E-03  4.88538315545E-03  4.94683371073E-03
  5.00905721884E-03  5.07206340233E-03  5.13586210604E-03  5.20046329866E-03
  5.26587707426E-03  5.33211365385E-03  5.39918338706E-03  5.46709675365E-03
  5.53586436523E-03  5.60549696689E-03  5.67600543885E-03  5.74740079820E-03
  5.81969420063E-03  5.89289694211E-03  5.96702046073E-03  6.04207633844E-03
  6.11807630287E-03  6.19503222917E-03  6.27295614185E-03  6.35186021670E-03
  6.43175678263E-03  6.51265832364E-03  6.59457748076E-03  6.67752705404E-03
  6.76152000450E-03  6.84656945622E-03  6.93268869834E-03  7.01989118718E-03
  7.10819054830E-03  7.19760057865E-03  7.28813524874E-03  7.37980870479E-03
  7.47263527096E-03  7.56662945159E-03  7.66180593348E-03  7.75817958813E-03
  7.85576547412E-03  7.95457883945E-03  8.05463512391E-03  8.15594996149E-03
  8.25853918285E-03  8.36241881776E-03  8.46760509762E-03  8.57411445800E-03
  8.68196354122E-03  8.79116919890E-03  8.90174849465E-03  9.01371870672E-03
  9.12709733067E-03  9.24190208215E-03  9.35815089964E-03  9.47586194724E-03
  9.59505361755E-03  9.71574453451E-03  9.83795355631E-03  9.96169977838E-03
  1.00870025363E-02  1.02138814089E-02  1.03423562212E-02  1.04724470478E-02
  1.06041742155E-02  1.07375583070E-02  1.08726201638E-02  1.10093808897E-02
  1.11478618537E-02  1.12880846938E-02  1.14300713201E-02  1.15738439183E-02
  1.17194249532E-02  1.18668371720E-02  1.20161036083E-02  1.21672475853E-02
  1.23202927194E-02  1.24752629243E-02  1.26321824145E-02  1.27910757089E-02
  1.29519676348E-02  1.31148833321E-02  1.32798482565E-02  1.34468881843E-02
  1.36160292157E-02  1.37872977793E-02  1.39607206363E-02  1.41363248843E-02
  1.43141379618E-02  1.44941876525E-02  1.46765020896E-02  1.48611097599E-02
  1.50480395088E-02  1.52373205446E-02  1.54289824427E-02  1.56230551506E-02
  1.58195689928E-02  1.60185546747E-02  1.62200432885E-02  1.64240663169E-02
  1.66306556392E-02  1.68398435353E-02  1.70516626911E-02  1.72661462040E-02
  1.74833275873E-02  1.77032407761E-02  1.79259201323E-02  1.81514004500E-02
  1.83797169610E-02  1.86109053401E-02  1.88450017111E-02  1.90820426519E-02
  1.93220652007E-02  1.95651068615E-02  1.98112056100E-02  2.00603998997E-02
  2.03127286677E-02  2.05682313410E-02  2.08269478422E-02  2.10889185963E-02
  2.13541845369E-02  2.16227871123E-02  2.18947682922E-02  2.21701705741E-02
  2.24490369904E-02  2.27314111143E-02  2.30173370674E-02  2.33068595263E-02
  2.36000237294E-02  2.38968754843E-02  2.41974611745E-02  2.45018277673E-02
  2.48100228205E-02  2.51220944903E-02  2.54380915385E-02  2.57580633402E-02
  2.60820598917E-02  2.64101318181E-02  2.67423303814E-02  2.70787074881E-02
  2.74193156981E-02  2.77642082318E-02  2.81134389797E-02  2.84670625095E-02
  2.88251340758E-02  2.91877096279E-02  2.95548458190E-02  2.99266000150E-02
  3.03030303030E-02  3.06841955012E-02  3.10701551674E-02  3.14609696085E-02
  3.18566998902E-02  3.22574078460E-02  3.26631560874E-02  3.30740080134E-02
  3.34900278205E-02  3.39112805125E-02  3.43378319111E-02  3.47697486658E-02
  3.52070982645E-02  3.56499490439E-02  3.60983702004E-02  3.65524318006E-02
  3.70122047927E-02  3.74777610171E-02  3.79491732179E-02  3.84265150543E-02
  3.89098611117E-02  3.93992869142E-02  3.98948689354E-02  4.03966846110E-02
  4.09048123508E-02  4.14193315507E-02  4.19403226055E-02  4.24678669210E-02
  4.30020469271E-02  4.35429460905E-02  4.40906489278E-02  4.46452410188E-02
  4.52068090194E-02  4.57754406760E-02  4.63512248383E-02  4.69342514738E-02
  4.75246116815E-02  4.81223977065E-02  4.87277029541E-02  4.93406220044E-02
  4.99612506273E-02  5.05896857972E-02  5.12260257085E-02  5.18703697905E-02
  5.25228187233E-02  5.31834744533E-02  5.38524402095E-02  5.45298205190E-02
  5.52157212240E-02  5.59102494977E-02  5.66135138616E-02  5.73256242022E-02
  5.80466917883E-02  5.87768292881E-02  5.95161507870E-02  6.02647718055E-02
  6.10228093173E-02  6.17903817672E-02  6.25676090899E-02  6.33546127288E-02
  6.41515156549E-02  6.49584423859E-02  6.57755190056E-02  6.66028731839E-02
  6.74406341967E-02  6.82889329459E-02  6.91479019797E-02  7.00176755139E-02
  7.08983894523E-02  7.17901814083E-02  7.26931907263E-02  7.36075585032E-02
  7.45334276108E-02  7.54709427182E-02  7.64202503139E-02  7.73814987292E-02
  7.83548381611E-02  7.93404206959E-02  8.03384003328E-02  8.13489330082E-02
  8.23721766200E-02  8.34082910519E-02  8.44574381990E-02  8.55197819926E-02
  8.65954884262E-02  8.76847255810E-02  8.87876636525E-02  8.99044749772E-02
  9.10353340590E-02  9.21804175969E-02  9.33399045127E-02  9.45139759784E-02
  9.57028154451E-02  9.69066086715E-02  9.81255437527E-02  9.93598111497E-02
  1.00609603719E-01  1.01875116744E-01  1.03156547963E-01  1.04454097603E-01
  1.05767968408E-01  1.07098365673E-01  1.08445497276E-01  1.09809573708E-01
  1.11190808110E-01  1.12589416301E-01  1.14005616818E-01  1.15439630945E-01
  1.16891682748E-01  1.18361999115E-01  1.19850809785E-01  1.21358347388E-01
  1.22884847480E-01  1.24430548579E-01  1.25995692205E-01  1.27580522913E-01
  1.29185288338E-01  1.30810239228E-01  1.32455629483E-01  1.34121716199E-01
  1.35808759707E-01  1.37517023610E-01  1.39246774827E-01  1.40998283637E-01
  1.42771823715E-01  1.44567672181E-01  1.46386109640E-01  1.48227420226E-01
  1.50091891648E-01  1.51979815234E-01  1.53891485975E-01  1.55827202574E-01
  1.57787267490E-01  1.59771986988E-01  1.61781671184E-01  1.63816634095E-01
  1.65877193689E-01  1.67963671931E-01  1.70076394839E-01  1.72215692530E-01
  1.74381899273E-01  1.76575353542E-01  1.78796398070E-01  1.81045379899E-01
  1.83322650437E-01  1.85628565512E-01  1.87963485427E-01  1.90327775020E-01
  1.92721803715E-01  1.95145945584E-01  1.97600579404E-01  2.00086088716E-01
  2.02602861887E-01  2.05151292167E-01  2.07731777755E-01  2.10344721854E-01
  2.12990532745E-01  2.15669623840E-01  2.18382413752E-01  2.21129326361E-01
  2.23910790877E-01  2.26727241909E-01  2.29579119534E-01  2.32466869364E-01
  2.35390942615E-01  2.38351796180E-01  2.41349892698E-01  2.44385700628E-01
  2.47459694320E-01  2.50572354093E-01  2.53724166307E-01  2.56915623437E-01
  2.60147224157E-01  2.63419473409E-01  2.66732882491E-01  2.70087969127E-01
  2.73485257559E-01  2.76925278618E-01  2.80408569815E-01  2.83935675422E-01
  2.87507146556E-01  2.91123541267E-01  2.94785424623E-01  2.98493368802E-01
  3.02247953176E-01  3.06049764408E-01  3.09899396539E-01  3.13797451081E-01
  3.17744537113E-01  3.21741271375E-01  3.25788278366E-01  3.29886190438E-01
  3.34035647898E-01  3.38237299108E-01  3.42491800584E-01  3.46799817101E-01
  3.51162021795E-01  3.55579096269E-01  3.60051730700E-01  3.64580623947E-01
  3.69166483658E-01  3.73810026383E-01  3.78511977685E-01  3.83273072254E-01
  3.88094054020E-01  3.92975676272E-01  3.97918701772E-01  4.02923902880E-01
  4.07992061667E-01  4.13123970043E-01  4.18320429881E-01  4.23582253137E-01
  4.28910261981E-01  4.34305288927E-01  4.39768176957E-01  4.45299779660E-01
  4.50900961360E-01  4.56572597252E-01  4.62315573541E-01  4.68130787579E-01
  4.74019148006E-01  4.79981574888E-01  4.86018999868E-01  4.92132366306E-01
  4.98322629427E-01  5.04590756473E-01  5.10937726851E-01  5.17364532289E-01
  5.23872176987E-01  5.30461677779E-01  5.37134064287E-01  5.43890379085E-01
  5.50731677862E-01  5.57659029584E-01  5.64673516664E-01  5.71776235129E-01
  5.78968294795E-01  5.86250819435E-01  5.93624946957E-01  6.01091829586E-01
  6.08652634036E-01  6.16308541698E-01  6.24060748824E-01  6.31910466712E-01
  6.39858921895E-01  6.47907356337E-01  6.56057027622E-01  6.64309209151E-01
  6.72665190347E-01  6.81126276847E-01  6.89693790713E-01  6.98369070637E-01
  7.07153472150E-01  7.16048367831E-01  7.25055147527E-01  7.34175218564E-01
  7.43410005973E-01  7.52760952708E-01  7.62229519873E-01  7.71817186952E-01
  7.81525452036E-01  7.91355832062E-01  8.01309863047E-01  8.11389100329E-01
  8.21595118808E-01  8.31929513196E-01  8.42393898263E-01  8.52989909090E-01
  8.63719201326E-01  8.74583451445E-01  8.85584357007E-01  8.96723636927E-01
  9.08003031739E-01  9.19424303873E-01  9.30989237924E-01  9.42699640938E-01
  9.54557342689E-01  9.66564195967E-01  9.78722076867E-01  9.91032885083E-01
  1.00349854420E+00  1.01612100201E+00  1.02890223080E+00  1.04184422765E+00
  1.05494901478E+00  1.06821863984E+00  1.08165517623E+00  1.09526072345E+00
  1.10903740738E+00  1.12298738067E+00  1.13711282302E+00  1.15141594156E+00
  1.16589897118E+00  1.18056417489E+00  1.19541384416E+00  1.21045029927E+00
  1.22567588970E+00  1.24109299448E+00  1.25670402257E+00  1.27251141322E+00
  1.28851763637E+00  1.30472519301E+00  1.32113661563E+00  1.33775446853E+00
  1.35458134828E+00  1.37161988413E+00  1.38887273837E+00  1.40634260681E+00
  1.42403221914E+00  1.44194433940E+00  1.46008176640E+00  1.47844733414E+00
  1.49704391229E+00  1.51587440659E+00  1.53494175936E+00  1.55424894990E+00
  1.57379899499E+00  1.59359494939E+00  1.61363990623E+00  1.63393699760E+00
  1.65448939494E+00  1.67530030962E+00  1.69637299338E+00  1.71771073888E+00
  1.73931688017E+00  1.76119479326E+00  1.78334789662E+00  1.80577965171E+00
  1.82849356356E+00  1.85149318124E+00  1.87478209850E+00  1.89836395427E+00
  1.92224243328E+00  1.94642126657E+00  1.97090423215E+00  1.99569515553E+00
  2.02079791033E+00  2.04621641892E+00  2.07195465299E+00  2.09801663418E+00
  2.12440643475E+00  2.15112817814E+00  2.17818603969E+00  2.20558424723E+00
  2.23332708181E+00  2.26141887828E+00  2.28986402605E+00  2.31866696974E+00
  2.34783220986E+00  2.37736430353E+00  2.40726786522E+00  2.43754756741E+00
  2.46820814136E+00  2.49925437786E+00  2.53069112794E+00  2.56252330366E+00
  2.59475587885E+00  2.62739388994E+00  2.66044243666E+00  2.69390668293E+00
  2.72779185759E+00  2.76210325529E+00  2.79684623723E+00  2.83202623209E+00
  2.86764873682E+00  2.90371931749E+00  2.94024361021E+00  2.97722732198E+00
  3.01467623157E+00  3.05259619046E+00  3.09099312372E+00  3.12987303094E+00
  3.16924198719E+00  3.20910614394E+00  3.24947173006E+00  3.29034505275E+00
  3.33173249855E+00  3.37364053433E+00  3.41607570831E+00  3.45904465106E+00
  3.50255407658E+00  3.54661078330E+00  3.59122165517E+00  3.63639366273E+00
  3.68213386420E+00  3.72844940658E+00  3.77534752676E+00  3.82283555268E+00
  3.87092090443E+00  3.91961109544E+00  3.96891373366E+00  4.01883652273E+00
  4.06938726318E+00  4.12057385367E+00  4.17240429221E+00  4.22488667741E+00
  4.27802920974E+00  4.33184019285E+00  4.38632803479E+00  4.44150124942E+00
  4.49736845765E+00  4.55393838886E+00  4.61121988220E+00  4.66922188803E+00
  4.72795346928E+00  4.78742380288E+00  4.84764218119E+00  4.90861801346E+00
  4.97036082727E+00  5.03288027008E+00  5.09618611066E+00  5.16028824070E+00
  5.22519667627E+00  5.29092155945E+00  5.35747315989E+00  5.42486187641E+00
  5.49309823864E+00  5.56219290864E+00  5.63215668260E+00  5.70300049251E+00
  5.77473540784E+00  5.84737263732E+00  5.92092353068E+00  5.99539958039E+00
  6.07081242348E+00  6.14717384336E+00  6.22449577166E+00  6.30279029009E+00
  6.38206963232E+00  6.46234618592E+00  6.54363249426E+00  6.62594125849E+00
  6.70928533952E+00  6.79367776004E+00  6.87913170652E+00  6.96566053134E+00
  7.05327775478E+00  7.14199706722E+00  7.23183233123E+00  7.32279758376E+00
  7.41490703831E+00  7.50817508717E+00  7.60261630366E+00  7.69824544442E+00
  7.79507745169E+00  7.89312745567E+00  7.99241077688E+00  8.09294292853E+00
  8.19473961897E+00  8.29781675416E+00  8.40219044009E+00  8.50787698538E+00
  8.61489290376E+00  8.72325491667E+00  8.83297995592E+00  8.94408516625E+00
  9.05658790809E+00  9.17050576022E+00  9.28585652253E+00  9.40265821881E+00
  9.52092909957E+00  9.64068764487E+00  9.76195256723E+00  9.88474281454E+00
  1.00090775730E+01  1.01349762702E+01  1.02624585781E+01  1.03915444160E+01
  1.05222539539E+01  1.06546076154E+01  1.07886260809E+01  1.09243302913E+01
  1.10617414505E+01  1.12008810293E+01  1.13417707685E+01  1.14844326825E+01
  1.16288890625E+01  1.17751624800E+01  1.19232757906E+01  1.20732521374E+01
  1.22251149543E+01  1.23788879704E+01  1.25345952128E+01  1.26922610113E+01
  1.28519100014E+01  1.30135671285E+01  1.31772576520E+01  1.33430071488E+01
  1.35108415177E+01  1.36807869830E+01  1.38528700991E+01  1.40271177543E+01
  1.42035571752E+01  1.43822159309E+01  1.45631219370E+01  1.47463034606E+01
  1.49317891240E+01  1.51196079099E+01  1.53097891654E+01  1.55023626065E+01
  1.56973583233E+01  1.58948067843E+01  1.60947388412E+01  1.62971857337E+01
  1.65021790947E+01  1.67097509548E+01  1.69199337474E+01  1.71327603141E+01
  1.73482639095E+01  1.75664782064E+01  1.77874373013E+01  1.80111757194E+01
  1.82377284204E+01  1.84671308035E+01  1.86994187134E+01  1.89346284455E+01
  1.91727967519E+01  1.94139608467E+01  1.96581584125E+01  1.99054276054E+01
  2.01558070620E+01  2.04093359043E+01  2.06660537470E+01  2.09260007026E+01
  2.11892173884E+01  2.14557449325E+01  2.17256249804E+01  2.19988997014E+01
  2.22756117952E+01  2.25558044987E+01  2.28395215926E+01  2.31268074081E+01
  2.34177068344E+01  2.37122653250E+01  2.40105289053E+01  2.43125441796E+01
  2.46183583384E+01  2.49280191658E+01  2.52415750469E+01  2.55590749754E+01
  2.58805685614E+01  2.62061060389E+01  2.65357382738E+01  2.68695167717E+01
  2.72074936864E+01  2.75497218273E+01  2.78962546682E+01  2.82471463557E+01
  2.86024517173E+01  2.89622262702E+01  2.93265262298E+01  2.96954085189E+01
  3.00689307759E+01  3.04471513646E+01  3.08301293825E+01  3.12179246710E+01
  3.16105978236E+01  3.20082101965E+01  3.24108239174E+01  3.28185018954E+01
  3.32313078312E+01  3.36493062264E+01  3.40725623941E+01  3.45011424690E+01
  3.49351134177E+01  3.53745430489E+01  3.58195000244E+01  3.62700538696E+01
  3.67262749846E+01  3.71882346548E+01  3.76560050623E+01  3.81296592972E+01
  3.86092713689E+01  3.90949162178E+01  3.95866697270E+01  4.00846087338E+01
  4.05888110423E+01  4.10993554350E+01  4.16163216857E+01  4.21397905714E+01
  4.26698438850E+01  4.32065644485E+01  4.37500361257E+01  4.43003438350E+01
  4.48575735632E+01  4.54218123785E+01  4.59931484444E+01  4.65716710333E+01
  4.71574705405E+01  4.77506384985E+01  4.83512675909E+01  4.89594516672E+01
  4.95752857575E+01  5.01988660870E+01  5.08302900914E+01  5.14696564321E+01
  5.21170650114E+01  5.27726169881E+01  5.34364147935E+01  5.41085621475E+01
  5.47891640744E+01  5.54783269197E+01  5.61761583664E+01  5.68827674522E+01
  5.75982645860E+01  5.83227615660E+01  5.90563715960E+01  5.97992093043E+01
  6.05513907607E+01  6.13130334951E+01  6.20842565158E+01  6.28651803278E+01
  6.36559269521E+01  6.44566199446E+01  6.52673844150E+01  6.60883470471E+01
  6.69196361178E+01  6.77613815178E+01  6.86137147716E+01  6.94767690578E+01
  7.03506792306E+01  7.12355818402E+01  7.21316151543E+01  7.30389191801E+01
  7.39576356856E+01  7.48879082221E+01  7.58298821467E+01  7.67837046446E+01
  7.77495247526E+01  7.87274933820E+01  7.97177633424E+01  8.07204893655E+01
  8.17358281293E+01  8.27639382826E+01  8.38049804696E+01  8.48591173553E+01
  8.59265136507E+01  8.70073361388E+01  8.81017537001E+01  8.92099373396E+01
  9.03320602134E+01  9.14682976553E+01  9.26188272049E+01  9.37838286347E+01
  9.49634839784E+01  9.61579775598E+01  9.73674960208E+01  9.85922283511E+01
  9.98323659177E+01
  </PP_R>
  <PP_RAB>
  3.45409835437E-07  3.49754556314E-07  3.54153927052E-07  3.58608635061E-07
  3.63119376399E-07  3.67686855879E-07  3.72311787178E-07  3.76994892951E-07
  3.81736904943E-07  3.86538564103E-07  3.91400620700E-07  3.96323834440E-07
  4.01308974586E-07  4.06356820076E-07  4.11468159645E-07  4.16643791952E-07
  4.21884525699E-07  4.27191179761E-07  4.32564583314E-07  4.38005575964E-07
  4.43515007875E-07  4.49093739910E-07  4.54742643754E-07  4.60462602062E-07
  4.66254508588E-07  4.72119268330E-07  4.78057797668E-07  4.84071024510E-07
  4.90159888434E-07  4.96325340838E-07  5.02568345086E-07  5.08889876661E-07
  5.15290923314E-07  5.21772485222E-07  5.28335575142E-07  5.34981218572E-07
  5.41710453904E-07  5.48524332598E-07  5.55423919334E-07  5.62410292188E-07
  5.69484542795E-07  5.76647776519E-07  5.83901112632E-07  5.91245684482E-07
  5.98682639673E-07  6.06213140244E-07  6.13838362852E-07  6.21559498953E-07
  6.29377754990E-07  6.37294352582E-07  6.45310528713E-07  6.53427535927E-07
  6.61646642523E-07  6.69969132753E-07  6.78396307023E-07  6.86929482096E-07
  6.95569991299E-07  7.04319184728E-07  7.13178429462E-07  7.22149109777E-07
  7.31232627359E-07  7.40430401527E-07  7.49743869452E-07  7.59174486382E-07
  7.68723725870E-07  7.78393080004E-07  7.88184059640E-07  7.98098194639E-07
  8.08137034105E-07  8.18302146627E-07  8.28595120524E-07  8.39017564094E-07
  8.49571105866E-07  8.60257394851E-07  8.71078100805E-07  8.82034914484E-07
  8.93129547913E-07  9.04363734651E-07  9.15739230062E-07  9.27257811592E-07
  9.38921279040E-07  9.50731454849E-07  9.62690184382E-07  9.74799336215E-07
  9.87060802427E-07  9.99476498898E-07  1.01204836561E-06  1.02477836693E-06
  1.03766849196E-06  1.05072075480E-06  1.06393719490E-06  1.07731987734E-06
  1.09087089322E-06  1.10459235988E-06  1.11848642135E-06  1.13255524860E-06
  1.14680103992E-06  1.16122602122E-06  1.17583244646E-06  1.19062259791E-06
  1.20559878656E-06  1.22076335247E-06  1.23611866514E-06  1.25166712387E-06
  1.26741115813E-06  1.28335322797E-06  1.29949582436E-06  1.31584146961E-06
  1.33239271777E-06  1.34915215500E-06  1.36612240001E-06  1.38330610441E-06
  1.40070595321E-06  1.41832466517E-06  1.43616499324E-06  1.45422972501E-06
  1.47252168313E-06  1.49104372577E-06  1.50979874702E-06  1.52878967739E-06
  1.54801948427E-06  1.56749117233E-06  1.58720778409E-06  1.60717240028E-06
  1.62738814044E-06  1.64785816330E-06  1.66858566735E-06  1.68957389131E-06
  1.71082611463E-06  1.73234565800E-06  1.75413588391E-06  1.77620019713E-06
  1.79854204523E-06  1.82116491919E-06  1.84407235387E-06  1.86726792862E-06
  1.89075526777E-06  1.91453804128E-06  1.93861996525E-06  1.96300480254E-06
  1.98769636333E-06  2.01269850571E-06  2.03801513633E-06  2.06365021096E-06
  2.08960773514E-06  2.11589176477E-06  2.14250640680E-06  2.16945581981E-06
  2.19674421471E-06  2.22437585536E-06  2.25235505927E-06  2.28068619824E-06
  2.30937369906E-06  2.33842204422E-06  2.36783577259E-06  2.39761948011E-06
  2.42777782055E-06  2.45831550622E-06  2.48923730869E-06  2.52054805955E-06
  2.55225265117E-06  2.58435603746E-06  2.61686323464E-06  2.64977932203E-06
  2.68310944282E-06  2.71685880493E-06  2.75103268175E-06  2.78563641302E-06
  2.82067540565E-06  2.85615513456E-06  2.89208114351E-06  2.92845904602E-06
  2.96529452622E-06  3.00259333972E-06  3.04036131454E-06  3.07860435200E-06
  3.11732842766E-06  3.15653959222E-06  3.19624397252E-06  3.23644777244E-06
  3.27715727391E-06  3.31837883787E-06  3.36011890528E-06  3.40238399810E-06
  3.44518072034E-06  3.48851575908E-06  3.53239588550E-06  3.57682795597E-06
  3.62181891308E-06  3.66737578677E-06  3.71350569539E-06  3.76021584682E-06
  3.80751353963E-06  3.85540616418E-06  3.90390120379E-06  3.95300623590E-06
  4.00272893328E-06  4.05307706520E-06  4.10405849865E-06  4.15568119960E-06
  4.20795323418E-06  4.26088277002E-06  4.31447807747E-06  4.36874753089E-06
  4.42369961000E-06  4.47934290117E-06  4.53568609879E-06  4.59273800659E-06
  4.65050753904E-06  4.70900372276E-06  4.76823569789E-06  4.82821271955E-06
  4.88894415927E-06  4.95043950646E-06  5.01270836990E-06  5.07576047922E-06
  5.13960568644E-06  5.20425396750E-06  5.26971542384E-06  5.33600028393E-06
  5.40311890492E-06  5.47108177424E-06  5.53989951121E-06  5.60958286875E-06
  5.68014273503E-06  5.75159013517E-06  5.82393623296E-06  5.89719233264E-06
  5.97136988063E-06  6.04648046730E-06  6.12253582885E-06  6.19954784908E-06
  6.27752856127E-06  6.35649015008E-06  6.43644495340E-06  6.51740546434E-06
  6.59938433314E-06  6.68239436917E-06  6.76644854292E-06  6.85155998802E-06
  6.93774200331E-06  7.02500805490E-06  7.11337177829E-06  7.20284698049E-06
  7.29344764219E-06  7.38518791992E-06  7.47808214829E-06  7.57214484221E-06
  7.66739069917E-06  7.76383460152E-06  7.86149161883E-06  7.96037701019E-06
  8.06050622666E-06  8.16189491362E-06  8.26455891327E-06  8.36851426707E-06
  8.47377721824E-06  8.58036421435E-06  8.68829190982E-06  8.79757716858E-06
  8.90823706667E-06  9.02028889493E-06  9.13375016167E-06  9.24863859547E-06