<PP_INFO>
Generated using Andrea Dal Corso code (rrkj3)                                   
Andrea Dal Corso   Generation date: 23Feb2004                                   
Ga                                                                              
    2        The Pseudo was generated with a Fully-Relativistic Calculation
  0.00000000000E+00    Local Potential cutoff radius
nl pn  l   occ               Rcut            Rcut US             E pseu
</PP_INFO>


<PP_HEADER>
   0                   Version Number
  Ga                   Element                                               
   NC                  Norm - Conserving pseudopotential
    F                  Nonlinear Core Correction
 SLA  PZ   NOGX NOGC   PZ   Exchange-Correlation functional
    3.00000000000      Z valence
   -4.25106417059      Total energy
  0.0000000  0.0000000 Suggested cutoff for wfc and rho
    2                  Max angular momentum component
 1137                  Number of points in mesh
    3    3             Number of Wavefunctions, Number of Projectors
 Wavefunctions         nl  l   occ
                       4S  0  2.00
                       4P  1  0.33
                       4P  1  0.67
</PP_HEADER>


<PP_MESH>
  <PP_R>
  7.99597476344E-05  8.09655174452E-05  8.19839382829E-05  8.30151692777E-05
  8.40593715616E-05  8.51167082933E-05  8.61873446839E-05  8.72714480224E-05
  8.83691877022E-05  8.94807352474E-05  9.06062643395E-05  9.17459508448E-05
  9.28999728416E-05  9.40685106481E-05  9.52517468508E-05  9.64498663327E-05
  9.76630563024E-05  9.88915063235E-05  1.00135408344E-04  1.01394956725E-04
  1.02670348275E-04  1.03961782275E-04  1.05269460515E-04  1.06593587323E-04
  1.07934369596E-04  1.09292016833E-04  1.10666741171E-04  1.12058757412E-04
  1.13468283062E-04  1.14895538362E-04  1.16340746323E-04  1.17804132763E-04
  1.19285926338E-04  1.20786358582E-04  1.22305663940E-04  1.23844079807E-04
  1.25401846564E-04  1.26979207614E-04  1.28576409423E-04  1.30193701559E-04
  1.31831336725E-04  1.33489570805E-04  1.35168662903E-04  1.36868875379E-04
  1.38590473895E-04  1.40333727455E-04  1.42098908445E-04  1.43886292679E-04
  1.45696159439E-04  1.47528791520E-04  1.49384475275E-04  1.51263500658E-04
  1.53166161271E-04  1.55092754409E-04  1.57043581104E-04  1.59018946179E-04
  1.61019158287E-04  1.63044529967E-04  1.65095377686E-04  1.67172021894E-04
  1.69274787070E-04  1.71404001777E-04  1.73559998707E-04  1.75743114740E-04
  1.77953690992E-04  1.80192072871E-04  1.82458610128E-04  1.84753656913E-04
  1.87077571834E-04  1.89430718005E-04  1.91813463112E-04  1.94226179463E-04
  1.96669244049E-04  1.99143038605E-04  2.01647949665E-04  2.04184368629E-04
  2.06752691815E-04  2.09353320530E-04  2.11986661127E-04  2.14653125071E-04
  2.17353129003E-04  2.20087094803E-04  2.22855449660E-04  2.25658626134E-04
  2.28497062227E-04  2.31371201452E-04  2.34281492897E-04  2.37228391303E-04
  2.40212357127E-04  2.43233856620E-04  2.46293361899E-04  2.49391351016E-04
  2.52528308040E-04  2.55704723125E-04  2.58921092593E-04  2.62177919009E-04
  2.65475711259E-04  2.68814984628E-04  2.72196260886E-04  2.75620068363E-04
  2.79086942036E-04  2.82597423612E-04  2.86152061611E-04  2.89751411451E-04
  2.93396035539E-04  2.97086503354E-04  3.00823391540E-04  3.04607283992E-04
  3.08438771953E-04  3.12318454099E-04  3.16246936639E-04  3.20224833407E-04
  3.24252765956E-04  3.28331363659E-04  3.32461263806E-04  3.36643111702E-04
  3.40877560769E-04  3.45165272649E-04  3.49506917304E-04  3.53903173127E-04
  3.58354727040E-04  3.62862274609E-04  3.67426520146E-04  3.72048176824E-04
  3.76727966787E-04  3.81466621261E-04  3.86264880671E-04  3.91123494754E-04
  3.96043222680E-04  4.01024833164E-04  4.06069104595E-04  4.11176825149E-04
  4.16348792919E-04  4.21585816034E-04  4.26888712792E-04  4.32258311779E-04
  4.37695452006E-04  4.43200983039E-04  4.48775765127E-04  4.54420669341E-04
  4.60136577710E-04  4.65924383354E-04  4.71784990632E-04  4.77719315274E-04
  4.83728284532E-04  4.89812837317E-04  4.95973924356E-04  5.02212508328E-04
  5.08529564028E-04  5.14926078506E-04  5.21403051231E-04  5.27961494244E-04
  5.34602432315E-04  5.41326903103E-04  5.48135957322E-04  5.55030658898E-04
  5.62012085145E-04  5.69081326923E-04  5.76239488817E-04  5.83487689302E-04
  5.90827060927E-04  5.98258750482E-04  6.05783919183E-04  6.13403742855E-04
  6.21119412109E-04  6.28932132535E-04  6.36843124887E-04  6.44853625272E-04
  6.52964885349E-04  6.61178172517E-04  6.69494770119E-04  6.77915977642E-04
  6.86443110915E-04  6.95077502321E-04  7.03820501001E-04  7.12673473067E-04
  7.21637801812E-04  7.30714887932E-04  7.39906149740E-04  7.49213023389E-04
  7.58636963097E-04  7.68179441374E-04  7.77841949252E-04  7.87625996517E-04
  7.97533111946E-04  8.07564843547E-04  8.17722758798E-04  8.28008444893E-04
  8.38423508992E-04  8.48969578470E-04  8.59648301173E-04  8.70461345671E-04
  8.81410401526E-04  8.92497179549E-04  9.03723412072E-04  9.15090853217E-04
  9.26601279169E-04  9.38256488457E-04  9.50058302229E-04  9.62008564545E-04
  9.74109142655E-04  9.86361927302E-04  9.98768833006E-04  1.01133179837E-03
  1.02405278639E-03  1.03693378474E-03  1.04997680610E-03  1.06318388847E-03
  1.07655709549E-03  1.09009851675E-03  1.10381026812E-03  1.11769449209E-03
  1.13175335809E-03  1.14598906286E-03  1.16040383076E-03  1.17499991411E-03
  1.18977959359E-03  1.20474517855E-03  1.21989900740E-03  1.23524344795E-03
  1.25078089780E-03  1.26651378471E-03  1.28244456697E-03  1.29857573381E-03
  1.31490980575E-03  1.33144933503E-03  1.34819690597E-03  1.36515513541E-03
  1.38232667313E-03  1.39971420220E-03  1.41732043946E-03  1.43514813593E-03
  1.45320007721E-03  1.47147908396E-03  1.48998801231E-03  1.50872975432E-03
  1.52770723842E-03  1.54692342989E-03  1.56638133129E-03  1.58608398296E-03
  1.60603446348E-03  1.62623589015E-03  1.64669141949E-03  1.66740424771E-03
  1.68837761124E-03  1.70961478721E-03  1.73111909396E-03  1.75289389159E-03
  1.77494258246E-03  1.79726861173E-03  1.81987546786E-03  1.84276668325E-03
  1.86594583467E-03  1.88941654393E-03  1.91318247837E-03  1.93724735146E-03
  1.96161492339E-03  1.98628900165E-03  2.01127344160E-03  2.03657214712E-03
  2.06218907118E-03  2.08812821648E-03  2.11439363607E-03  2.14098943395E-03
  2.16791976580E-03  2.19518883952E-03  2.22280091596E-03  2.25076030956E-03
  2.27907138905E-03  2.30773857807E-03  2.33676635594E-03  2.36615925831E-03
  2.39592187788E-03  2.42605886512E-03  2.45657492899E-03  2.48747483769E-03
  2.51876341939E-03  2.55044556301E-03  2.58252621893E-03  2.61501039982E-03
  2.64790318142E-03  2.68120970327E-03  2.71493516959E-03  2.74908485006E-03
  2.78366408062E-03  2.81867826437E-03  2.85413287233E-03  2.89003344435E-03
  2.92638558998E-03  2.96319498931E-03  3.00046739389E-03  3.03820862761E-03
  3.07642458760E-03  3.11512124519E-03  3.15430464682E-03  3.19398091496E-03
  3.23415624912E-03  3.27483692678E-03  3.31602930436E-03  3.35773981828E-03
  3.39997498587E-03  3.44274140647E-03  3.48604576241E-03  3.52989482010E-03
  3.57429543104E-03  3.61925453291E-03  3.66477915067E-03  3.71087639762E-03
  3.75755347656E-03  3.80481768088E-03  3.85267639570E-03  3.90113709905E-03
  3.95020736300E-03  3.99989485489E-03  4.05020733849E-03  4.10115267523E-03
  4.15273882541E-03  4.20497384949E-03  4.25786590928E-03  4.31142326929E-03
  4.36565429796E-03  4.42056746899E-03  4.47617136268E-03  4.53247466725E-03
  4.58948618021E-03  4.64721480972E-03  4.70566957601E-03  4.76485961274E-03
  4.82479416847E-03  4.88548260811E-03  4.94693441435E-03  5.00915918916E-03
  5.07216665528E-03  5.13596665776E-03  5.20056916548E-03  5.26598427271E-03
  5.33222220070E-03  5.39929329925E-03  5.46720804837E-03  5.53597705987E-03
  5.60561107905E-03  5.67612098636E-03  5.74751779913E-03  5.81981267324E-03
  5.89301690493E-03  5.96714193249E-03  6.04219933813E-03  6.11820084970E-03
  6.19515834260E-03  6.27308384160E-03  6.35198952272E-03  6.43188771511E-03
  6.51279090305E-03  6.59471172782E-03  6.67766298971E-03  6.76165765004E-03
  6.84670883312E-03  6.93282982839E-03  7.02003409243E-03  7.10833525107E-03
  7.19774710156E-03  7.28828361468E-03  7.37995893694E-03  7.47278739280E-03
  7.56678348690E-03  7.66196190631E-03  7.75833752285E-03  7.85592539542E-03
  7.95474077231E-03  8.05479909363E-03  8.15611599370E-03  8.25870730349E-03
  8.36258905309E-03  8.46777747425E-03  8.57428900287E-03  8.68214028159E-03
  8.79134816239E-03  8.90192970922E-03  9.01390220069E-03  9.12728313271E-03
  9.24209022130E-03  9.35834140528E-03  9.47605484915E-03  9.59524894586E-03
  9.71594231975E-03  9.83815382939E-03  9.96190257058E-03  1.00872078793E-02
  1.02140893348E-02  1.03425667625E-02  1.04726602374E-02  1.06043900867E-02
  1.07377768935E-02  1.08728414998E-02  1.10096050097E-02  1.11480887928E-02
  1.12883144875E-02  1.14303040042E-02  1.15740795292E-02  1.17196635277E-02
  1.18670787475E-02  1.20163482224E-02  1.21674952762E-02  1.23205435259E-02
  1.24755168856E-02  1.26324395702E-02  1.27913360992E-02  1.29522313005E-02
  1.31151503142E-02  1.32801185969E-02  1.34471619251E-02  1.36163063997E-02
  1.37875784500E-02  1.39610048374E-02  1.41366126602E-02  1.43144293575E-02
  1.44944827135E-02  1.46768008619E-02  1.48614122903E-02  1.50483458446E-02
  1.52376307336E-02  1.54292965334E-02  1.56233731921E-02  1.58198910347E-02
  1.60188807675E-02  1.62203734829E-02  1.64244006648E-02  1.66309941926E-02
  1.68401863471E-02  1.70520098150E-02  1.72664976942E-02  1.74836834987E-02
  1.77036011643E-02  1.79262850537E-02  1.81517699615E-02  1.83800911204E-02
  1.86112842058E-02  1.88453853423E-02  1.90824311086E-02  1.93224585436E-02
  1.95655051520E-02  1.98116089104E-02  2.00608082731E-02  2.03131421778E-02
  2.05686500523E-02  2.08273718203E-02  2.10893479074E-02  2.13546192481E-02
  2.16232272915E-02  2.18952140081E-02  2.21706218965E-02  2.24494939896E-02
  2.27318738619E-02  2.30178056357E-02  2.33073339885E-02  2.36005041596E-02
  2.38973619575E-02  2.41979537668E-02  2.45023265556E-02  2.48105278829E-02
  2.51226059055E-02  2.54386093865E-02  2.57585877019E-02  2.60825908491E-02
  2.64106694541E-02  2.67428747800E-02  2.70792587345E-02  2.74198738782E-02
  2.77647734331E-02  2.81140112902E-02  2.84676420189E-02  2.88257208745E-02
  2.91883038076E-02  2.95554474726E-02  2.99272092364E-02  3.03036471875E-02
  3.06848201452E-02  3.10707876684E-02  3.14616100654E-02  3.18573484030E-02
  3.22580645161E-02  3.26638210174E-02  3.30746813072E-02  3.34907095833E-02
  3.39119708508E-02  3.43385309328E-02  3.47704564801E-02  3.52078149820E-02
  3.56506747766E-02  3.60991050617E-02  3.65531759054E-02  3.70129582572E-02
  3.74785239590E-02  3.79499457564E-02  3.84272973101E-02  3.89106532071E-02
  3.94000889729E-02  3.98956810828E-02  4.03975069739E-02  4.09056450578E-02
  4.14201747319E-02  4.19411763925E-02  4.24687314473E-02  4.30029223278E-02
  4.35438325025E-02  4.40915464895E-02  4.46461498703E-02  4.52077293030E-02
  4.57763725353E-02  4.63521684189E-02  4.69352069232E-02  4.75255791490E-02
  4.81233773433E-02  4.87286949132E-02  4.93416264408E-02  4.99622676979E-02
  5.05907156610E-02  5.12270685263E-02  5.18714257253E-02  5.25238879402E-02
  5.31845571194E-02  5.38535364938E-02  5.45309305929E-02  5.52168452608E-02
  5.59113876731E-02  5.66146663536E-02  5.73267911908E-02  5.80478734557E-02
  5.87780258190E-02  5.95173623685E-02  6.02659986268E-02  6.10240515701E-02
  6.17916396456E-02  6.25688827905E-02  6.33559024506E-02  6.41528215994E-02
  6.49597647571E-02  6.57768580102E-02  6.66042290312E-02  6.74420070984E-02
  6.82903231165E-02  6.91493096366E-02  7.00191008769E-02  7.08998327442E-02
  7.17916428546E-02  7.26946705553E-02  7.36090569461E-02  7.45349449019E-02
  7.54724790944E-02  7.64218060153E-02  7.73830739989E-02  7.83564332453E-02
  7.93420358438E-02  8.03400357968E-02  8.13505890438E-02  8.23738534859E-02
  8.34099890102E-02  8.44591575150E-02  8.55215229349E-02  8.65972512668E-02
  8.76865105955E-02  8.87894711197E-02  8.99063051795E-02  9.10371872824E-02
  9.21822941311E-02  9.33418046507E-02  9.45159000172E-02  9.57047636854E-02
  9.69085814176E-02  9.81275413129E-02  9.93618338361E-02  1.00611651848E-01
  1.01877190635E-01  1.03158647941E-01  1.04456223995E-01  1.05770121546E-01
  1.07100545895E-01  1.08447704921E-01  1.09811809122E-01  1.11193071642E-01
  1.12591708305E-01  1.14007937652E-01  1.15441980971E-01  1.16894062334E-01
  1.18364408633E-01  1.19853249611E-01  1.21360817903E-01  1.22887349070E-01
  1.24433081635E-01  1.25998257123E-01  1.27583120094E-01  1.29187918188E-01
  1.30812902156E-01  1.32458325907E-01  1.34124446541E-01  1.35811524392E-01
  1.37519823070E-01  1.39249609500E-01  1.41001153965E-01  1.42774730148E-01
  1.44570615172E-01  1.46389089649E-01  1.48230437720E-01  1.50094947097E-01
  1.51982909116E-01  1.53894618773E-01  1.55830374778E-01  1.57790479595E-01
  1.59775239497E-01  1.61784964604E-01  1.63819968941E-01  1.65880570482E-01
  1.67967091199E-01  1.70079857116E-01  1.72219198357E-01  1.74385449198E-01
  1.76578948120E-01  1.78800037862E-01  1.81049065474E-01  1.83326382371E-01
  1.85632344387E-01  1.87967311836E-01  1.90331649559E-01  1.92725726989E-01
  1.95149918207E-01  1.97604601996E-01  2.00090161907E-01  2.02606986312E-01
  2.05155468471E-01  2.07736006589E-01  2.10349003882E-01  2.12994868634E-01
  2.15674014267E-01  2.18386859404E-01  2.21133827932E-01  2.23915349071E-01
  2.26731857438E-01  2.29583793120E-01  2.32471601736E-01  2.35395734513E-01
  2.38356648353E-01  2.41354805903E-01  2.44390675633E-01  2.47464731904E-01
  2.50577455042E-01  2.53729331418E-01  2.56920853517E-01  2.60152520023E-01
  2.63424835889E-01  2.66738312422E-01  2.70093467359E-01  2.73490824950E-01
  2.76930916038E-01  2.80414278145E-01  2.83941455554E-01  2.87512999394E-01
  2.91129467724E-01  2.94791425625E-01  2.98499445287E-01  3.02254106095E-01
  3.06055994721E-01  3.09905705220E-01  3.13803839115E-01  3.17751005498E-01
  3.21747821123E-01  3.25794910499E-01  3.29892905993E-01  3.34042447925E-01
  3.38244184669E-01  3.42498772754E-01  3.46806876970E-01  3.51169170466E-01
  3.55586334859E-01  3.60059060341E-01  3.64588045783E-01  3.69173998849E-01
  3.73817636104E-01  3.78519683125E-01  3.83280874616E-01  3.88101954524E-01
  3.92983676152E-01  3.97926802278E-01  4.02932105278E-01  4.08000367238E-01
  4.13132380086E-01  4.18328945709E-01  4.23590876080E-01  4.28918993388E-01
  4.34314130161E-01  4.39777129401E-01  4.45308844712E-01  4.50910140436E-01
  4.56581891786E-01  4.62324984986E-01  4.68140317406E-01  4.74028797703E-01
  4.79991345964E-01  4.86028893849E-01  4.92142384737E-01  4.98332773875E-01
  5.04601028522E-01  5.10948128107E-01  5.17375064376E-01  5.23882841552E-01
  5.30472476487E-01  5.37144998826E-01  5.43901451164E-01  5.50742889211E-01
  5.57670381954E-01  5.64685011829E-01  5.71787874886E-01  5.78980080962E-01
  5.86262753853E-01  5.93637031492E-01  6.01104066126E-01  6.08665024492E-01
  6.16321088007E-01  6.24073452946E-01  6.31923330632E-01  6.39871947624E-01
  6.47920545909E-01  6.56070383098E-01  6.64322732619E-01  6.72678883919E-01
  6.81140142663E-01  6.89707830939E-01  6.98383287468E-01  7.07167867806E-01
  7.16062944563E-01  7.25069907611E-01  7.34190164307E-01  7.43425139711E-01
  7.52776276805E-01  7.62245036723E-01  7.71832898980E-01  7.81541361697E-01
  7.91371941842E-01  8.01326175463E-01  8.11405617930E-01  8.21611844175E-01
  8.31946448942E-01  8.42411047034E-01  8.53007273567E-01  8.63736784221E-01
  8.74601255505E-01  8.85602385015E-01  8.96741891699E-01  9.08021516128E-01
  9.19443020767E-01  9.31008190248E-01  9.42718831653E-01  9.54576774793E-01
  9.66583872497E-01  9.78742000897E-01  9.91053059726E-01  1.00351897261E+00
  1.01614168738E+00  1.02892317635E+00  1.04186543666E+00  1.05497049057E+00
  1.06824038576E+00  1.08167719569E+00  1.09528301988E+00  1.10905998427E+00
  1.12301024154E+00  1.13713597144E+00  1.15143938115E+00  1.16592270561E+00
  1.18058820786E+00  1.19543817942E+00  1.21047494063E+00  1.22570084101E+00
  1.24111825965E+00  1.25672960553E+00  1.27253731797E+00  1.28854386696E+00
  1.30475175355E+00  1.32116351026E+00  1.33778170145E+00  1.35460892375E+00
  1.37164780645E+00  1.38890101192E+00  1.40637123599E+00  1.42406120843E+00
  1.44197369333E+00  1.46011148956E+00  1.47847743117E+00  1.49707438789E+00
  1.51590526553E+00  1.53497300646E+00  1.55428059004E+00  1.57383103312E+00
  1.59362739050E+00  1.61367275541E+00  1.63397025996E+00  1.65452307570E+00
  1.67533441403E+00  1.69640752677E+00  1.71774570664E+00  1.73935228777E+00
  1.76123064623E+00  1.78338420057E+00  1.80581641231E+00  1.82853078654E+00
  1.85153087243E+00  1.87482026379E+00  1.89840259962E+00  1.92228156473E+00
  1.94646089024E+00  1.97094435422E+00  1.99573578227E+00  2.02083904810E+00
  2.04625807413E+00  2.07199683216E+00  2.09805934390E+00  2.12444968169E+00
  2.15117196906E+00  2.17823038143E+00  2.20562914673E+00  2.23337254607E+00
  2.26146491441E+00  2.28991064125E+00  2.31871417128E+00  2.34788000512E+00
  2.37741269999E+00  2.40731687043E+00  2.43759718902E+00  2.46825838714E+00
  2.49930525565E+00  2.53074264570E+00  2.56257546943E+00  2.59480870079E+00
  2.62744737629E+00  2.66049659579E+00  2.69396152329E+00  2.72784738776E+00
  2.76215948394E+00  2.79690317316E+00  2.83208388419E+00  2.86770711408E+00
  2.90377842905E+00  2.94030346530E+00  2.97728792996E+00  3.01473760191E+00
  3.05265833274E+00  3.09105604765E+00  3.12993674635E+00  3.16930650404E+00
  3.20917147232E+00  3.24953788017E+00  3.29041203493E+00  3.33180032326E+00
  3.37370921216E+00  3.41614525000E+00  3.45911506749E+00  3.50262537874E+00
  3.54668298233E+00  3.59129476235E+00  3.63646768949E+00  3.68220882210E+00
  3.72852530733E+00  3.77542438222E+00  3.82291337486E+00  3.87099970549E+00
  3.91969088770E+00  3.96899452959E+00  4.01891833494E+00  4.06947010446E+00
  4.12065773697E+00  4.17248923063E+00  4.22497268422E+00  4.27811629839E+00
  4.33192837693E+00  4.38641732810E+00  4.44159166590E+00  4.49746001143E+00
  4.55403109424E+00  4.61131375367E+00  4.66931694026E+00  4.72804971712E+00
  4.78752126137E+00  4.84774086556E+00  4.90871793912E+00  4.97046200984E+00
  5.03298272537E+00  5.09628985468E+00  5.16039328966E+00  5.22530304658E+00
  5.29102926774E+00  5.35758222298E+00  5.42497231135E+00  5.49321006268E+00
  5.56230613925E+00  5.63227133748E+00  5.70311658956E+00  5.77485296521E+00
  5.84749167339E+00  5.92104406404E+00  5.99552162987E+00  6.07093600815E+00
  6.14729898254E+00  6.22462248489E+00  6.30291859718E+00  6.38219955332E+00
  6.46247774112E+00  6.54376570422E+00  6.62607614403E+00  6.70942192171E+00
  6.79381606022E+00  6.87927174630E+00  6.96580233260E+00  7.05342133968E+00
  7.14214245820E+00  7.23197955101E+00  7.32294665533E+00  7.41505798497E+00
  7.50832793251E+00  7.60277107156E+00  7.69840215905E+00  7.79523613755E+00
  7.89328813756E+00  7.99257347989E+00  8.09310767809E+00  8.19490644083E+00
  8.29798567438E+00  8.40236148507E+00  8.50805018184E+00  8.61506827875E+00
  8.72343249762E+00  8.83315977056E+00  8.94426724268E+00  9.05677227476E+00
  9.17069244593E+00  9.28604555646E+00  9.40284963049E+00  9.52112291892E+00
  9.64088390216E+00  9.76215129314E+00  9.88494404011E+00  1.00092813297E+01
  1.01351825899E+01  1.02626674929E+01  1.03917559587E+01  1.05224681574E+01
  1.06548245132E+01  1.07888457070E+01  1.09245526799E+01  1.10619666364E+01
  1.12011090477E+01  1.13420016551E+01  1.14846664733E+01  1.16291257939E+01
  1.17754021892E+01  1.19235185150E+01  1.20734979148E+01  1.22253638233E+01
  1.23791399697E+01  1.25348503819E+01  1.26925193900E+01  1.28521716301E+01
  1.30138320482E+01  1.31775259039E+01  1.33432787749E+01  1.35111165604E+01
  1.36810654853E+01  1.38531521045E+01  1.40274033070E+01  1.42038463197E+01
  1.43825087123E+01  1.45634184012E+01  1.47466036538E+01  1.49320930933E+01
  1.51199157027E+01  1.53101008296E+01  1.55026781910E+01  1.56976778774E+01
  1.58951303578E+01  1.60950664848E+01  1.62975174986E+01  1.65025150327E+01
  1.67100911183E+01  1.69202781897E+01  1.71331090890E+01  1.73486170714E+01
  1.75668358105E+01  1.77877994035E+01  1.80115423763E+01  1.82380996892E+01
  1.84675067424E+01  1.86997993810E+01  1.89350139013E+01  1.91731870561E+01
  1.94143560604E+01  1.96585585973E+01  1.99058328240E+01  2.01562173775E+01
  2.04097513810E+01  2.06664744497E+01  2.09264266971E+01  2.11896487413E+01
  2.14561817111E+01  2.17260672530E+01  2.19993475371E+01  2.22760652640E+01
  2.25562636715E+01  2.28399865410E+01  2.31272782049E+01  2.34181835531E+01
  2.37127480401E+01  2.40110176922E+01  2.43130391147E+01  2.46188594990E+01
  2.49285266302E+01  2.52420888944E+01  2.55595952863E+01  2.58810954170E+01
  2.62066395215E+01  2.65362784668E+01  2.68700637596E+01  2.72080475545E+01
  2.75502826621E+01  2.78968225575E+01  2.82477213882E+01  2.86030339828E+01
  2.89628158597E+01  2.93271232355E+01  2.96960130339E+01  3.00695428948E+01
  3.04477711830E+01  3.08307569973E+01  3.12185601802E+01  3.16112413265E+01
  3.20088617937E+01  3.24114837107E+01  3.28191699879E+01  3.32319843272E+01
  3.36499912316E+01  3.40732560157E+01  3.45018448153E+01  3.49358245984E+01
  3.53752631751E+01  3.58202292087E+01  3.62707922260E+01  3.67270226283E+01
  3.71889917027E+01  3.76567716327E+01  3.81304355098E+01  3.86100573451E+01
  3.90957120804E+01  3.95874756003E+01  4.00854247437E+01  4.05896373163E+01
  4.11001921024E+01  4.16171688770E+01  4.21406484190E+01  4.26707125230E+01
  4.32074440127E+01  4.37509267534E+01  4.43012456655E+01  4.48584867373E+01
  4.54227370389E+01  4.59940847355E+01  4.65726191015E+01  4.71584305340E+01
  4.77516105672E+01  4.83522518868E+01  4.89604483440E+01  4.95762949709E+01
  5.01998879947E+01  5.08313248532E+01  5.14707042096E+01  5.21181259683E+01
  5.27736912902E+01  5.34375026087E+01  5.41096636457E+01  5.47902794278E+01
  5.54794563024E+01  5.61773019551E+01  5.68839254254E+01  5.75994371248E+01
  5.83239488534E+01  5.90575738177E+01  5.98004266481E+01  6.05526234168E+01
  6.13142816561E+01  6.20855203767E+01  6.28664600861E+01  6.36572228078E+01
  6.44579321001E+01  6.52687130755E+01  6.60896924200E+01  6.69209984134E+01
  6.77627609490E+01  6.86151115539E+01  6.94781834095E+01  7.03521113727E+01
  7.12370319964E+01  7.21330835512E+01  7.30404060472E+01  7.39591412551E+01
  7.48894327294E+01  7.58314258299E+01  7.67852677449E+01  7.77511075143E+01
  7.87290960524E+01  7.97193861719E+01  8.07221326077E+01  8.17374920410E+01
  8.27656231237E+01  8.38066865034E+01  8.48608448484E+01  8.59282628730E+01
  8.70091073635E+01  8.81035472041E+01  8.92117534031E+01  9.03338991202E+01
  9.14701596927E+01  9.26207126638E+01  9.37857378097E+01  9.49654171680E+01
  9.61599350659E+01  9.73694781492E+01  9.85942354117E+01  9.98343982240E+01
  1.01090160364E+02  1.02361718048E+02  1.03649269958E+02  1.04953017277E+02
  1.06273163719E+02  1.07609915559E+02  1.08963481667E+02  1.10334073541E+02
  1.11721905338E+02  1.13127193910E+02  1.14550158837E+02  1.15991022459E+02
  1.17450009914E+02
  </PP_R>
  <PP_RAB>
  9.99496845430E-07  1.01206896807E-06  1.02479922854E-06  1.03768961597E-06
  1.05074214452E-06  1.06395885367E-06  1.07734180855E-06  1.09089310028E-06
  1.10461484628E-06  1.11850919059E-06  1.13257830424E-06  1.14682438556E-06
  1.16124966052E-06  1.17585638310E-06  1.19064683563E-06  1.20562332916E-06
  1.22078820378E-06  1.23614382904E-06  1.25169260429E-06  1.26743695906E-06
  1.28337935343E-06  1.29952227844E-06  1.31586825644E-06  1.33241984154E-06
  1.34917961995E-06  1.36615021042E-06  1.38333426464E-06  1.40073446765E-06
  1.41835353827E-06  1.43619422952E-06  1.45425932904E-06  1.47255165954E-06
  1.49107407923E-06  1.50982948228E-06  1.52882079925E-06  1.54805099759E-06
  1.56752308205E-06  1.58724009517E-06  1.60720511779E-06  1.62742126948E-06
  1.64789170906E-06  1.66861963506E-06  1.68960828628E-06  1.71086094224E-06
  1.73238092369E-06  1.75417159319E-06  1.77623635557E-06  1.79857865849E-06
  1.82120199299E-06  1.84410989400E-06  1.86730594094E-06  1.89079375823E-06
  1.91457701589E-06  1.93865943011E-06  1.96304476380E-06  1.98773682724E-06
  2.01273947859E-06  2.03805662459E-06  2.06369222108E-06  2.08965027368E-06
  2.11593483838E-06  2.14255002221E-06  2.16949998384E-06  2.19678893425E-06
  2.22442113740E-06  2.25240091089E-06  2.28073262659E-06  2.30942071141E-06
  2.33846964792E-06  2.36788397507E-06  2.39766828890E-06  2.42782724328E-06
  2.45836555061E-06  2.48928798256E-06  2.52059937082E-06  2.55230460786E-06
  2.58440864768E-06  2.61691650662E-06  2.64983326408E-06  2.68316406339E-06
  2.71691411253E-06  2.75108868504E-06  2.78569312075E-06  2.82073282667E-06
  2.85621327784E-06  2.89214001815E-06  2.92851866122E-06  2.96535489128E-06
  3.00265446408E-06  3.04042320775E-06  3.07866702373E-06  3.11739188770E-06
  3.15660385049E-06  3.19630903906E-06  3.23651365742E-06  3.27722398762E-06
  3.31844639073E-06  3.36018730785E-06  3.40245326107E-06  3.44525085453E-06
  3.48858677545E-06  3.53246779515E-06  3.57690077013E-06  3.62189264314E-06
  3.66745044423E-06  3.71358129192E-06  3.76029239425E-06  3.80759104990E-06
  3.85548464941E-06  3.90398067624E-06  3.95308670799E-06  4.00281041759E-06
  4.05315957445E-06  4.10414204574E-06  4.15576579758E-06  4.20803889628E-06
  4.26096950962E-06  4.31456590811E-06  4.36883646630E-06  4.42378966409E-06
  4.47943408800E-06  4.53577843261E-06  4.59283150182E-06  4.65060221030E-06
  4.70909958484E-06  4.76833276576E-06  4.82831100839E-06  4.88904368443E-06
  4.95054028350E-06  5.01281041455E-06  5.07586380743E-06  5.13971031436E-06
  5.20435991148E-06  5.26982270043E-06  5.33610890990E-06  5.40322889723E-06
  5.47119315008E-06  5.54001228799E-06  5.60969706409E-06  5.68025836677E-06
  5.75170722137E-06  5.82405479193E-06  5.89731238290E-06  5.97149144093E-06
  6.04660355664E-06  6.12266046647E-06  6.19967405444E-06  6.27765635411E-06
  6.35661955034E-06  6.43657598132E-06  6.51753814039E-06  6.59951867805E-06
  6.68253040394E-06  6.76658628879E-06  6.85169946652E-06  6.93788323623E-06
  7.02515106431E-06  7.11351658654E-06  7.20299361021E-06  7.29359611628E-06
  7.38533826159E-06  7.47823438102E-06  7.57229898979E-06  7.66754678569E-06
  7.76399265137E-06  7.86165165669E-06  7.96053906109E-06  8.06067031590E-06
  8.16206106686E-06  8.26472715646E-06  8.36868462649E-06  8.47394972053E-06
  8.58053888644E-06  8.68846877902E-06  8.79775626252E-06  8.90841841333E-06
  9.02047252265E-06  9.13393609915E-06  9.24882687175E-06  9.36516279236E-06
  9.48296203871E-06  9.60224301718E-06  9.72302436565E-06  9.84532495646E-06
  9.96916389933E-06  1.00945605443E-05  1.02215344850E-05  1.03501055612E-05
  1.04802938624E-05  1.06121197309E-05  1.07456037647E-05  1.08807668209E-05
  1.10176300191E-05  1.11562147444E-05  1.12965426509E-05  1.14386356652E-05
  1.15825159896E-05  1.17282061057E-05  1.18757287779E-05  1.20251070568E-05
  1.21763642832E-05  1.23295240913E-05  1.24846104126E-05  1.26416474796E-05
  1.28006598299E-05  1.29616723092E-05  1.31247100763E-05  1.32897986059E-05
  1.34569636937E-05  1.36262314594E-05  1.37976283515E-05  1.39711811511E-05
  1.41469169761E-05  1.43248632858E-05  1.45050478844E-05  1.46874989264E-05
  1.48722449199E-05  1.50593147319E-05  1.52487375925E-05  1.54405430993E-05
  1.56347612225E-05  1.58314223089E-05  1.60305570872E-05  1.62321966727E-05
  1.64363725719E-05  1.66431166878E-05  1.68524613246E-05  1.70644391927E-05
  1.72790834141E-05  1.74964275275E-05  1.77165054933E-05  1.79393516991E-05
  1.81650009651E-05  1.83934885495E-05  1.86248501539E-05  1.88591219290E-05
  1.90963404803E-05  1.93365428736E-05  1.95797666411E-05  1.98260497870E-05
  2.00754307935E-05  2.03279486269E-05  2.05836427436E-05  2.08425530964E-05
  2.11047201405E-05  2.13701848401E-05  2.16389886745E-05  2.19111736449E-05
  2.21867822808E-05  2.24658576466E-05  2.27484433483E-05  2.30345835406E-05
  2.33243229334E-05  2.36177067991E-05  2.39147809796E-05  2.42155918933E-05
  2.45201865424E-05  2.48286125206E-05  2.51409180200E-05  2.54571518390E-05
  2.57773633898E-05  2.61016027060E-05  2.64299204508E-05  2.67623679244E-05
  2.70989970725E-05  2.74398604940E-05  2.77850114495E-05  2.81345038695E-05
  2.84883923631E-05  2.88467322259E-05  2.92095794493E-05  2.95769907289E-05
  2.99490234735E-05  3.03257358140E-05  3.07071866123E-05  3.10934354711E-05
  3.14845427424E-05  3.18805695376E-05  3.22815777366E-05  3.26876299978E-05
  3.30987897677E-05  3.35151212908E-05  3.39366896199E-05  3.43635606257E-05
  3.47958010078E-05  3.52334783046E-05  3.56766609041E-05  3.61254180544E-05
  3.65798198748E-05  3.70399373664E-05  3.75058424237E-05  3.79776078451E-05
  3.84553073450E-05  3.89390155649E-05  3.94288080852E-05  3.99247614370E-05
  4.04269531140E-05  4.09354615847E-05  4.14503663046E-05  4.19717477285E-05
  4.24996873233E-05  4.30342675808E-05  4.35755720302E-05  4.41236852513E-05
  4.46786928880E-05  4.52406816614E-05  4.58097393834E-05  4.63859549703E-05
  4.69694184571E-05  4.75602210110E-05  4.81584549463E-05  4.87642137381E-05
  4.93775920375E-05  4.99986856861E-05  5.06275917311E-05  5.12644084403E-05
  5.19092353177E-05  5.25621731186E-05  5.32233238661E-05  5.38927908661E-05
  5.45706787244E-05  5.52570933623E-05  5.59521420334E-05  5.66559333406E-05
  5.73685772526E-05  5.80901851216E-05  5.88208697001E-05  5.95607451592E-05
  6.03099271059E-05  6.10685326014E-05  6.18366801794E-05  6.26144898645E-05
  6.34020831910E-05  6.41995832220E-05  6.50071145685E-05  6.58248034089E-05
  6.66527775087E-05  6.74911662406E-05  6.83401006046E-05  6.91997132484E-05
  7.00701384881E-05  7.09515123295E-05  7.18439724891E-05  7.27476584155E-05
  7.36627113116E-05  7.45892741562E-05  7.55274917266E-05  7.64775106213E-05
  7.74394792826E-05  7.84135480200E-05  7.93998690339E-05  8.03985964389E-05
  8.14098862882E-05  8.24338965978E-05  8.34707873714E-05  8.45207206254E-05