
     Program PHONON v.5.0.2 (svn rev. 9400) starts on  7Dec2012 at 16:39:49 

     This program is part of the open-source Quantum ESPRESSO suite
     for quantum simulation of materials; please cite
         "P. Giannozzi et al., J. Phys.:Condens. Matter 21 395502 (2009);
          URL http://www.quantum-espresso.org", 
     in publications or presentations arising from this work. More details at
     http://www.quantum-espresso.org/quote.php

     Serial version

     Ultrasoft (Vanderbilt) Pseudopotentials

   Info: using nr1, nr2, nr3 values from input

   Info: using nr1s, nr2s, nr3s values from input

     IMPORTANT: XC functional enforced from input :
     Exchange-correlation      =  SLA  PZ   NOGX NOGC ( 1 1 0 0 0)
     EXX-fraction              =        0.00
     Any further DFT definition will be discarded
     Please, verify this is what you really want

               file Au.rel-pz-kjpaw.UPF: wavefunction(s)  6S 6P 6P 5D renormalized
 
     G-vector sticks info
     --------------------
     sticks:   dense  smooth     PW     G-vecs:    dense   smooth      PW
     Sum         595     283     91                 9841     3143     609
 

     Calculation of q =    0.0000000   0.0000000   0.0000000

                                                                                

     bravais-lattice index     =            2
     lattice parameter (alat)  =       7.6660  a.u.
     unit-cell volume          =     112.6280 (a.u.)^3
     number of atoms/cell      =            1
     number of atomic types    =            1
     kinetic-energy cut-off    =      35.0000  Ry
     charge density cut-off    =     300.0000  Ry
     convergence threshold     =      1.0E-14
     beta                      =       0.7000
     number of iterations used =            4
     Exchange-correlation      =  SLA  PZ   NOGX NOGC ( 1 1 0 0 0)
     EXX-fraction              =        0.00
     Non magnetic calculation with spin-orbit

     celldm(1)=    7.66600  celldm(2)=    0.00000  celldm(3)=    0.00000
     celldm(4)=    0.00000  celldm(5)=    0.00000  celldm(6)=    0.00000

     crystal axes: (cart. coord. in units of alat)
               a(1) = ( -0.5000  0.0000  0.5000 )  
               a(2) = (  0.0000  0.5000  0.5000 )  
               a(3) = ( -0.5000  0.5000  0.0000 )  

     reciprocal axes: (cart. coord. in units 2 pi/alat)
               b(1) = ( -1.0000 -1.0000  1.0000 )  
               b(2) = (  1.0000  1.0000  1.0000 )  
               b(3) = ( -1.0000  1.0000 -1.0000 )  


     Atoms inside the unit cell: 

   Cartesian axes

     site n.  atom      mass           positions (alat units)
           1        Au 196.9666   tau(    1) = (    0.00000    0.00000    0.00000  )

     Computing dynamical matrix for 
                    q = (   0.0000000   0.0000000   0.0000000 )
 
     49 Sym.Ops. (with q -> -q+G )


     G cutoff =  446.5799  (   9841 G-vectors)     FFT grid: ( 30, 30, 30)
     G cutoff =  208.4039  (   3143 G-vectors)  smooth grid: ( 24, 24, 24)

     number of k points=    10  Methfessel-Paxton smearing, width (Ry)=  0.0400
                       cart. coord. in units 2pi/alat
        k(    1) = (  -0.1250000   0.1250000   0.1250000), wk =   0.0312500
        k(    2) = (  -0.3750000   0.3750000  -0.1250000), wk =   0.0937500
        k(    3) = (   0.3750000  -0.3750000   0.6250000), wk =   0.0937500
        k(    4) = (   0.1250000  -0.1250000   0.3750000), wk =   0.0937500
        k(    5) = (  -0.1250000   0.6250000   0.1250000), wk =   0.0937500
        k(    6) = (   0.6250000  -0.1250000   0.8750000), wk =   0.1875000
        k(    7) = (   0.3750000   0.1250000   0.6250000), wk =   0.1875000
        k(    8) = (  -0.1250000  -0.8750000   0.1250000), wk =   0.0937500
        k(    9) = (  -0.3750000   0.3750000   0.3750000), wk =   0.0312500
        k(   10) = (   0.3750000  -0.3750000   1.1250000), wk =   0.0937500

     PseudoPot. # 1 for Au read from file:
     /home/giannozz/trunk/espresso/pseudo/Au.rel-pz-kjpaw.UPF
     MD5 check sum: 5d4760394a1c1c8d002f32975df2ea42
     Pseudo is Projector augmented-wave + core cor, Zval = 11.0
     Generated using "atomic" code by A. Dal Corso  (Quantum ESPRESSO distribution)
     Shape of augmentation charge: PSQ
     Using radial grid of 1279 points, 10 beta functions with: 
                l(1) =   0
                l(2) =   0
                l(3) =   1
                l(4) =   1
                l(5) =   1
                l(6) =   1
                l(7) =   2
                l(8) =   2
                l(9) =   2
               l(10) =   2
     Q(r) pseudized with 0 coefficients 



     Atomic displacements:
     There are   1 irreducible representations

     Representation     1      3 modes -T_1u G_15  G_4-  To be done



     Alpha used in Ewald sum =   2.8000
     PHONON       :     8.39s CPU         9.06s WALL



     Representation #  1 modes #   1  2  3

     Self-consistent Calculation
 
     Pert. #  1: Fermi energy shift (Ry) =     0.6893E-25     0.2978E-36
     Pert. #  2: Fermi energy shift (Ry) =    -0.1551E-24     0.1136E-36
     Pert. #  3: Fermi energy shift (Ry) =    -0.2068E-24    -0.1881E-36

      iter #   1 total cpu time :    13.6 secs   av.it.:   5.6
      thresh= 0.100E-01 alpha_mix =  0.700 |ddv_scf|^2 =  0.952E-06
 
     Pert. #  1: Fermi energy shift (Ry) =     0.0000E+00     0.4898E-39
     Pert. #  2: Fermi energy shift (Ry) =    -0.8616E-25     0.3673E-39
     Pert. #  3: Fermi energy shift (Ry) =     0.0000E+00     0.0000E+00

      iter #   2 total cpu time :    18.9 secs   av.it.:  10.2
      thresh= 0.976E-04 alpha_mix =  0.700 |ddv_scf|^2 =  0.470E-08
 
     Pert. #  1: Fermi energy shift (Ry) =     0.0000E+00     0.1224E-39
     Pert. #  2: Fermi energy shift (Ry) =     0.1723E-25     0.0000E+00
     Pert. #  3: Fermi energy shift (Ry) =     0.6893E-25     0.1224E-39

      iter #   3 total cpu time :    23.8 secs   av.it.:   9.8
      thresh= 0.686E-05 alpha_mix =  0.700 |ddv_scf|^2 =  0.134E-09
 
     Pert. #  1: Fermi energy shift (Ry) =    -0.6893E-25    -0.3061E-40
     Pert. #  2: Fermi energy shift (Ry) =     0.7755E-25    -0.1454E-39
     Pert. #  3: Fermi energy shift (Ry) =     0.1379E-24    -0.1224E-39

      iter #   4 total cpu time :    29.2 secs   av.it.:  10.4
      thresh= 0.116E-05 alpha_mix =  0.700 |ddv_scf|^2 =  0.669E-12
 
     Pert. #  1: Fermi energy shift (Ry) =     0.3447E-25    -0.1531E-40
     Pert. #  2: Fermi energy shift (Ry) =     0.8616E-25     0.1110E-39
     Pert. #  3: Fermi energy shift (Ry) =     0.1379E-24     0.3061E-40

      iter #   5 total cpu time :    33.8 secs   av.it.:   9.0
      thresh= 0.818E-07 alpha_mix =  0.700 |ddv_scf|^2 =  0.383E-15

     End of self-consistent calculation

     Convergence has been achieved 
 
     Number of q in the star =    1
     List of q in the star:
          1   0.000000000   0.000000000   0.000000000

     Diagonalizing the dynamical matrix

     q = (    0.000000000   0.000000000   0.000000000 ) 

 **************************************************************************
     omega(    1) =      -0.111068 [THz] =      -3.704819 [cm-1]
     omega(    2) =      -0.111068 [THz] =      -3.704819 [cm-1]
     omega(    3) =      -0.111068 [THz] =      -3.704819 [cm-1]
 **************************************************************************

     Mode symmetry, O_h (m-3m)  point group:

     omega(  1 -  3) =         -3.7  [cm-1]   --> T_1u G_15  G_4- I  
 
     PHONON       :    30.59s CPU        33.93s WALL

     INITIALIZATION: 
     phq_setup    :      0.01s CPU      0.01s WALL (       1 calls)
     phq_init     :      5.47s CPU      5.99s WALL (       1 calls)
 
     phq_init     :      5.47s CPU      5.99s WALL (       1 calls)
     set_drhoc    :      1.09s CPU      1.14s WALL (       3 calls)
     init_vloc    :      0.00s CPU      0.00s WALL (       1 calls)
     init_us_1    :      1.31s CPU      1.36s WALL (       1 calls)
     newd         :      0.12s CPU      0.12s WALL (       1 calls)
     dvanqq       :      0.58s CPU      0.60s WALL (       1 calls)
     drho         :      3.42s CPU      3.84s WALL (       1 calls)
 
     DYNAMICAL MATRIX:
     dynmat0      :      0.93s CPU      0.98s WALL (       1 calls)
     phqscf       :     22.20s CPU     24.85s WALL (       1 calls)
     dynmatrix    :      0.00s CPU      0.01s WALL (       1 calls)
 
     phqscf       :     22.20s CPU     24.85s WALL (       1 calls)
     solve_linter :     22.06s CPU     24.71s WALL (       1 calls)
     drhodv       :      0.13s CPU      0.14s WALL (       1 calls)
 
     dynmat0      :      0.93s CPU      0.98s WALL (       1 calls)
     dynmat_us    :      0.20s CPU      0.22s WALL (       1 calls)
     d2ionq       :      0.00s CPU      0.00s WALL (       1 calls)
     dynmatcc     :      0.73s CPU      0.76s WALL (       1 calls)
 
     dynmat_us    :      0.20s CPU      0.22s WALL (       1 calls)
     addusdynmat  :      0.02s CPU      0.02s WALL (       1 calls)
 
     phqscf       :     22.20s CPU     24.85s WALL (       1 calls)
     solve_linter :     22.06s CPU     24.71s WALL (       1 calls)
 
     solve_linter :     22.06s CPU     24.71s WALL (       1 calls)
     dvqpsi_us    :      0.85s CPU      0.88s WALL (      30 calls)
     ortho        :      0.32s CPU      0.29s WALL (     150 calls)
     cgsolve      :     12.04s CPU     13.20s WALL (     150 calls)
     incdrhoscf   :      1.05s CPU      1.18s WALL (     150 calls)
     addusddens   :      0.85s CPU      0.89s WALL (       6 calls)
     vpsifft      :      0.83s CPU      0.92s WALL (     120 calls)
     dv_of_drho   :      0.04s CPU      0.04s WALL (      15 calls)
     mix_pot      :      0.02s CPU      0.07s WALL (       5 calls)
     ef_shift     :      0.02s CPU      0.02s WALL (       6 calls)
     localdos     :      0.16s CPU      0.17s WALL (       1 calls)
     symdvscf     :      0.85s CPU      0.88s WALL (       5 calls)
     newdq        :      1.44s CPU      1.62s WALL (       5 calls)
     adddvscf     :      0.15s CPU      0.20s WALL (     120 calls)
     drhodvus     :      0.00s CPU      0.00s WALL (       1 calls)
 
     dvqpsi_us    :      0.85s CPU      0.88s WALL (      30 calls)
     dvqpsi_us_on :      0.40s CPU      0.44s WALL (      30 calls)
 
     cgsolve      :     12.04s CPU     13.20s WALL (     150 calls)
     ch_psi       :     11.84s CPU     12.93s WALL (    1730 calls)
 
     ch_psi       :     11.84s CPU     12.93s WALL (    1730 calls)
     h_psiq       :     10.28s CPU     11.18s WALL (    1730 calls)
     last         :      1.52s CPU      1.70s WALL (    1730 calls)
 
     h_psiq       :     10.28s CPU     11.18s WALL (    1730 calls)
     firstfft     :      4.06s CPU      4.57s WALL (   16464 calls)
     secondfft    :      3.80s CPU      3.99s WALL (   16464 calls)
     add_vuspsi   :      0.59s CPU      0.64s WALL (    1730 calls)
 
     incdrhoscf   :      1.05s CPU      1.18s WALL (     150 calls)
 
     drhodvus     :      0.00s CPU      0.00s WALL (       1 calls)
 
      General routines
     calbec       :      1.22s CPU      1.24s WALL (    4020 calls)
     fft          :      0.09s CPU      0.08s WALL (     185 calls)
     ffts         :      0.06s CPU      0.06s WALL (     306 calls)
     fftw         :      8.58s CPU      9.26s WALL (   81880 calls)
     cinterpolate :      0.04s CPU      0.03s WALL (      34 calls)
     davcio       :      0.08s CPU      0.88s WALL (     657 calls)
     write_rec    :      0.02s CPU      0.04s WALL (       6 calls)
 
 
     PHONON       :    30.59s CPU        33.93s WALL

 
   This run was terminated on:  16:40:23   7Dec2012            

=------------------------------------------------------------------------------=
   JOB DONE.
=------------------------------------------------------------------------------=
