
     Program PHONON v.5.0.99 (svn rev. 10851) starts on  9Apr2014 at 16: 4:23 

     This program is part of the open-source Quantum ESPRESSO suite
     for quantum simulation of materials; please cite
         "P. Giannozzi et al., J. Phys.:Condens. Matter 21 395502 (2009);
          URL http://www.quantum-espresso.org", 
     in publications or presentations arising from this work. More details at
     http://www.quantum-espresso.org/quote

     Parallel version (MPI), running on     4 processors
     R & G space division:  proc/nbgrp/npool/nimage =       4

   Info: using nr1, nr2, nr3 values from input

   Info: using nr1s, nr2s, nr3s values from input

     IMPORTANT: XC functional enforced from input :
     Exchange-correlation      =  SLA  PZ   NOGX NOGC ( 1  1  0  0 0)
     Any further DFT definition will be discarded
     Please, verify this is what you really want

               file Au.rel-pz-kjpaw.UPF: wavefunction(s)  6S 6P 6P 5D renormalized

     Parallelization info
     --------------------
     sticks:   dense  smooth     PW     G-vecs:    dense   smooth      PW
     Min         148      70     22                 2458      782     152
     Max         149      71     23                 2462      788     153
     Sum         595     283     91                 9841     3143     609


     Calculation of q =    1.0000000   0.0000000   0.0000000

     Parallelization info
     --------------------
     sticks:   dense  smooth     PW     G-vecs:    dense   smooth      PW
     Min         148      70     30                 2458      782     222
     Max         149      71     31                 2462      790     225
     Sum         595     283    121                 9841     3143     893



     bravais-lattice index     =            2
     lattice parameter (alat)  =       7.6660  a.u.
     unit-cell volume          =     112.6280 (a.u.)^3
     number of atoms/cell      =            1
     number of atomic types    =            1
     number of electrons       =        11.00
     number of Kohn-Sham states=           20
     kinetic-energy cutoff     =      35.0000  Ry
     charge density cutoff     =     300.0000  Ry
     Exchange-correlation      =  SLA  PZ   NOGX NOGC ( 1  1  0  0 0)
     Non magnetic calculation with spin-orbit


     celldm(1)=   7.666000  celldm(2)=   0.000000  celldm(3)=   0.000000
     celldm(4)=   0.000000  celldm(5)=   0.000000  celldm(6)=   0.000000

     crystal axes: (cart. coord. in units of alat)
               a(1) = (  -0.500000   0.000000   0.500000 )  
               a(2) = (   0.000000   0.500000   0.500000 )  
               a(3) = (  -0.500000   0.500000   0.000000 )  

     reciprocal axes: (cart. coord. in units 2 pi/alat)
               b(1) = ( -1.000000 -1.000000  1.000000 )  
               b(2) = (  1.000000  1.000000  1.000000 )  
               b(3) = ( -1.000000  1.000000 -1.000000 )  


     PseudoPot. # 1 for Au read from file:
     /home/espresso/SVN/espresso/pseudo/Au.rel-pz-kjpaw.UPF
     MD5 check sum: 5d4760394a1c1c8d002f32975df2ea42
     Pseudo is Projector augmented-wave + core cor, Zval = 11.0
     Generated using "atomic" code by A. Dal Corso  (Quantum ESPRESSO distribution)
     Shape of augmentation charge: PSQ
     Using radial grid of 1279 points, 10 beta functions with: 
                l(1) =   0
                l(2) =   0
                l(3) =   1
                l(4) =   1
                l(5) =   1
                l(6) =   1
                l(7) =   2
                l(8) =   2
                l(9) =   2
               l(10) =   2
     Q(r) pseudized with 0 coefficients 


     atomic species   valence    mass     pseudopotential
        Au            11.00   196.96655     Au( 1.00)

     48 Sym. Ops., with inversion, found



   Cartesian axes

     site n.     atom                  positions (alat units)
         1           Au  tau(   1) = (   0.0000000   0.0000000   0.0000000  )

     number of k points=    40  Methfessel-Paxton smearing, width (Ry)=  0.0400
                       cart. coord. in units 2pi/alat
        k(    1) = (  -0.1250000   0.1250000   0.1250000), wk =   0.0312500
        k(    2) = (   0.8750000   0.1250000   0.1250000), wk =   0.0000000
        k(    3) = (  -0.3750000   0.3750000  -0.1250000), wk =   0.0625000
        k(    4) = (   0.6250000   0.3750000  -0.1250000), wk =   0.0000000
        k(    5) = (   0.3750000  -0.3750000   0.6250000), wk =   0.0625000
        k(    6) = (   1.3750000  -0.3750000   0.6250000), wk =   0.0000000
        k(    7) = (   0.1250000  -0.1250000   0.3750000), wk =   0.0625000
        k(    8) = (   1.1250000  -0.1250000   0.3750000), wk =   0.0000000
        k(    9) = (  -0.1250000   0.6250000   0.1250000), wk =   0.0625000
        k(   10) = (   0.8750000   0.6250000   0.1250000), wk =   0.0000000
        k(   11) = (   0.6250000  -0.1250000   0.8750000), wk =   0.0625000
        k(   12) = (   1.6250000  -0.1250000   0.8750000), wk =   0.0000000
        k(   13) = (   0.3750000   0.1250000   0.6250000), wk =   0.0625000
        k(   14) = (   1.3750000   0.1250000   0.6250000), wk =   0.0000000
        k(   15) = (  -0.1250000  -0.8750000   0.1250000), wk =   0.0625000
        k(   16) = (   0.8750000  -0.8750000   0.1250000), wk =   0.0000000
        k(   17) = (  -0.3750000   0.3750000   0.3750000), wk =   0.0312500
        k(   18) = (   0.6250000   0.3750000   0.3750000), wk =   0.0000000
        k(   19) = (   0.3750000  -0.3750000   1.1250000), wk =   0.0625000
        k(   20) = (   1.3750000  -0.3750000   1.1250000), wk =   0.0000000
        k(   21) = (  -0.1250000  -0.3750000   0.3750000), wk =   0.0312500
        k(   22) = (   0.8750000  -0.3750000   0.3750000), wk =   0.0000000
        k(   23) = (   0.6250000   0.3750000  -0.3750000), wk =   0.0312500
        k(   24) = (   1.6250000   0.3750000  -0.3750000), wk =   0.0000000
        k(   25) = (   0.3750000   0.1250000  -0.1250000), wk =   0.0312500
        k(   26) = (   1.3750000   0.1250000  -0.1250000), wk =   0.0000000
        k(   27) = (   0.6250000   0.1250000  -0.1250000), wk =   0.0312500
        k(   28) = (   1.6250000   0.1250000  -0.1250000), wk =   0.0000000
        k(   29) = (  -0.1250000   0.8750000   0.6250000), wk =   0.0625000
        k(   30) = (   0.8750000   0.8750000   0.6250000), wk =   0.0000000
        k(   31) = (   0.8750000   0.6250000  -0.1250000), wk =   0.0625000
        k(   32) = (   1.8750000   0.6250000  -0.1250000), wk =   0.0000000
        k(   33) = (   0.1250000   0.6250000   0.3750000), wk =   0.0625000
        k(   34) = (   1.1250000   0.6250000   0.3750000), wk =   0.0000000
        k(   35) = (   0.6250000   0.3750000   0.1250000), wk =   0.0625000
        k(   36) = (   1.6250000   0.3750000   0.1250000), wk =   0.0000000
        k(   37) = (  -0.8750000   0.1250000  -0.1250000), wk =   0.0312500
        k(   38) = (   0.1250000   0.1250000  -0.1250000), wk =   0.0000000
        k(   39) = (   1.1250000   0.3750000  -0.3750000), wk =   0.0312500
        k(   40) = (   2.1250000   0.3750000  -0.3750000), wk =   0.0000000

     Dense  grid:     9841 G-vectors     FFT dimensions: (  30,  30,  30)

     Smooth grid:     3143 G-vectors     FFT dimensions: (  24,  24,  24)

     Largest allocated arrays     est. size (Mb)     dimensions
        Kohn-Sham Wavefunctions         0.06 Mb     (     212,   20)
        NL pseudopotentials             0.05 Mb     (     106,   34)
        Each V/rho on FFT grid          0.11 Mb     (    7200)
        Each G-vector array             0.02 Mb     (    2462)
        G-vector shells                 0.00 Mb     (     149)
     Largest temporary arrays     est. size (Mb)     dimensions
        Auxiliary wavefunctions         0.26 Mb     (     212,   80)
        Each subspace H/S matrix        0.10 Mb     (      80,   80)
        Each <psi_i|beta_j> matrix      0.02 Mb     (      34,   2,   20)

     The potential is recalculated from file :
     /home/espresso/SVN/espresso/tempdir/_ph0/gold.save/charge-density.dat

     Starting wfc are   18 atomic +    2 random wfc
     Checking if some PAW data can be deallocated... 

     Band Structure Calculation
     Davidson diagonalization with overlap

     ethr =  9.09E-11,  avg # of iterations = 14.3

     total cpu time spent up to now is        6.4 secs

     End of band structure calculation

          k =-0.1250 0.1250 0.1250 (   381 PWs)   bands (ev):

     6.4062   6.4062  10.6221  10.6221  10.7066  10.7066  11.9334  11.9334
    12.9482  12.9482  13.1560  13.1560  31.9172  31.9172  32.8941  32.8941
    35.5687  35.5687  36.5512  36.5512

          k = 0.8750 0.1250 0.1250 (   400 PWs)   bands (ev):

     8.9336   8.9336   9.2538   9.2538  12.9210  12.9210  13.6018  13.6018
    14.5409  14.5409  17.1198  17.1198  22.6293  22.6293  25.5058  25.5058
    27.5802  27.5802  34.2842  34.2842

          k =-0.3750 0.3750-0.1250 (   393 PWs)   bands (ev):

     8.5027   8.5027  10.5479  10.5479  10.9416  10.9416  12.1382  12.1382
    12.8982  12.8982  14.3202  14.3202  25.8425  25.8425  30.6839  30.6839
    33.8623  33.8623  37.4672  37.4672

          k = 0.6250 0.3750-0.1250 (   397 PWs)   bands (ev):

     9.4157   9.4157  10.3807  10.3807  10.8935  10.8935  12.4891  12.4891
    13.6561  13.6561  16.0180  16.0180  23.0412  23.0412  28.0460  28.0460
    30.9462  30.9462  35.4363  35.4363

          k = 0.3750-0.3750 0.6250 (   391 PWs)   bands (ev):

     8.7866   8.7866  10.5079  10.5079  11.7133  11.7133  12.5208  12.5208
    14.1841  14.1841  16.3365  16.3365  19.7669  19.7669  30.7327  30.7327
    32.1095  32.1095  33.2173  33.2173

          k = 1.3750-0.3750 0.6250 (   391 PWs)   bands (ev):

     8.7866   8.7866  10.5079  10.5079  11.7133  11.7133  12.5208  12.5208
    14.1841  14.1841  16.3365  16.3365  19.7669  19.7669  30.7327  30.7327
    32.1095  32.1095  33.2173  33.2173

          k = 0.1250-0.1250 0.3750 (   384 PWs)   bands (ev):

     7.6801   7.6801  10.3029  10.3029  10.9489  10.9489  12.2875  12.2875
    12.7619  12.7619  13.5563  13.5563  29.2219  29.2219  33.0612  33.0612
    33.3980  33.3980  35.8539  35.8539

          k = 1.1250-0.1250 0.3750 (   393 PWs)   bands (ev):

     9.5612   9.5612   9.9956   9.9956  11.3470  11.3470  13.0245  13.0245
    14.2397  14.2397  19.1959  19.1959  21.1711  21.1711  24.8293  24.8293
    27.4712  27.4712  36.3249  36.3249

          k =-0.1250 0.6250 0.1250 (   397 PWs)   bands (ev):

     9.0441   9.0441   9.7126   9.7126  11.4267  11.4267  12.8710  12.8710
    13.7613  13.7613  14.5224  14.5224  26.0550  26.0550  29.3971  29.3971
    30.6294  30.6294  33.8515  33.8515

          k = 0.8750 0.6250 0.1250 (   393 PWs)   bands (ev):

     9.5612   9.5612   9.9956   9.9956  11.3470  11.3470  13.0245  13.0245
    14.2397  14.2397  19.1959  19.1959  21.1711  21.1711  24.8293  24.8293
    27.4712  27.4712  36.3249  36.3249

          k = 0.6250-0.1250 0.8750 (   393 PWs)   bands (ev):

     9.5612   9.5612   9.9956   9.9956  11.3470  11.3470  13.0245  13.0245
    14.2397  14.2397  19.1959  19.1959  21.1711  21.1711  24.8293  24.8293
    27.4712  27.4712  36.3249  36.3249

          k = 1.6250-0.1250 0.8750 (   393 PWs)   bands (ev):

     9.5612   9.5612   9.9956   9.9956  11.3470  11.3470  13.0245  13.0245
    14.2397  14.2397  19.1959  19.1959  21.1711  21.1711  24.8293  24.8293
    27.4712  27.4712  36.3249  36.3249

          k = 0.3750 0.1250 0.6250 (   397 PWs)   bands (ev):

     9.4157   9.4157  10.3807  10.3807  10.8935  10.8935  12.4891  12.4891
    13.6561  13.6561  16.0180  16.0180  23.0412  23.0412  28.0460  28.0460
    30.9462  30.9462  35.4363  35.4363

          k = 1.3750 0.1250 0.6250 (   396 PWs)   bands (ev):

     9.5213   9.5213  10.3476  10.3476  11.4231  11.4231  12.4137  12.4137
    13.8023  13.8023  17.9831  17.9831  20.8995  20.8995  25.9884  25.9884
    31.7109  31.7109  33.3295  33.3295

          k =-0.1250-0.8750 0.1250 (   400 PWs)   bands (ev):

     8.9336   8.9336   9.2538   9.2538  12.9210  12.9210  13.6018  13.6018
    14.5409  14.5409  17.1198  17.1198  22.6293  22.6293  25.5058  25.5058
    27.5802  27.5802  34.2842  34.2842

          k = 0.8750-0.8750 0.1250 (   400 PWs)   bands (ev):

     8.9336   8.9336   9.2538   9.2538  12.9210  12.9210  13.6018  13.6018
    14.5409  14.5409  17.1198  17.1198  22.6293  22.6293  25.5058  25.5058
    27.5802  27.5802  34.2842  34.2842

          k =-0.3750 0.3750 0.3750 (   395 PWs)   bands (ev):

     8.3735   8.3735  10.6002  10.6002  11.8247  11.8247  12.4556  12.4556
    13.6699  13.6699  14.1630  14.1630  22.3390  22.3390  31.6435  31.6435
    33.9030  33.9030  35.6463  35.6463

          k = 0.6250 0.3750 0.3750 (   391 PWs)   bands (ev):

     8.7866   8.7866  10.5079  10.5079  11.7133  11.7133  12.5208  12.5208
    14.1841  14.1841  16.3365  16.3365  19.7669  19.7669  30.7327  30.7327
    32.1095  32.1095  33.2173  33.2173

          k = 0.3750-0.3750 1.1250 (   396 PWs)   bands (ev):

     9.5213   9.5213  10.3476  10.3476  11.4231  11.4231  12.4137  12.4137
    13.8023  13.8023  17.9831  17.9831  20.8995  20.8995  25.9884  25.9884
    31.7109  31.7109  33.3295  33.3295

          k = 1.3750-0.3750 1.1250 (   397 PWs)   bands (ev):

     9.4157   9.4157  10.3807  10.3807  10.8935  10.8935  12.4891  12.4891
    13.6561  13.6561  16.0180  16.0180  23.0412  23.0412  28.0460  28.0460
    30.9462  30.9462  35.4363  35.4363

          k =-0.1250-0.3750 0.3750 (   393 PWs)   bands (ev):

     8.5027   8.5027  10.5479  10.5479  10.9416  10.9416  12.1382  12.1382
    12.8982  12.8982  14.3202  14.3202  25.8425  25.8425  30.6839  30.6839
    33.8623  33.8623  37.4672  37.4672

          k = 0.8750-0.3750 0.3750 (   396 PWs)   bands (ev):

     9.5213   9.5213  10.3476  10.3476  11.4231  11.4231  12.4137  12.4137
    13.8023  13.8023  17.9831  17.9831  20.8995  20.8995  25.9884  25.9884
    31.7109  31.7109  33.3295  33.3295

          k = 0.6250 0.3750-0.3750 (   391 PWs)   bands (ev):

     8.7866   8.7866  10.5079  10.5079  11.7133  11.7133  12.5208  12.5208
    14.1841  14.1841  16.3365  16.3365  19.7669  19.7669  30.7327  30.7327
    32.1095  32.1095  33.2173  33.2173

          k = 1.6250 0.3750-0.3750 (   395 PWs)   bands (ev):

     8.3735   8.3735  10.6002  10.6002  11.8247  11.8247  12.4556  12.4556
    13.6699  13.6699  14.1630  14.1630  22.3390  22.3390  31.6435  31.6435
    33.9030  33.9030  35.6463  35.6463

          k = 0.3750 0.1250-0.1250 (   384 PWs)   bands (ev):

     7.6801   7.6801  10.3029  10.3029  10.9489  10.9489  12.2875  12.2875
    12.7619  12.7619  13.5563  13.5563  29.2219  29.2219  33.0612  33.0612
    33.3980  33.3980  35.8539  35.8539

          k = 1.3750 0.1250-0.1250 (   397 PWs)   bands (ev):

     9.0441   9.0441   9.7126   9.7126  11.4267  11.4267  12.8710  12.8710
    13.7613  13.7613  14.5224  14.5224  26.0550  26.0550  29.3971  29.3971
    30.6294  30.6294  33.8515  33.8515

          k = 0.6250 0.1250-0.1250 (   397 PWs)   bands (ev):

     9.0441   9.0441   9.7126   9.7126  11.4267  11.4267  12.8710  12.8710
    13.7613  13.7613  14.5224  14.5224  26.0550  26.0550  29.3971  29.3971
    30.6294  30.6294  33.8515  33.8515

          k = 1.6250 0.1250-0.1250 (   384 PWs)   bands (ev):

     7.6801   7.6801  10.3029  10.3029  10.9489  10.9489  12.2875  12.2875
    12.7619  12.7619  13.5563  13.5563  29.2219  29.2219  33.0612  33.0612
    33.3980  33.3980  35.8539  35.8539

          k =-0.1250 0.8750 0.6250 (   393 PWs)   bands (ev):

     9.5612   9.5612   9.9956   9.9956  11.3470  11.3470  13.0245  13.0245
    14.2397  14.2397  19.1959  19.1959  21.1711  21.1711  24.8293  24.8293
    27.4712  27.4712  36.3249  36.3249

          k = 0.8750 0.8750 0.6250 (   384 PWs)   bands (ev):

     7.6801   7.6801  10.3029  10.3029  10.9489  10.9489  12.2875  12.2875
    12.7619  12.7619  13.5563  13.5563  29.2219  29.2219  33.0612  33.0612
    33.3980  33.3980  35.8539  35.8539

          k = 0.8750 0.6250-0.1250 (   393 PWs)   bands (ev):

     9.5612   9.5612   9.9956   9.9956  11.3470  11.3470  13.0245  13.0245
    14.2397  14.2397  19.1959  19.1959  21.1711  21.1711  24.8293  24.8293
    27.4712  27.4712  36.3249  36.3249

          k = 1.8750 0.6250-0.1250 (   397 PWs)   bands (ev):

     9.0441   9.0441   9.7126   9.7126  11.4267  11.4267  12.8710  12.8710
    13.7613  13.7613  14.5224  14.5224  26.0550  26.0550  29.3971  29.3971
    30.6294  30.6294  33.8515  33.8515

          k = 0.1250 0.6250 0.3750 (   397 PWs)   bands (ev):

     9.4157   9.4157  10.3807  10.3807  10.8935  10.8935  12.4891  12.4891
    13.6561  13.6561  16.0180  16.0180  23.0412  23.0412  28.0460  28.0460
    30.9462  30.9462  35.4363  35.4363

          k = 1.1250 0.6250 0.3750 (   397 PWs)   bands (ev):

     9.4157   9.4157  10.3807  10.3807  10.8935  10.8935  12.4891  12.4891
    13.6561  13.6561  16.0180  16.0180  23.0412  23.0412  28.0460  28.0460
    30.9462  30.9462  35.4363  35.4363

          k = 0.6250 0.3750 0.1250 (   397 PWs)   bands (ev):

     9.4157   9.4157  10.3807  10.3807  10.8935  10.8935  12.4891  12.4891
    13.6561  13.6561  16.0180  16.0180  23.0412  23.0412  28.0460  28.0460
    30.9462  30.9462  35.4363  35.4363

          k = 1.6250 0.3750 0.1250 (   393 PWs)   bands (ev):

     8.5027   8.5027  10.5479  10.5479  10.9416  10.9416  12.1382  12.1382
    12.8982  12.8982  14.3202  14.3202  25.8425  25.8425  30.6839  30.6839
    33.8623  33.8623  37.4672  37.4672

          k =-0.8750 0.1250-0.1250 (   400 PWs)   bands (ev):

     8.9336   8.9336   9.2538   9.2538  12.9210  12.9210  13.6018  13.6018
    14.5409  14.5409  17.1198  17.1198  22.6293  22.6293  25.5058  25.5058
    27.5802  27.5802  34.2842  34.2842

          k = 0.1250 0.1250-0.1250 (   381 PWs)   bands (ev):

     6.4062   6.4062  10.6221  10.6221  10.7066  10.7066  11.9334  11.9334
    12.9482  12.9482  13.1560  13.1560  31.9172  31.9172  32.8941  32.8941
    35.5687  35.5687  36.5512  36.5512

          k = 1.1250 0.3750-0.3750 (   396 PWs)   bands (ev):

     9.5213   9.5213  10.3476  10.3476  11.4231  11.4231  12.4137  12.4137
    13.8023  13.8023  17.9831  17.9831  20.8995  20.8995  25.9884  25.9884
    31.7109  31.7109  33.3295  33.3295

          k = 2.1250 0.3750-0.3750 (   393 PWs)   bands (ev):

     8.5027   8.5027  10.5479  10.5479  10.9416  10.9416  12.1382  12.1382
    12.8982  12.8982  14.3202  14.3202  25.8425  25.8425  30.6839  30.6839
    33.8623  33.8623  37.4672  37.4672

     the Fermi energy is    16.1640 ev

     Writing output data file gold.save

                                                                                

     bravais-lattice index     =            2
     lattice parameter (alat)  =       7.6660  a.u.
     unit-cell volume          =     112.6280 (a.u.)^3
     number of atoms/cell      =            1
     number of atomic types    =            1
     kinetic-energy cut-off    =      35.0000  Ry
     charge density cut-off    =     300.0000  Ry
     convergence threshold     =      1.0E-14
     beta                      =       0.7000
     number of iterations used =            4
     Exchange-correlation      =  SLA  PZ   NOGX NOGC ( 1  1  0  0 0)
     Non magnetic calculation with spin-orbit

     celldm(1)=    7.66600  celldm(2)=    0.00000  celldm(3)=    0.00000
     celldm(4)=    0.00000  celldm(5)=    0.00000  celldm(6)=    0.00000

     crystal axes: (cart. coord. in units of alat)
               a(1) = ( -0.5000  0.0000  0.5000 )  
               a(2) = (  0.0000  0.5000  0.5000 )  
               a(3) = ( -0.5000  0.5000  0.0000 )  

     reciprocal axes: (cart. coord. in units 2 pi/alat)
               b(1) = ( -1.0000 -1.0000  1.0000 )  
               b(2) = (  1.0000  1.0000  1.0000 )  
               b(3) = ( -1.0000  1.0000 -1.0000 )  


     Atoms inside the unit cell: 

     Cartesian axes

     site n.  atom      mass           positions (alat units)
        1     Au 196.9666   tau(    1) = (    0.00000    0.00000    0.00000  )

     Computing dynamical matrix for 
                    q = (   1.0000000   0.0000000   0.0000000 )

     17 Sym.Ops. (with q -> -q+G )


     G cutoff =  446.5799  (   2462 G-vectors)     FFT grid: ( 30, 30, 30)
     G cutoff =  208.4039  (    782 G-vectors)  smooth grid: ( 24, 24, 24)

     number of k points=    40  Methfessel-Paxton smearing, width (Ry)=  0.0400
                       cart. coord. in units 2pi/alat
        k(    1) = (  -0.1250000   0.1250000   0.1250000), wk =   0.0312500
        k(    2) = (   0.8750000   0.1250000   0.1250000), wk =   0.0000000
        k(    3) = (  -0.3750000   0.3750000  -0.1250000), wk =   0.0625000
        k(    4) = (   0.6250000   0.3750000  -0.1250000), wk =   0.0000000
        k(    5) = (   0.3750000  -0.3750000   0.6250000), wk =   0.0625000
        k(    6) = (   1.3750000  -0.3750000   0.6250000), wk =   0.0000000
        k(    7) = (   0.1250000  -0.1250000   0.3750000), wk =   0.0625000
        k(    8) = (   1.1250000  -0.1250000   0.3750000), wk =   0.0000000
        k(    9) = (  -0.1250000   0.6250000   0.1250000), wk =   0.0625000
        k(   10) = (   0.8750000   0.6250000   0.1250000), wk =   0.0000000
        k(   11) = (   0.6250000  -0.1250000   0.8750000), wk =   0.0625000
        k(   12) = (   1.6250000  -0.1250000   0.8750000), wk =   0.0000000
        k(   13) = (   0.3750000   0.1250000   0.6250000), wk =   0.0625000
        k(   14) = (   1.3750000   0.1250000   0.6250000), wk =   0.0000000
        k(   15) = (  -0.1250000  -0.8750000   0.1250000), wk =   0.0625000
        k(   16) = (   0.8750000  -0.8750000   0.1250000), wk =   0.0000000
        k(   17) = (  -0.3750000   0.3750000   0.3750000), wk =   0.0312500
        k(   18) = (   0.6250000   0.3750000   0.3750000), wk =   0.0000000
        k(   19) = (   0.3750000  -0.3750000   1.1250000), wk =   0.0625000
        k(   20) = (   1.3750000  -0.3750000   1.1250000), wk =   0.0000000
        k(   21) = (  -0.1250000  -0.3750000   0.3750000), wk =   0.0312500
        k(   22) = (   0.8750000  -0.3750000   0.3750000), wk =   0.0000000
        k(   23) = (   0.6250000   0.3750000  -0.3750000), wk =   0.0312500
        k(   24) = (   1.6250000   0.3750000  -0.3750000), wk =   0.0000000
        k(   25) = (   0.3750000   0.1250000  -0.1250000), wk =   0.0312500
        k(   26) = (   1.3750000   0.1250000  -0.1250000), wk =   0.0000000
        k(   27) = (   0.6250000   0.1250000  -0.1250000), wk =   0.0312500
        k(   28) = (   1.6250000   0.1250000  -0.1250000), wk =   0.0000000
        k(   29) = (  -0.1250000   0.8750000   0.6250000), wk =   0.0625000
        k(   30) = (   0.8750000   0.8750000   0.6250000), wk =   0.0000000
        k(   31) = (   0.8750000   0.6250000  -0.1250000), wk =   0.0625000
        k(   32) = (   1.8750000   0.6250000  -0.1250000), wk =   0.0000000
        k(   33) = (   0.1250000   0.6250000   0.3750000), wk =   0.0625000
        k(   34) = (   1.1250000   0.6250000   0.3750000), wk =   0.0000000
        k(   35) = (   0.6250000   0.3750000   0.1250000), wk =   0.0625000
        k(   36) = (   1.6250000   0.3750000   0.1250000), wk =   0.0000000
        k(   37) = (  -0.8750000   0.1250000  -0.1250000), wk =   0.0312500
        k(   38) = (   0.1250000   0.1250000  -0.1250000), wk =   0.0000000
        k(   39) = (   1.1250000   0.3750000  -0.3750000), wk =   0.0312500
        k(   40) = (   2.1250000   0.3750000  -0.3750000), wk =   0.0000000

     PseudoPot. # 1 for Au read from file:
     /home/espresso/SVN/espresso/pseudo/Au.rel-pz-kjpaw.UPF
     MD5 check sum: 5d4760394a1c1c8d002f32975df2ea42
     Pseudo is Projector augmented-wave + core cor, Zval = 11.0
     Generated using "atomic" code by A. Dal Corso  (Quantum ESPRESSO distribution)
     Shape of augmentation charge: PSQ
     Using radial grid of 1279 points, 10 beta functions with: 
                l(1) =   0
                l(2) =   0
                l(3) =   1
                l(4) =   1
                l(5) =   1
                l(6) =   1
                l(7) =   2
                l(8) =   2
                l(9) =   2
               l(10) =   2
     Q(r) pseudized with 0 coefficients 


     Mode symmetry, D_4h(4/mmm) point group:


     Atomic displacements:
     There are   2 irreducible representations

     Representation     1      1 modes -A_2u X_4' M_4'  To be done

     Representation     2      2 modes -E_u  X_5' M_5'  To be done



     Alpha used in Ewald sum =   2.8000
     PHONON       :    11.26s CPU        11.32s WALL



     Representation #  1 mode #   1

     Self-consistent Calculation

      iter #   1 total cpu time :    13.2 secs   av.it.:   6.9
      thresh= 1.000E-02 alpha_mix =  0.700 |ddv_scf|^2 =  3.537E-04

      iter #   2 total cpu time :    15.1 secs   av.it.:   9.1
      thresh= 1.881E-03 alpha_mix =  0.700 |ddv_scf|^2 =  2.743E-04

      iter #   3 total cpu time :    16.9 secs   av.it.:   8.3
      thresh= 1.656E-03 alpha_mix =  0.700 |ddv_scf|^2 =  5.396E-09

      iter #   4 total cpu time :    18.8 secs   av.it.:   9.1
      thresh= 7.345E-06 alpha_mix =  0.700 |ddv_scf|^2 =  2.441E-10

      iter #   5 total cpu time :    20.7 secs   av.it.:   8.9
      thresh= 1.563E-06 alpha_mix =  0.700 |ddv_scf|^2 =  8.529E-13

      iter #   6 total cpu time :    22.6 secs   av.it.:   8.8
      thresh= 9.235E-08 alpha_mix =  0.700 |ddv_scf|^2 =  2.715E-15

     End of self-consistent calculation

     Convergence has been achieved 


     Representation #  2 modes #   2  3

     Self-consistent Calculation

      iter #   1 total cpu time :    26.2 secs   av.it.:   6.3
      thresh= 1.000E-02 alpha_mix =  0.700 |ddv_scf|^2 =  7.593E-06

      iter #   2 total cpu time :    30.1 secs   av.it.:  10.0
      thresh= 2.756E-04 alpha_mix =  0.700 |ddv_scf|^2 =  6.010E-07

      iter #   3 total cpu time :    34.0 secs   av.it.:   9.7
      thresh= 7.752E-05 alpha_mix =  0.700 |ddv_scf|^2 =  4.984E-10

      iter #   4 total cpu time :    37.9 secs   av.it.:  10.1
      thresh= 2.233E-06 alpha_mix =  0.700 |ddv_scf|^2 =  2.512E-12

      iter #   5 total cpu time :    41.6 secs   av.it.:   9.2
      thresh= 1.585E-07 alpha_mix =  0.700 |ddv_scf|^2 =  3.207E-14

      iter #   6 total cpu time :    45.3 secs   av.it.:   9.1
      thresh= 1.791E-08 alpha_mix =  0.700 |ddv_scf|^2 =  3.177E-16

     End of self-consistent calculation

     Convergence has been achieved 

     Number of q in the star =    3
     List of q in the star:
          1   1.000000000   0.000000000   0.000000000
          2   0.000000000   0.000000000   1.000000000
          3   0.000000000   1.000000000   0.000000000

     Diagonalizing the dynamical matrix

     q = (    1.000000000   0.000000000   0.000000000 ) 

 **************************************************************************
     freq (    1) =       2.575901 [THz] =      85.922824 [cm-1]
     freq (    2) =       2.575901 [THz] =      85.922824 [cm-1]
     freq (    3) =       4.652097 [THz] =     155.177247 [cm-1]
 **************************************************************************

     Mode symmetry, D_4h(4/mmm) point group:

     freq (  1 -  2) =         85.9  [cm-1]   --> E_u  X_5' M_5'     
     freq (  3 -  3) =        155.2  [cm-1]   --> A_2u X_4' M_4'     

     init_run     :      0.79s CPU      0.80s WALL (       1 calls)
     electrons    :      5.56s CPU      5.59s WALL (       1 calls)

     Called by init_run:
     wfcinit      :      0.00s CPU      0.00s WALL (       1 calls)
     potinit      :      0.15s CPU      0.15s WALL (       1 calls)

     Called by electrons:
     c_bands      :      5.55s CPU      5.58s WALL (       1 calls)
     v_of_rho     :      0.00s CPU      0.00s WALL (       2 calls)
     newd         :      0.12s CPU      0.12s WALL (       2 calls)

     Called by c_bands:
     init_us_2    :      0.03s CPU      0.04s WALL (     400 calls)
     cegterg      :      5.07s CPU      5.09s WALL (      40 calls)

     Called by *egterg:
     h_psi        :      3.44s CPU      3.47s WALL (     651 calls)
     s_psi        :      2.53s CPU      2.57s WALL (    8983 calls)
     g_psi        :      0.02s CPU      0.02s WALL (     571 calls)
     cdiaghg      :      0.98s CPU      0.99s WALL (     611 calls)

     Called by h_psi:
     add_vuspsi   :      1.26s CPU      1.27s WALL (    4637 calls)

     General routines
     calbec       :      2.23s CPU      2.20s WALL (    9923 calls)
     fft          :      0.05s CPU      0.05s WALL (     189 calls)
     ffts         :      0.01s CPU      0.02s WALL (     116 calls)
     fftw         :     20.70s CPU     20.74s WALL (  220964 calls)
     interpolate  :      0.01s CPU      0.01s WALL (       8 calls)
     davcio       :      0.01s CPU      0.07s WALL (    1823 calls)

     Parallel routines
     fft_scatter  :      3.64s CPU      3.16s WALL (  221269 calls)

     PAW routines
     PAW_pot      :      0.28s CPU      0.28s WALL (       2 calls)

     PHONON       :    45.01s CPU        45.42s WALL

     INITIALIZATION: 
     phq_setup    :      0.01s CPU      0.01s WALL (       1 calls)
     phq_init     :      3.12s CPU      3.12s WALL (       1 calls)

     phq_init     :      3.12s CPU      3.12s WALL (       1 calls)
     set_drhoc    :      0.33s CPU      0.33s WALL (       3 calls)
     init_vloc    :      0.01s CPU      0.01s WALL (       2 calls)
     init_us_1    :      0.90s CPU      0.90s WALL (       2 calls)
     newd         :      0.12s CPU      0.12s WALL (       2 calls)
     dvanqq       :      0.26s CPU      0.26s WALL (       1 calls)
     drho         :      2.15s CPU      2.15s WALL (       1 calls)

     DYNAMICAL MATRIX:
     dynmat0      :      0.49s CPU      0.49s WALL (       1 calls)
     phqscf       :     33.75s CPU     34.09s WALL (       1 calls)
     dynmatrix    :      0.01s CPU      0.01s WALL (       1 calls)

     phqscf       :     33.75s CPU     34.09s WALL (       1 calls)
     solve_linter :     33.57s CPU     33.90s WALL (       2 calls)
     drhodv       :      0.18s CPU      0.18s WALL (       2 calls)

     dynmat0      :      0.49s CPU      0.49s WALL (       1 calls)
     dynmat_us    :      0.26s CPU      0.26s WALL (       1 calls)
     d2ionq       :      0.00s CPU      0.00s WALL (       1 calls)
     dynmatcc     :      0.22s CPU      0.22s WALL (       1 calls)

     dynmat_us    :      0.26s CPU      0.26s WALL (       1 calls)
     addusdynmat  :      0.02s CPU      0.02s WALL (       1 calls)

     phqscf       :     33.75s CPU     34.09s WALL (       1 calls)
     solve_linter :     33.57s CPU     33.90s WALL (       2 calls)

     solve_linter :     33.57s CPU     33.90s WALL (       2 calls)
     dvqpsi_us    :      1.31s CPU      1.32s WALL (      60 calls)
     ortho        :      0.45s CPU      0.47s WALL (     360 calls)
     cgsolve      :     21.74s CPU     21.96s WALL (     360 calls)
     incdrhoscf   :      1.90s CPU      1.91s WALL (     360 calls)
     addusddens   :      0.97s CPU      0.96s WALL (      14 calls)
     vpsifft      :      1.38s CPU      1.38s WALL (     300 calls)
     dv_of_drho   :      0.02s CPU      0.02s WALL (      18 calls)
     mix_pot      :      0.01s CPU      0.03s WALL (      12 calls)
     psymdvscf    :      0.38s CPU      0.38s WALL (      12 calls)
     newdq        :      1.15s CPU      1.15s WALL (      12 calls)
     adddvscf     :      0.30s CPU      0.30s WALL (     300 calls)
     drhodvus     :      0.00s CPU      0.00s WALL (       2 calls)

     dvqpsi_us    :      1.31s CPU      1.32s WALL (      60 calls)
     dvqpsi_us_on :      0.84s CPU      0.85s WALL (      60 calls)

     cgsolve      :     21.74s CPU     21.96s WALL (     360 calls)
     ch_psi       :     21.50s CPU     21.71s WALL (    3986 calls)

     ch_psi       :     21.50s CPU     21.71s WALL (    3986 calls)
     h_psiq       :     18.98s CPU     19.20s WALL (    3986 calls)
     last         :      2.47s CPU      2.46s WALL (    3986 calls)

     h_psiq       :     18.98s CPU     19.20s WALL (    3986 calls)
     firstfft     :      8.06s CPU      8.17s WALL (   38600 calls)
     secondfft    :      7.34s CPU      7.36s WALL (   38600 calls)
     add_vuspsi   :      1.26s CPU      1.27s WALL (    4637 calls)

     incdrhoscf   :      1.90s CPU      1.91s WALL (     360 calls)

     drhodvus     :      0.00s CPU      0.00s WALL (       2 calls)

      General routines
     calbec       :      2.23s CPU      2.20s WALL (    9923 calls)
     fft          :      0.05s CPU      0.05s WALL (     189 calls)
     ffts         :      0.01s CPU      0.02s WALL (     116 calls)
     fftw         :     20.70s CPU     20.74s WALL (  220964 calls)
     cinterpolate :      0.01s CPU      0.02s WALL (      39 calls)
     davcio       :      0.01s CPU      0.07s WALL (    1823 calls)
     write_rec    :      0.02s CPU      0.02s WALL (      14 calls)


     PHONON       :    45.01s CPU        45.42s WALL


   This run was terminated on:  16: 5: 9   9Apr2014            

=------------------------------------------------------------------------------=
   JOB DONE.
=------------------------------------------------------------------------------=
