
     Program PHONON v.6.beta (svn rev. 13009) starts on 23Sep2016 at 13:43:12 

     This program is part of the open-source Quantum ESPRESSO suite
     for quantum simulation of materials; please cite
         "P. Giannozzi et al., J. Phys.:Condens. Matter 21 395502 (2009);
          URL http://www.quantum-espresso.org", 
     in publications or presentations arising from this work. More details at
     http://www.quantum-espresso.org/quote

           HOST :    @host@
           ARCH :    x86_64
             CC :    cc
            CPP :    cpp
            F90 :    mpif90
            F77 :    gfortran
         DFLAGS :    -D__GFORTRAN -D__STD_F95 -D__FFTW -D__MPI
      BLAS LIBS :    
    LAPACK LIBS :    $(TOPDIR)/LAPACK/liblapack.a $(TOPDIR)/LAPACK/libblas.a
       FFT LIBS :    
      MASS LIBS :    

     Parallel version (MPI), running on     2 processors
     R & G space division:  proc/nbgrp/npool/nimage =       2

     Reading data from directory:
     /home/pietro/trunk/espresso/tempdir/gold.save

   Info: using nr1, nr2, nr3 values from input

   Info: using nr1, nr2, nr3 values from input

     IMPORTANT: XC functional enforced from input :
     Exchange-correlation      =  SLA  PZ   NOGX NOGC ( 1  1  0  0 0 0)
     Any further DFT definition will be discarded
     Please, verify this is what you really want

               file Au.rel-pz-kjpaw.UPF: wavefunction(s)  6S 6P 6P 5D renormalized

     Parallelization info
     --------------------
     sticks:   dense  smooth     PW     G-vecs:    dense   smooth      PW
     Min         297     141     45                 4919     1570     304
     Max         298     142     46                 4922     1573     305
     Sum         595     283     91                 9841     3143     609


     Calculation of q =    0.0000000   0.0000000   0.0000000

                                                                                

     bravais-lattice index     =            2
     lattice parameter (alat)  =       7.6660  a.u.
     unit-cell volume          =     112.6280 (a.u.)^3
     number of atoms/cell      =            1
     number of atomic types    =            1
     kinetic-energy cut-off    =      35.0000  Ry
     charge density cut-off    =     300.0000  Ry
     convergence threshold     =      1.0E-14
     beta                      =       0.7000
     number of iterations used =            4
     Exchange-correlation      =  SLA  PZ   NOGX NOGC ( 1  1  0  0 0 0)
     Non magnetic calculation with spin-orbit

     celldm(1)=    7.66600  celldm(2)=    0.00000  celldm(3)=    0.00000
     celldm(4)=    0.00000  celldm(5)=    0.00000  celldm(6)=    0.00000

     crystal axes: (cart. coord. in units of alat)
               a(1) = ( -0.5000  0.0000  0.5000 )  
               a(2) = (  0.0000  0.5000  0.5000 )  
               a(3) = ( -0.5000  0.5000  0.0000 )  

     reciprocal axes: (cart. coord. in units 2 pi/alat)
               b(1) = ( -1.0000 -1.0000  1.0000 )  
               b(2) = (  1.0000  1.0000  1.0000 )  
               b(3) = ( -1.0000  1.0000 -1.0000 )  


     Atoms inside the unit cell: 

     Cartesian axes

     site n.  atom      mass           positions (alat units)
        1     Au 196.9666   tau(    1) = (    0.00000    0.00000    0.00000  )

     Computing dynamical matrix for 
                    q = (   0.0000000   0.0000000   0.0000000 )

     49 Sym.Ops. (with q -> -q+G )


     G cutoff =  446.5799  (   4922 G-vectors)     FFT grid: ( 30, 30, 30)
     G cutoff =  208.4039  (   1573 G-vectors)  smooth grid: ( 24, 24, 24)

     number of k points=    10  Marzari-Vanderbilt smearing, width (Ry)=  0.0400
                       cart. coord. in units 2pi/alat
        k(    1) = (  -0.1250000   0.1250000   0.1250000), wk =   0.0312500
        k(    2) = (  -0.3750000   0.3750000  -0.1250000), wk =   0.0937500
        k(    3) = (   0.3750000  -0.3750000   0.6250000), wk =   0.0937500
        k(    4) = (   0.1250000  -0.1250000   0.3750000), wk =   0.0937500
        k(    5) = (  -0.1250000   0.6250000   0.1250000), wk =   0.0937500
        k(    6) = (   0.6250000  -0.1250000   0.8750000), wk =   0.1875000
        k(    7) = (   0.3750000   0.1250000   0.6250000), wk =   0.1875000
        k(    8) = (  -0.1250000  -0.8750000   0.1250000), wk =   0.0937500
        k(    9) = (  -0.3750000   0.3750000   0.3750000), wk =   0.0312500
        k(   10) = (   0.3750000  -0.3750000   1.1250000), wk =   0.0937500

     PseudoPot. # 1 for Au read from file:
     /home/pietro/trunk/espresso/pseudo/Au.rel-pz-kjpaw.UPF
     MD5 check sum: b956ecb87c50568e3ccd6514a7847638
     Pseudo is Projector augmented-wave + core cor, Zval = 11.0
     Generated using "atomic" code by A. Dal Corso  (Quantum ESPRESSO distribution)
     Shape of augmentation charge: PSQ
     Using radial grid of 1279 points, 10 beta functions with: 
                l(1) =   0
                l(2) =   0
                l(3) =   1
                l(4) =   1
                l(5) =   1
                l(6) =   1
                l(7) =   2
                l(8) =   2
                l(9) =   2
               l(10) =   2
     Q(r) pseudized with 0 coefficients 


     Mode symmetry, O_h (m-3m)  point group:


     Atomic displacements:
     There are   1 irreducible representations

     Representation     1      3 modes -T_1u G_15  G_4-  To be done



     Alpha used in Ewald sum =   2.8000
     PHONON       :     3.65s CPU         3.69s WALL



     Representation #  1 modes #   1  2  3

     Self-consistent Calculation

     Pert. #  1: Fermi energy shift (Ry) =     3.4466E-26     0.0000E+00
     Pert. #  2: Fermi energy shift (Ry) =    -5.1699E-26    -6.2693E-38
     Pert. #  3: Fermi energy shift (Ry) =     5.1699E-26     0.0000E+00

      iter #   1 total cpu time :     6.8 secs   av.it.:   5.6
      thresh= 1.000E-02 alpha_mix =  0.700 |ddv_scf|^2 =  9.509E-07

     Pert. #  1: Fermi energy shift (Ry) =     0.0000E+00     9.7958E-40
     Pert. #  2: Fermi energy shift (Ry) =    -1.7233E-26     3.6734E-39
     Pert. #  3: Fermi energy shift (Ry) =     3.4466E-26     9.7958E-40

      iter #   2 total cpu time :    10.2 secs   av.it.:  10.1
      thresh= 9.751E-05 alpha_mix =  0.700 |ddv_scf|^2 =  4.679E-09

     Pert. #  1: Fermi energy shift (Ry) =     0.0000E+00     0.0000E+00
     Pert. #  2: Fermi energy shift (Ry) =     1.7233E-26    -3.0612E-41
     Pert. #  3: Fermi energy shift (Ry) =     1.2063E-25     0.0000E+00

      iter #   3 total cpu time :    13.5 secs   av.it.:   9.7
      thresh= 6.840E-06 alpha_mix =  0.700 |ddv_scf|^2 =  1.338E-10

     Pert. #  1: Fermi energy shift (Ry) =     3.4466E-26    -6.1224E-41
     Pert. #  2: Fermi energy shift (Ry) =    -3.4466E-26     6.1224E-41
     Pert. #  3: Fermi energy shift (Ry) =     3.4466E-26    -6.1224E-41

      iter #   4 total cpu time :    16.9 secs   av.it.:  10.4
      thresh= 1.157E-06 alpha_mix =  0.700 |ddv_scf|^2 =  6.673E-13

     Pert. #  1: Fermi energy shift (Ry) =     0.0000E+00     0.0000E+00
     Pert. #  2: Fermi energy shift (Ry) =    -1.7233E-26    -3.0612E-41
     Pert. #  3: Fermi energy shift (Ry) =     3.4466E-26    -9.1835E-41

      iter #   5 total cpu time :    20.0 secs   av.it.:   9.1
      thresh= 8.169E-08 alpha_mix =  0.700 |ddv_scf|^2 =  3.842E-16

     End of self-consistent calculation

     Convergence has been achieved 

     Number of q in the star =    1
     List of q in the star:
          1   0.000000000   0.000000000   0.000000000

     Diagonalizing the dynamical matrix

     q = (    0.000000000   0.000000000   0.000000000 ) 

 **************************************************************************
     freq (    1) =      -0.181904 [THz] =      -6.067673 [cm-1]
     freq (    2) =      -0.181904 [THz] =      -6.067673 [cm-1]
     freq (    3) =      -0.181904 [THz] =      -6.067673 [cm-1]
 **************************************************************************

     Mode symmetry, O_h (m-3m)  point group:

     freq (  1 -  3) =         -6.1  [cm-1]   --> T_1u G_15  G_4- I  

     PHONON       :    19.87s CPU        20.07s WALL

     INITIALIZATION: 
     phq_setup    :      0.00s CPU      0.01s WALL (       1 calls)
     phq_init     :      1.95s CPU      1.96s WALL (       1 calls)

     phq_init     :      1.95s CPU      1.96s WALL (       1 calls)
     set_drhoc    :      0.27s CPU      0.27s WALL (       3 calls)
     init_vloc    :      0.01s CPU      0.01s WALL (       1 calls)
     init_us_1    :      0.76s CPU      0.77s WALL (       1 calls)
     newd         :      0.05s CPU      0.06s WALL (       1 calls)
     dvanqq       :      0.25s CPU      0.25s WALL (       1 calls)
     drho         :      1.20s CPU      1.20s WALL (       1 calls)

     DYNAMICAL MATRIX:
     dynmat0      :      0.29s CPU      0.30s WALL (       1 calls)
     phqscf       :     16.22s CPU     16.37s WALL (       1 calls)
     dynmatrix    :      0.00s CPU      0.00s WALL (       1 calls)

     phqscf       :     16.22s CPU     16.37s WALL (       1 calls)
     solve_linter :     16.14s CPU     16.28s WALL (       1 calls)
     drhodv       :      0.08s CPU      0.09s WALL (       1 calls)

     dynmat0      :      0.29s CPU      0.30s WALL (       1 calls)
     dynmat_us    :      0.10s CPU      0.11s WALL (       1 calls)
     d2ionq       :      0.00s CPU      0.00s WALL (       1 calls)
     dynmatcc     :      0.19s CPU      0.19s WALL (       1 calls)

     dynmat_us    :      0.10s CPU      0.11s WALL (       1 calls)
     addusdynmat  :      0.01s CPU      0.01s WALL (       1 calls)

     phqscf       :     16.22s CPU     16.37s WALL (       1 calls)
     solve_linter :     16.14s CPU     16.28s WALL (       1 calls)

     solve_linter :     16.14s CPU     16.28s WALL (       1 calls)
     dvqpsi_us    :      0.50s CPU      0.52s WALL (      30 calls)
     ortho        :      0.23s CPU      0.23s WALL (     150 calls)
     cgsolve      :      8.92s CPU      9.03s WALL (     150 calls)
     incdrhoscf   :      0.76s CPU      0.76s WALL (     150 calls)
     addusddens   :      0.36s CPU      0.37s WALL (       6 calls)
     vpsifft      :      0.51s CPU      0.54s WALL (     120 calls)
     dv_of_drho   :      0.02s CPU      0.02s WALL (      15 calls)
     mix_pot      :      0.01s CPU      0.01s WALL (       5 calls)
     ef_shift     :      0.01s CPU      0.01s WALL (       6 calls)
     localdos     :      0.08s CPU      0.08s WALL (       1 calls)
     psymdvscf    :      0.48s CPU      0.49s WALL (       5 calls)
     newdq        :      0.64s CPU      0.64s WALL (       5 calls)
     adddvscf     :      0.11s CPU      0.09s WALL (     120 calls)
     drhodvus     :      0.00s CPU      0.00s WALL (       1 calls)

     dvqpsi_us    :      0.50s CPU      0.52s WALL (      30 calls)
     dvqpsi_us_on :      0.27s CPU      0.29s WALL (      30 calls)

     cgsolve      :      8.92s CPU      9.03s WALL (     150 calls)
     ch_psi       :      8.81s CPU      8.91s WALL (    1723 calls)

     ch_psi       :      8.81s CPU      8.91s WALL (    1723 calls)
     last         :      1.16s CPU      1.21s WALL (    1723 calls)

     add_vuspsi   :      0.36s CPU      0.42s WALL (    1723 calls)

     incdrhoscf   :      0.76s CPU      0.76s WALL (     150 calls)

     drhodvus     :      0.00s CPU      0.00s WALL (       1 calls)

      General routines
     calbec       :      1.10s CPU      1.15s WALL (    4006 calls)
     fft          :      0.10s CPU      0.11s WALL (     185 calls)
     ffts         :      0.04s CPU      0.04s WALL (     306 calls)
     fftw         :      6.95s CPU      7.08s WALL (   81456 calls)
     davcio       :      0.04s CPU      0.04s WALL (     657 calls)
     write_rec    :      0.00s CPU      0.01s WALL (       6 calls)


     PHONON       :    19.87s CPU        20.07s WALL


   This run was terminated on:  13:43:32  23Sep2016            

=------------------------------------------------------------------------------=
   JOB DONE.
=------------------------------------------------------------------------------=
