                                                                                      
                                       ``:oss/                                        
                           `.+s+.     .+ys--yh+     `./ss+.                           
                          -sh//yy+`   +yy   +yy    -+h+-oyy                           
                          -yh- .oyy/.-sh.   .syo-.:sy-  /yh                           
                 `.-.`    `yh+   -oyyyo.     `/syys:    oys      `.`                  
               `/+ssys+-` `sh+      `                   oys`   .:osyo`                
               -yh- ./syyooyo`                          .sys+/oyo--yh/                
               `yy+    .-:-.                             `-/+/:`  -sh-                
                /yh.                                              oys                 
          ``..---hho---------`   .---------..`      `.-----.`    -hd+---.             
       `./osmNMMMMMMMMMMMMMMMs. +NNMMMMMMMMNNmh+.   yNMMMMMNm-  oNMMMMMNmo++:`        
       +sy--/sdMMMhyyyyyyyNMMh- .oyNMMmyyyyyhNMMm+` -yMMMdyyo:` .oyyNMMNhs+syy`       
       -yy/   /MMM+.`-+/``mMMy-   `mMMh:`````.dMMN:` `MMMy-`-dhhy```mMMy:``+hs        
        -yy+` /MMMo:-mMM+`-oo/.    mMMh:     `dMMN/`  dMMm:`dMMMMy..MMMo-.+yo`        
         .sys`/MMMMNNMMMs-         mMMmyooooymMMNo:   oMMM/sMMMMMM++MMN//oh:          
          `sh+/MMMhyyMMMs- `-`     mMMMMMMMMMNmy+-`   -MMMhMMMsmMMmdMMd/yy+           
    `-/+++oyy-/MMM+.`/hh/.`mNm:`   mMMd+/////:-.`      NMMMMMd/:NMMMMMy:/yyo/:.`      
   +os+//:-..-oMMMo:--:::-/MMMo. .-mMMd+---`           hMMMMN+. oMMMMMo. `-+osyso:`   
   syo     `mNMMMMMNNNNNNNNMMMo.oNNMMMMMNNNN:`         +MMMMs:`  dMMMN/`     ``:syo   
   /yh`     :syyyyyyyyyyyyyyyy+.`+syyyyyyyyo:`         .oyys:`   .oyys:`        +yh   
   -yh-        ````````````````    `````````              ``        ``          oys   
   -+h/------------------------::::::::://////++++++++++++++++++++++///////::::/yd:   
   shdddddddddddddddddddddddddddddhhhhhhhhyyyyyssssssssssssssssyyyyyyyhhhhhhhddddh`   
                                                                                      
  S. Ponce, E. R. Margine, C. Verdi, and F. Giustino,                                 
                                                Comput. Phys. Commun. 209, 116 (2016) 
                                                                                      

     Program EPW v.5.2.0 starts on  9Jul2020 at 18:59:18 

     This program is part of the open-source Quantum ESPRESSO suite
     for quantum simulation of materials; please cite
         "P. Giannozzi et al., J. Phys.:Condens. Matter 21 395502 (2009);
         "P. Giannozzi et al., J. Phys.:Condens. Matter 29 465901 (2017);
          URL http://www.quantum-espresso.org", 
     in publications or presentations arising from this work. More details at
     http://www.quantum-espresso.org/quote

     Parallel version (MPI), running on     4 processors

     MPI processes distributed on     1 nodes
     K-points division:     npool     =       4
     Fft bands division:     nmany     =       1

     WARNING: The specified dis_win_min is ignored.
              You should instead use bands_skipped = 'exclude_bands = ...'
              to control the lower bound of band manifold.

     Reading xml data from directory:

     ./pb.save/

     IMPORTANT: XC functional enforced from input :
     Exchange-correlation= PZ
                           (   1   1   0   0   0   0   0)
     Any further DFT definition will be discarded
     Please, verify this is what you really want

 
     G-vector sticks info
     --------------------
     sticks:   dense  smooth     PW     G-vecs:    dense   smooth      PW
     Sum         703     703    211                12387    12387    2109
 
     Reading collected, re-writing distributed wavefunctions

     --                                                                         

     bravais-lattice index     =            2
     lattice parameter (a_0)   =       9.2700  a.u.
     unit-cell volume          =     199.1495 (a.u.)^3
     number of atoms/cell      =            1
     number of atomic types    =            1
     kinetic-energy cut-off    =      60.0000  Ry
     charge density cut-off    =     240.0000  Ry
     Exchange-correlation= PZ
                           (   1   1   0   0   0   0   0)
     Non magnetic calculation with spin-orbit

     celldm(1)=    9.27000  celldm(2)=    0.00000  celldm(3)=    0.00000
     celldm(4)=    0.00000  celldm(5)=    0.00000  celldm(6)=    0.00000

     crystal axes: (cart. coord. in units of a_0)
               a(1) = ( -0.5000  0.0000  0.5000 )  
               a(2) = (  0.0000  0.5000  0.5000 )  
               a(3) = ( -0.5000  0.5000  0.0000 )  

     reciprocal axes: (cart. coord. in units 2 pi/a_0)
               b(1) = ( -1.0000 -1.0000  1.0000 )  
               b(2) = (  1.0000  1.0000  1.0000 )  
               b(3) = ( -1.0000  1.0000 -1.0000 )  


     Atoms inside the unit cell: 

   Cartesian axes

     site n.  atom      mass           positions (a_0 units)
        1        Pb 207.2000   tau( 1) = (    0.00000    0.00000    0.00000  )
 
     49 Sym.Ops. (with q -> -q+G )


     G cutoff =  522.4094  (  12387 G-vectors)     FFT grid: ( 36, 36, 36)
     number of k points=   27  gaussian broad. (Ry)=  0.0200     ngauss =   1
                       cart. coord. in units 2pi/a_0
        k(    1) = (   0.0000000   0.0000000   0.0000000), wk =   0.0370370
        k(    2) = (  -0.3333333   0.3333333  -0.3333333), wk =   0.0370370
        k(    3) = (  -0.6666667   0.6666667  -0.6666667), wk =   0.0370370
        k(    4) = (   0.3333333   0.3333333   0.3333333), wk =   0.0370370
        k(    5) = (   0.0000000   0.6666667   0.0000000), wk =   0.0370370
        k(    6) = (  -0.3333333   1.0000000  -0.3333333), wk =   0.0370370
        k(    7) = (   0.6666667   0.6666667   0.6666667), wk =   0.0370370
        k(    8) = (   0.3333333   1.0000000   0.3333333), wk =   0.0370370
        k(    9) = (   0.0000000   1.3333333   0.0000000), wk =   0.0370370
        k(   10) = (  -0.3333333  -0.3333333   0.3333333), wk =   0.0370370
        k(   11) = (  -0.6666667   0.0000000   0.0000000), wk =   0.0370370
        k(   12) = (  -1.0000000   0.3333333  -0.3333333), wk =   0.0370370
        k(   13) = (   0.0000000   0.0000000   0.6666667), wk =   0.0370370
        k(   14) = (  -0.3333333   0.3333333   0.3333333), wk =   0.0370370
        k(   15) = (  -0.6666667   0.6666667  -0.0000000), wk =   0.0370370
        k(   16) = (   0.3333333   0.3333333   1.0000000), wk =   0.0370370
        k(   17) = (   0.0000000   0.6666667   0.6666667), wk =   0.0370370
        k(   18) = (  -0.3333333   1.0000000   0.3333333), wk =   0.0370370
        k(   19) = (  -0.6666667  -0.6666667   0.6666667), wk =   0.0370370
        k(   20) = (  -1.0000000  -0.3333333   0.3333333), wk =   0.0370370
        k(   21) = (  -1.3333333   0.0000000   0.0000000), wk =   0.0370370
        k(   22) = (  -0.3333333  -0.3333333   1.0000000), wk =   0.0370370
        k(   23) = (  -0.6666667  -0.0000000   0.6666667), wk =   0.0370370
        k(   24) = (  -1.0000000   0.3333333   0.3333333), wk =   0.0370370
        k(   25) = (   0.0000000   0.0000000   1.3333333), wk =   0.0370370
        k(   26) = (  -0.3333333   0.3333333   1.0000000), wk =   0.0370370
        k(   27) = (  -0.6666667   0.6666667   0.6666667), wk =   0.0370370

     PseudoPot. # 1 for Pb read from file:
     ../../pseudo/pb_s.UPF
     MD5 check sum: 7774f596943a2055f0d8d19eea6f2ae8
     Pseudo is Norm-conserving, Zval = 14.0
     Generated using "atomic" code by A. Dal Corso (Quantum ESPRESSO distribution)
     Using radial grid of 1281 points,  4 beta functions with: 
                l(1) =   2
                l(2) =   2
                l(3) =   1
                l(4) =   1
     EPW          :      0.25s CPU      0.30s WALL

     EPW          :      0.30s CPU      0.35s WALL

     -------------------------------------------------------------------
     Wannierization on  3 x  3 x  3 electronic grid
     -------------------------------------------------------------------
 
     Spin CASE ( non-collinear )
 
     Initializing Wannier90
 
 
     Initial Wannier projections
 
     (   0.00000   0.00000   0.00000) :  l =  -3 mr =   1
     (   0.00000   0.00000   0.00000) :  l =  -3 mr =   1
     (   0.00000   0.00000   0.00000) :  l =  -3 mr =   2
     (   0.00000   0.00000   0.00000) :  l =  -3 mr =   2
     (   0.00000   0.00000   0.00000) :  l =  -3 mr =   3
     (   0.00000   0.00000   0.00000) :  l =  -3 mr =   3
     (   0.00000   0.00000   0.00000) :  l =  -3 mr =   4
     (   0.00000   0.00000   0.00000) :  l =  -3 mr =   4

      - Number of bands is ( 12)
      - Number of total bands is ( 22)
      - Number of excluded bands is ( 10)
      - Number of wannier functions is (  8)
      - All guiding functions are given 
 
  Reading data about k-point neighbours 
 
      - All neighbours are found 
 
     AMN
      k points =    27 in    4 pools
            1 of    7 on ionode
            2 of    7 on ionode
            3 of    7 on ionode
            4 of    7 on ionode
            5 of    7 on ionode
            6 of    7 on ionode
            7 of    7 on ionode
 
     AMN calculated
 
     MMN
      k points =    27 in    4 pools
            1 of    7 on ionode
            2 of    7 on ionode
            3 of    7 on ionode
            4 of    7 on ionode
            5 of    7 on ionode
            6 of    7 on ionode
            7 of    7 on ionode
     MMN calculated
 
     Running Wannier90
 
     Wannier Function centers (cartesian, alat) and spreads (ang):
 
     (   0.08272   0.08272   0.08272) :   1.60664
     (   0.08272   0.08272   0.08272) :   1.60664
     (   0.08272  -0.08272  -0.08272) :   1.60664
     (   0.08272  -0.08272  -0.08272) :   1.60664
     (  -0.08272   0.08272  -0.08272) :   1.60664
     (  -0.08272   0.08272  -0.08272) :   1.60664
     (  -0.08272  -0.08272   0.08272) :   1.60664
     (  -0.08272  -0.08272   0.08272) :   1.60664
 
     -------------------------------------------------------------------
     WANNIER      :      1.90s CPU      2.29s WALL (       1 calls)
     -------------------------------------------------------------------

     Dipole matrix elements calculated
 

     Calculating kgmap

     Progress kgmap: ########################################
     kmaps        :      0.03s CPU      0.22s WALL (       1 calls)
     Symmetries of Bravais lattice:  48
     Symmetries of crystal:          48


     ===================================================================
     irreducible q point #    1
     ===================================================================

     Symmetries of small group of q: 48
          in addition sym. q -> -q+G:
 
     Number of q in the star =    1
     List of q in the star:
          1   0.000000000   0.000000000   0.000000000
     Imposing acoustic sum rule on the dynamical matrix
 
        q(    1 ) = (   0.0000000   0.0000000   0.0000000 )


     ===================================================================
     irreducible q point #    2
     ===================================================================

     Symmetries of small group of q:  6
 
     Number of q in the star =    8
     List of q in the star:
          1  -0.333333333   0.333333333  -0.333333333
          2   0.333333333   0.333333333  -0.333333333
          3   0.333333333   0.333333333   0.333333333
          4  -0.333333333   0.333333333   0.333333333
          5   0.333333333  -0.333333333   0.333333333
          6  -0.333333333  -0.333333333  -0.333333333
          7   0.333333333  -0.333333333  -0.333333333
          8  -0.333333333  -0.333333333   0.333333333
 
        q(    2 ) = (  -0.3333333   0.3333333  -0.3333333 )
        q(    3 ) = (   0.3333333   0.3333333  -0.3333333 )
        q(    4 ) = (   0.3333333   0.3333333   0.3333333 )
        q(    5 ) = (  -0.3333333   0.3333333   0.3333333 )
        q(    6 ) = (   0.3333333  -0.3333333   0.3333333 )
        q(    7 ) = (  -0.3333333  -0.3333333  -0.3333333 )
        q(    8 ) = (   0.3333333  -0.3333333  -0.3333333 )
        q(    9 ) = (  -0.3333333  -0.3333333   0.3333333 )


     ===================================================================
     irreducible q point #    3
     ===================================================================

     Symmetries of small group of q:  8
 
     Number of q in the star =    6
     List of q in the star:
          1   0.000000000   0.666666667   0.000000000
          2  -0.666666667   0.000000000   0.000000000
          3   0.000000000  -0.666666667   0.000000000
          4   0.000000000   0.000000000   0.666666667
          5   0.000000000   0.000000000  -0.666666667
          6   0.666666667   0.000000000   0.000000000
 
        q(   10 ) = (   0.0000000   0.6666667   0.0000000 )
        q(   11 ) = (  -0.6666667   0.0000000   0.0000000 )
        q(   12 ) = (   0.0000000  -0.6666667   0.0000000 )
        q(   13 ) = (   0.0000000   0.0000000   0.6666667 )
        q(   14 ) = (   0.0000000   0.0000000  -0.6666667 )
        q(   15 ) = (   0.6666667   0.0000000   0.0000000 )


     ===================================================================
     irreducible q point #    4
     ===================================================================

     Symmetries of small group of q:  4
 
     Number of q in the star =   12
     List of q in the star:
          1   0.666666667   0.000000000   0.666666667
          2   0.666666667   0.000000000  -0.666666667
          3  -0.666666667   0.000000000  -0.666666667
          4  -0.666666667   0.000000000   0.666666667
          5   0.000000000  -0.666666667   0.666666667
          6  -0.666666667   0.666666667   0.000000000
          7  -0.666666667  -0.666666667   0.000000000
          8   0.666666667   0.666666667   0.000000000
          9   0.666666667  -0.666666667   0.000000000
         10   0.000000000   0.666666667   0.666666667
         11   0.000000000   0.666666667  -0.666666667
         12   0.000000000  -0.666666667  -0.666666667
 
        q(   16 ) = (   0.6666667   0.0000000   0.6666667 )
        q(   17 ) = (   0.6666667   0.0000000  -0.6666667 )
        q(   18 ) = (  -0.6666667   0.0000000  -0.6666667 )
        q(   19 ) = (  -0.6666667   0.0000000   0.6666667 )
        q(   20 ) = (   0.0000000  -0.6666667   0.6666667 )
        q(   21 ) = (  -0.6666667   0.6666667   0.0000000 )
        q(   22 ) = (  -0.6666667  -0.6666667   0.0000000 )
        q(   23 ) = (   0.6666667   0.6666667   0.0000000 )
        q(   24 ) = (   0.6666667  -0.6666667   0.0000000 )
        q(   25 ) = (   0.0000000   0.6666667   0.6666667 )
        q(   26 ) = (   0.0000000   0.6666667  -0.6666667 )
        q(   27 ) = (  -0.0000000  -0.6666667  -0.6666667 )

     Writing epmatq on .epb files


     The .epb files have been correctly written


     Band disentanglement is used: nbndsub =    8
     Use zone-centred Wigner-Seitz cells 
     Number of WS vectors for electrons       43
     Number of WS vectors for phonons       43
     Number of WS vectors for electron-phonon       43
     Maximum number of cores for efficient parallelization      129
     Results may improve by using use_ws == .TRUE. 
 
     Bloch2wane:          1 /         27
     Bloch2wane:          2 /         27
     Bloch2wane:          3 /         27
     Bloch2wane:          4 /         27
     Bloch2wane:          5 /         27
     Bloch2wane:          6 /         27
     Bloch2wane:          7 /         27
     Bloch2wane:          8 /         27
     Bloch2wane:          9 /         27
     Bloch2wane:         10 /         27
     Bloch2wane:         11 /         27
     Bloch2wane:         12 /         27
     Bloch2wane:         13 /         27
     Bloch2wane:         14 /         27
     Bloch2wane:         15 /         27
     Bloch2wane:         16 /         27
     Bloch2wane:         17 /         27
     Bloch2wane:         18 /         27
     Bloch2wane:         19 /         27
     Bloch2wane:         20 /         27
     Bloch2wane:         21 /         27
     Bloch2wane:         22 /         27
     Bloch2wane:         23 /         27
     Bloch2wane:         24 /         27
     Bloch2wane:         25 /         27
     Bloch2wane:         26 /         27
     Bloch2wane:         27 /         27
 
     Bloch2wanp:          1 /         11
     Bloch2wanp:          2 /         11
     Bloch2wanp:          3 /         11
     Bloch2wanp:          4 /         11
     Bloch2wanp:          5 /         11
     Bloch2wanp:          6 /         11
     Bloch2wanp:          7 /         11
     Bloch2wanp:          8 /         11
     Bloch2wanp:          9 /         11
     Bloch2wanp:         10 /         11
     Bloch2wanp:         11 /         11

     Writing Hamiltonian, Dynamical matrix and EP vertex in Wann rep to file

     ===================================================================
     Memory usage:  VmHWM =       113Mb
                   VmPeak =       457Mb
     ===================================================================
     
     Using uniform q-mesh:    6   6   6
     Size of q point mesh for interpolation:        216
     Using uniform k-mesh:    6   6   6
     Size of k point mesh for interpolation:        432
     Max number of k points per pool:              108

     Fermi energy coarse grid =  10.121988 eV

     Skipping the first   10 bands:

     The Fermi level will be determined with   4.00000 electrons

     Fermi energy is calculated from the fine k-mesh: Ef =  11.622353 eV

     Warning: check if difference with Fermi level fine grid makes sense

     ===================================================================

              ibndmin =     1  ebndmin =    -0.040
              ibndmax =     8  ebndmax =     1.463


     Number of ep-matrix elements per pool :        10368 ~=   81.00 Kb (@ 8 bytes/ DP)
     Number selected, total            100            100
     Number selected, total            200            200
     We only need to compute      216 q-points
      

     ===================================================================
     Phonon (Imaginary) Self-Energy in the Migdal Approximation
     ===================================================================


     Fermi Surface thickness =  20.000000 eV

     Golden Rule strictly enforced with T =   0.043087 eV
     Gaussian Broadening:   0.200000 eV, ngauss=   1
     DOS =  0.904604 states/spin/eV/Unit Cell at Ef= 11.622353 eV

     ismear =     1 iq =       1 coord.:   0.00000  0.00000  0.00000 wt:   0.00463
     -------------------------------------------------------------------
     lambda___(   1 )=       0.000000   gamma___=       0.000000 meV   omega=      0.0000 meV
     lambda_tr(   1 )=       0.000000   gamma_tr=       0.000000 meV   omega=      0.0000 meV
     lambda___(   2 )=       0.000000   gamma___=       0.000000 meV   omega=      0.0000 meV
     lambda_tr(   2 )=       0.000000   gamma_tr=       0.000000 meV   omega=      0.0000 meV
     lambda___(   3 )=       0.000000   gamma___=       0.000000 meV   omega=      0.0000 meV
     lambda_tr(   3 )=       0.000000   gamma_tr=       0.000000 meV   omega=      0.0000 meV
     lambda___( tot )=       0.000000
     lambda_tr( tot )=       0.000000
     -------------------------------------------------------------------


     Number of (k,k+q) pairs on the Fermi surface:      216 out of      216


     ===================================================================
     Electron (Imaginary) Self-Energy in the Migdal Approximation
     ===================================================================


     Fermi Surface thickness =  20.000000 eV

     Golden Rule strictly enforced with T =   0.043087 eV
     Gaussian Broadening:   0.200000 eV, ngauss=   1
 

     ismear =     1 iq =       2 coord.:   0.00000  0.00000  0.16667 wt:   0.00463
     -------------------------------------------------------------------
     lambda___(   1 )=       0.068877   gamma___=       0.000284 meV   omega=      1.2052 meV
     lambda_tr(   1 )=       0.069034   gamma_tr=       0.000285 meV   omega=      1.2052 meV
     lambda___(   2 )=       0.068877   gamma___=       0.000284 meV   omega=      1.2052 meV
     lambda_tr(   2 )=       0.069034   gamma_tr=       0.000285 meV   omega=      1.2052 meV
     lambda___(   3 )=       0.000000   gamma___=       0.000000 meV   omega=      0.4924 meV
     lambda_tr(   3 )=       0.000000   gamma_tr=       0.000000 meV   omega=      0.4924 meV
     lambda___( tot )=       0.137754
     lambda_tr( tot )=       0.138067
     -------------------------------------------------------------------


     Number of (k,k+q) pairs on the Fermi surface:      216 out of      216


     ismear =     1 iq =       3 coord.:   0.00000  0.00000  0.33333 wt:   0.00463
     -------------------------------------------------------------------
     lambda___(   1 )=       0.345309   gamma___=       0.005667 meV   omega=      2.4032 meV
     lambda_tr(   1 )=     -19.685253   gamma_tr=      -0.323084 meV   omega=      2.4032 meV
     lambda___(   2 )=       0.345309   gamma___=       0.005667 meV   omega=      2.4032 meV
     lambda_tr(   2 )=     -19.685253   gamma_tr=      -0.323084 meV   omega=      2.4032 meV
     lambda___(   3 )=       0.583621   gamma___=       0.018332 meV   omega=      3.3246 meV
     lambda_tr(   3 )=     -25.299924   gamma_tr=      -0.794687 meV   omega=      3.3246 meV
     lambda___( tot )=       1.274239
     lambda_tr( tot )=     -64.670430
     -------------------------------------------------------------------


     Number of (k,k+q) pairs on the Fermi surface:      216 out of      216


     ismear =     1 iq =       4 coord.:   0.00000  0.00000  0.50000 wt:   0.00463
     -------------------------------------------------------------------
     lambda___(   1 )=       0.000000   gamma___=       0.000000 meV   omega=      3.8020 meV
     lambda_tr(   1 )=       0.000000   gamma_tr=       0.000000 meV   omega=      3.8020 meV
     lambda___(   2 )=       0.000000   gamma___=       0.000000 meV   omega=      3.8020 meV
     lambda_tr(   2 )=       0.000000   gamma_tr=       0.000000 meV   omega=      3.8020 meV
     lambda___(   3 )=       0.000000   gamma___=       0.000000 meV   omega=      4.6498 meV
     lambda_tr(   3 )=       0.000000   gamma_tr=       0.000000 meV   omega=      4.6498 meV
     lambda___( tot )=       0.000000
     lambda_tr( tot )=       0.000000
     -------------------------------------------------------------------


     Number of (k,k+q) pairs on the Fermi surface:      216 out of      216


     ismear =     1 iq =       5 coord.:   0.00000  0.00000  0.66667 wt:   0.00463
     -------------------------------------------------------------------
     lambda___(   1 )=       0.345336   gamma___=       0.005668 meV   omega=      2.4032 meV
     lambda_tr(   1 )=     -19.685419   gamma_tr=      -0.323086 meV   omega=      2.4032 meV
     lambda___(   2 )=       0.345336   gamma___=       0.005668 meV   omega=      2.4032 meV
     lambda_tr(   2 )=     -19.685419   gamma_tr=      -0.323086 meV   omega=      2.4032 meV
     lambda___(   3 )=       0.583828   gamma___=       0.018338 meV   omega=      3.3246 meV
     lambda_tr(   3 )=     -25.300023   gamma_tr=      -0.794690 meV   omega=      3.3246 meV
     lambda___( tot )=       1.274500
     lambda_tr( tot )=     -64.670862
     -------------------------------------------------------------------


     Number of (k,k+q) pairs on the Fermi surface:      216 out of      216


     ismear =     1 iq =       6 coord.:   0.00000  0.00000  0.83333 wt:   0.00463
     -------------------------------------------------------------------
     lambda___(   1 )=       0.068878   gamma___=       0.000284 meV   omega=      1.2052 meV
     lambda_tr(   1 )=       0.069034   gamma_tr=       0.000285 meV   omega=      1.2052 meV
     lambda___(   2 )=       0.068878   gamma___=       0.000284 meV   omega=      1.2052 meV
     lambda_tr(   2 )=       0.069034   gamma_tr=       0.000285 meV   omega=      1.2052 meV
     lambda___(   3 )=       0.000000   gamma___=       0.000000 meV   omega=      0.4924 meV
     lambda_tr(   3 )=       0.000000   gamma_tr=       0.000000 meV   omega=      0.4924 meV
     lambda___( tot )=       0.137755
     lambda_tr( tot )=       0.138068
     -------------------------------------------------------------------


     Number of (k,k+q) pairs on the Fermi surface:      216 out of      216


     ismear =     1 iq =       7 coord.:   0.00000  0.16667  0.00000 wt:   0.00463
     -------------------------------------------------------------------
     lambda___(   1 )=       0.068877   gamma___=       0.000284 meV   omega=      1.2052 meV
     lambda_tr(   1 )=       0.069034   gamma_tr=       0.000285 meV   omega=      1.2052 meV
     lambda___(   2 )=       0.068877   gamma___=       0.000284 meV   omega=      1.2052 meV
     lambda_tr(   2 )=       0.069034   gamma_tr=       0.000285 meV   omega=      1.2052 meV
     lambda___(   3 )=       0.000000   gamma___=       0.000000 meV   omega=      0.4924 meV
     lambda_tr(   3 )=       0.000000   gamma_tr=       0.000000 meV   omega=      0.4924 meV
     lambda___( tot )=       0.137754
     lambda_tr( tot )=       0.138068
     -------------------------------------------------------------------


     Number of (k,k+q) pairs on the Fermi surface:      216 out of      216


     ismear =     1 iq =       8 coord.:   0.00000  0.16667  0.16667 wt:   0.00463
     -------------------------------------------------------------------
     lambda___(   1 )=       0.000000   gamma___=       0.000000 meV   omega=     -3.2687 meV
     lambda_tr(   1 )=       0.000000   gamma_tr=       0.000000 meV   omega=     -3.2687 meV
     lambda___(   2 )=       0.000000   gamma___=       0.000000 meV   omega=     -3.2687 meV
     lambda_tr(   2 )=       0.000000   gamma_tr=       0.000000 meV   omega=     -3.2687 meV
     lambda___(   3 )=       0.266146   gamma___=       0.011944 meV   omega=      3.9739 meV
     lambda_tr(   3 )=       0.096929   gamma_tr=       0.004350 meV   omega=      3.9739 meV
     lambda___( tot )=       0.266146
     lambda_tr( tot )=       0.096929
     -------------------------------------------------------------------


     Number of (k,k+q) pairs on the Fermi surface:      216 out of      216


     ismear =     1 iq =       9 coord.:   0.00000  0.16667  0.33333 wt:   0.00463
     -------------------------------------------------------------------
     lambda___(   1 )=       0.000000   gamma___=       0.000000 meV   omega=     -3.0769 meV
     lambda_tr(   1 )=       0.000000   gamma_tr=       0.000000 meV   omega=     -3.0769 meV
     lambda___(   2 )=       0.000000   gamma___=       0.000000 meV   omega=     -2.8895 meV
     lambda_tr(   2 )=       0.000000   gamma_tr=       0.000000 meV   omega=     -2.8895 meV
     lambda___(   3 )=       0.010344   gamma___=       0.000860 meV   omega=      5.4074 meV
     lambda_tr(   3 )=      -0.041660   gamma_tr=      -0.003462 meV   omega=      5.4074 meV
     lambda___( tot )=       0.010344
     lambda_tr( tot )=      -0.041660
     -------------------------------------------------------------------


     Number of (k,k+q) pairs on the Fermi surface:      216 out of      216


     ismear =     1 iq =      10 coord.:   0.00000  0.16667  0.50000 wt:   0.00463
     -------------------------------------------------------------------
     lambda___(   1 )=       0.524274   gamma___=       0.011399 meV   omega=      2.7660 meV
     lambda_tr(   1 )=       0.412791   gamma_tr=       0.008975 meV   omega=      2.7660 meV
     lambda___(   2 )=      -0.189516   gamma___=      -0.005988 meV   omega=      3.3343 meV
     lambda_tr(   2 )=      -0.778140   gamma_tr=      -0.024586 meV   omega=      3.3343 meV
     lambda___(   3 )=       0.381210   gamma___=       0.035711 meV   omega=      5.7413 meV
     lambda_tr(   3 )=      -0.794077   gamma_tr=      -0.074387 meV   omega=      5.7413 meV
     lambda___( tot )=       0.715968
     lambda_tr( tot )=      -1.159426
     -------------------------------------------------------------------


     Number of (k,k+q) pairs on the Fermi surface:      216 out of      216


     ismear =     1 iq =      11 coord.:   0.00000  0.16667  0.66667 wt:   0.00463
     -------------------------------------------------------------------
     lambda___(   1 )=       0.064103   gamma___=       0.002209 meV   omega=      3.4821 meV
     lambda_tr(   1 )=      -0.139464   gamma_tr=      -0.004806 meV   omega=      3.4821 meV
     lambda___(   2 )=       0.066546   gamma___=       0.002538 meV   omega=      3.6633 meV
     lambda_tr(   2 )=       0.337099   gamma_tr=       0.012856 meV   omega=      3.6633 meV
     lambda___(   3 )=       0.039287   gamma___=       0.002111 meV   omega=      4.3479 meV
     lambda_tr(   3 )=      -0.115051   gamma_tr=      -0.006181 meV   omega=      4.3479 meV
     lambda___( tot )=       0.169936
     lambda_tr( tot )=       0.082584
     -------------------------------------------------------------------


     Number of (k,k+q) pairs on the Fermi surface:      216 out of      216


     ismear =     1 iq =      12 coord.:   0.00000  0.16667  0.83333 wt:   0.00463
     -------------------------------------------------------------------
     lambda___(   1 )=       0.000000   gamma___=       0.000000 meV   omega=     -2.7557 meV
     lambda_tr(   1 )=       0.000000   gamma_tr=       0.000000 meV   omega=     -2.7557 meV
     lambda___(   2 )=      -2.124041   gamma___=      -0.033402 meV   omega=      2.3523 meV
     lambda_tr(   2 )=      -4.037377   gamma_tr=      -0.063490 meV   omega=      2.3523 meV
     lambda___(   3 )=      -0.037158   gamma___=      -0.000963 meV   omega=      3.0193 meV
     lambda_tr(   3 )=      -0.415245   gamma_tr=      -0.010758 meV   omega=      3.0193 meV
     lambda___( tot )=      -2.161199
     lambda_tr( tot )=      -4.452623
     -------------------------------------------------------------------


     Number of (k,k+q) pairs on the Fermi surface:      216 out of      216


     ismear =     1 iq =      13 coord.:   0.00000  0.33333  0.00000 wt:   0.00463
     -------------------------------------------------------------------
     lambda___(   1 )=       0.345310   gamma___=       0.005667 meV   omega=      2.4032 meV
     lambda_tr(   1 )=     -19.685251   gamma_tr=      -0.323083 meV   omega=      2.4032 meV
     lambda___(   2 )=       0.345310   gamma___=       0.005667 meV   omega=      2.4032 meV
     lambda_tr(   2 )=     -19.685251   gamma_tr=      -0.323083 meV   omega=      2.4032 meV
     lambda___(   3 )=       0.583618   gamma___=       0.018332 meV   omega=      3.3246 meV
     lambda_tr(   3 )=     -25.299923   gamma_tr=      -0.794687 meV   omega=      3.3246 meV
     lambda___( tot )=       1.274237
     lambda_tr( tot )=     -64.670425
     -------------------------------------------------------------------


     Number of (k,k+q) pairs on the Fermi surface:      216 out of      216


     ismear =     1 iq =      14 coord.:   0.00000  0.33333  0.16667 wt:   0.00463
     -------------------------------------------------------------------
     lambda___(   1 )=       0.000000   gamma___=       0.000000 meV   omega=     -3.0769 meV
     lambda_tr(   1 )=       0.000000   gamma_tr=       0.000000 meV   omega=     -3.0769 meV
     lambda___(   2 )=       0.000000   gamma___=       0.000000 meV   omega=     -2.8895 meV
     lambda_tr(   2 )=       0.000000   gamma_tr=       0.000000 meV   omega=     -2.8895 meV
     lambda___(   3 )=       0.010344   gamma___=       0.000860 meV   omega=      5.4074 meV
     lambda_tr(   3 )=      -0.041659   gamma_tr=      -0.003462 meV   omega=      5.4074 meV
     lambda___( tot )=       0.010344
     lambda_tr( tot )=      -0.041659
     -------------------------------------------------------------------


     Number of (k,k+q) pairs on the Fermi surface:      216 out of      216


     ismear =     1 iq =      15 coord.:   0.00000  0.33333  0.33333 wt:   0.00463
     -------------------------------------------------------------------
     lambda___(   1 )=       0.000000   gamma___=       0.000000 meV   omega=     -4.5024 meV
     lambda_tr(   1 )=       0.000000   gamma_tr=       0.000000 meV   omega=     -4.5024 meV
     lambda___(   2 )=       0.000000   gamma___=       0.000000 meV   omega=     -4.5024 meV
     lambda_tr(   2 )=       0.000000   gamma_tr=       0.000000 meV   omega=     -4.5024 meV
     lambda___(   3 )=       0.025755   gamma___=       0.003838 meV   omega=      7.2413 meV
     lambda_tr(   3 )=       0.020517   gamma_tr=       0.003057 meV   omega=      7.2413 meV
     lambda___( tot )=       0.025755
     lambda_tr( tot )=       0.020517
     -------------------------------------------------------------------


     Number of (k,k+q) pairs on the Fermi surface:      216 out of      216


     ismear =     1 iq =      16 coord.:   0.00000  0.33333  0.50000 wt:   0.00463
     -------------------------------------------------------------------
     lambda___(   1 )=       0.000000   gamma___=       0.000000 meV   omega=     -3.0271 meV
     lambda_tr(   1 )=       0.000000   gamma_tr=       0.000000 meV   omega=     -3.0271 meV
     lambda___(   2 )=       0.000000   gamma___=       0.000000 meV   omega=     -2.7907 meV
     lambda_tr(   2 )=       0.000000   gamma_tr=       0.000000 meV   omega=     -2.7907 meV
     lambda___(   3 )=       0.013551   gamma___=       0.002345 meV   omega=      7.8031 meV
     lambda_tr(   3 )=      -0.000288   gamma_tr=      -0.000050 meV   omega=      7.8031 meV
     lambda___( tot )=       0.013551
     lambda_tr( tot )=      -0.000288
     -------------------------------------------------------------------


     Number of (k,k+q) pairs on the Fermi surface:      216 out of      216


     ismear =     1 iq =      17 coord.:   0.00000  0.33333  0.66667 wt:   0.00463
     -------------------------------------------------------------------
     lambda___(   1 )=       0.268281   gamma___=       0.007079 meV   omega=      3.0471 meV
     lambda_tr(   1 )=      12.214686   gamma_tr=       0.322310 meV   omega=      3.0471 meV
     lambda___(   2 )=       0.438338   gamma___=       0.016670 meV   omega=      3.6582 meV
     lambda_tr(   2 )=       1.861880   gamma_tr=       0.070809 meV   omega=      3.6582 meV
     lambda___(   3 )=       0.151768   gamma___=       0.018393 meV   omega=      6.5304 meV
     lambda_tr(   3 )=       2.498676   gamma_tr=       0.302827 meV   omega=      6.5304 meV
     lambda___( tot )=       0.858386
     lambda_tr( tot )=      16.575242
     -------------------------------------------------------------------


     Number of (k,k+q) pairs on the Fermi surface:      216 out of      216


     ismear =     1 iq =      18 coord.:   0.00000  0.33333  0.83333 wt:   0.00463
     -------------------------------------------------------------------
     lambda___(   1 )=       0.064103   gamma___=       0.002209 meV   omega=      3.4821 meV
     lambda_tr(   1 )=      -0.139464   gamma_tr=      -0.004806 meV   omega=      3.4821 meV
     lambda___(   2 )=       0.066546   gamma___=       0.002538 meV   omega=      3.6633 meV
     lambda_tr(   2 )=       0.337098   gamma_tr=       0.012856 meV   omega=      3.6633 meV
     lambda___(   3 )=       0.039287   gamma___=       0.002111 meV   omega=      4.3479 meV
     lambda_tr(   3 )=      -0.115051   gamma_tr=      -0.006181 meV   omega=      4.3479 meV
     lambda___( tot )=       0.169936
     lambda_tr( tot )=       0.082584
     -------------------------------------------------------------------


     Number of (k,k+q) pairs on the Fermi surface:      216 out of      216


     ismear =     1 iq =      19 coord.:   0.00000  0.50000  0.00000 wt:   0.00463
     -------------------------------------------------------------------
     lambda___(   1 )=       0.000000   gamma___=       0.000000 meV   omega=      3.8020 meV
     lambda_tr(   1 )=       0.000000   gamma_tr=       0.000000 meV   omega=      3.8020 meV
     lambda___(   2 )=       0.000000   gamma___=       0.000000 meV   omega=      3.8020 meV
     lambda_tr(   2 )=       0.000000   gamma_tr=       0.000000 meV   omega=      3.8020 meV
     lambda___(   3 )=       0.000000   gamma___=       0.000000 meV   omega=      4.6498 meV
     lambda_tr(   3 )=       0.000000   gamma_tr=       0.000000 meV   omega=      4.6498 meV
     lambda___( tot )=       0.000000
     lambda_tr( tot )=       0.000000
     -------------------------------------------------------------------


     Number of (k,k+q) pairs on the Fermi surface:      216 out of      216


     ismear =     1 iq =      20 coord.:   0.00000  0.50000  0.16667 wt:   0.00463
     -------------------------------------------------------------------
     lambda___(   1 )=       0.524281   gamma___=       0.011400 meV   omega=      2.7660 meV
     lambda_tr(   1 )=       0.412798   gamma_tr=       0.008976 meV   omega=      2.7660 meV
     lambda___(   2 )=      -0.189517   gamma___=      -0.005988 meV   omega=      3.3343 meV
     lambda_tr(   2 )=      -0.778143   gamma_tr=      -0.024586 meV   omega=      3.3343 meV
     lambda___(   3 )=       0.381210   gamma___=       0.035711 meV   omega=      5.7413 meV
     lambda_tr(   3 )=      -0.794077   gamma_tr=      -0.074387 meV   omega=      5.7413 meV
     lambda___( tot )=       0.715973
     lambda_tr( tot )=      -1.159422
     -------------------------------------------------------------------


     Number of (k,k+q) pairs on the Fermi surface:      216 out of      216


     ismear =     1 iq =      21 coord.:   0.00000  0.50000  0.33333 wt:   0.00463
     -------------------------------------------------------------------
     lambda___(   1 )=       0.000000   gamma___=       0.000000 meV   omega=     -3.0271 meV
     lambda_tr(   1 )=       0.000000   gamma_tr=       0.000000 meV   omega=     -3.0271 meV
     lambda___(   2 )=       0.000000   gamma___=       0.000000 meV   omega=     -2.7907 meV
     lambda_tr(   2 )=       0.000000   gamma_tr=       0.000000 meV   omega=     -2.7907 meV
     lambda___(   3 )=       0.013551   gamma___=       0.002345 meV   omega=      7.8031 meV
     lambda_tr(   3 )=      -0.000288   gamma_tr=      -0.000050 meV   omega=      7.8031 meV
     lambda___( tot )=       0.013551
     lambda_tr( tot )=      -0.000288
     -------------------------------------------------------------------


     Number of (k,k+q) pairs on the Fermi surface:      216 out of      216


     ismear =     1 iq =      22 coord.:   0.00000  0.50000  0.50000 wt:   0.00463
     -------------------------------------------------------------------
     lambda___(   1 )=       0.000000   gamma___=       0.000000 meV   omega=     -4.3788 meV
     lambda_tr(   1 )=       0.000000   gamma_tr=       0.000000 meV   omega=     -4.3788 meV
     lambda___(   2 )=       0.000000   gamma___=       0.000000 meV   omega=     -4.3788 meV
     lambda_tr(   2 )=       0.000000   gamma_tr=       0.000000 meV   omega=     -4.3788 meV
     lambda___(   3 )=       0.580688   gamma___=       0.120944 meV   omega=      8.5608 meV
     lambda_tr(   3 )=       3.802239   gamma_tr=       0.791919 meV   omega=      8.5608 meV
     lambda___( tot )=       0.580688
     lambda_tr( tot )=       3.802239
     -------------------------------------------------------------------


     Number of (k,k+q) pairs on the Fermi surface:      216 out of      216


     ismear =     1 iq =      23 coord.:   0.00000  0.50000  0.66667 wt:   0.00463
     -------------------------------------------------------------------
     lambda___(   1 )=       0.000000   gamma___=       0.000000 meV   omega=     -3.0271 meV
     lambda_tr(   1 )=       0.000000   gamma_tr=       0.000000 meV   omega=     -3.0271 meV
     lambda___(   2 )=       0.000000   gamma___=       0.000000 meV   omega=     -2.7907 meV
     lambda_tr(   2 )=       0.000000   gamma_tr=       0.000000 meV   omega=     -2.7907 meV
     lambda___(   3 )=       0.013551   gamma___=       0.002345 meV   omega=      7.8031 meV
     lambda_tr(   3 )=      -0.000288   gamma_tr=      -0.000050 meV   omega=      7.8031 meV
     lambda___( tot )=       0.013551
     lambda_tr( tot )=      -0.000288
     -------------------------------------------------------------------


     Number of (k,k+q) pairs on the Fermi surface:      216 out of      216


     ismear =     1 iq =      24 coord.:   0.00000  0.50000  0.83333 wt:   0.00463
     -------------------------------------------------------------------
     lambda___(   1 )=       0.524676   gamma___=       0.011408 meV   omega=      2.7660 meV
     lambda_tr(   1 )=       0.413256   gamma_tr=       0.008985 meV   omega=      2.7660 meV
     lambda___(   2 )=      -0.189636   gamma___=      -0.005992 meV   omega=      3.3343 meV
     lambda_tr(   2 )=      -0.778385   gamma_tr=      -0.024593 meV   omega=      3.3343 meV
     lambda___(   3 )=       0.381201   gamma___=       0.035710 meV   omega=      5.7413 meV
     lambda_tr(   3 )=      -0.794078   gamma_tr=      -0.074387 meV   omega=      5.7413 meV
     lambda___( tot )=       0.716241
     lambda_tr( tot )=      -1.159207
     -------------------------------------------------------------------


     Number of (k,k+q) pairs on the Fermi surface:      216 out of      216


     ismear =     1 iq =      25 coord.:   0.00000  0.66667  0.00000 wt:   0.00463
     -------------------------------------------------------------------
     lambda___(   1 )=       0.345335   gamma___=       0.005668 meV   omega=      2.4032 meV
     lambda_tr(   1 )=     -19.685421   gamma_tr=      -0.323086 meV   omega=      2.4032 meV
     lambda___(   2 )=       0.345335   gamma___=       0.005668 meV   omega=      2.4032 meV
     lambda_tr(   2 )=     -19.685421   gamma_tr=      -0.323086 meV   omega=      2.4032 meV
     lambda___(   3 )=       0.583831   gamma___=       0.018339 meV   omega=      3.3246 meV
     lambda_tr(   3 )=     -25.300025   gamma_tr=      -0.794690 meV   omega=      3.3246 meV
     lambda___( tot )=       1.274502
     lambda_tr( tot )=     -64.670867
     -------------------------------------------------------------------


     Number of (k,k+q) pairs on the Fermi surface:      216 out of      216


     ismear =     1 iq =      26 coord.:   0.00000  0.66667  0.16667 wt:   0.00463
     -------------------------------------------------------------------
     lambda___(   1 )=       0.064103   gamma___=       0.002209 meV   omega=      3.4821 meV
     lambda_tr(   1 )=      -0.139464   gamma_tr=      -0.004806 meV   omega=      3.4821 meV
     lambda___(   2 )=       0.066546   gamma___=       0.002538 meV   omega=      3.6633 meV
     lambda_tr(   2 )=       0.337099   gamma_tr=       0.012856 meV   omega=      3.6633 meV
     lambda___(   3 )=       0.039287   gamma___=       0.002111 meV   omega=      4.3479 meV
     lambda_tr(   3 )=      -0.115051   gamma_tr=      -0.006181 meV   omega=      4.3479 meV
     lambda___( tot )=       0.169936
     lambda_tr( tot )=       0.082584
     -------------------------------------------------------------------


     Number of (k,k+q) pairs on the Fermi surface:      216 out of      216


     ismear =     1 iq =      27 coord.:   0.00000  0.66667  0.33333 wt:   0.00463
     -------------------------------------------------------------------
     lambda___(   1 )=       0.268284   gamma___=       0.007079 meV   omega=      3.0471 meV
     lambda_tr(   1 )=      12.214692   gamma_tr=       0.322310 meV   omega=      3.0471 meV
     lambda___(   2 )=       0.438342   gamma___=       0.016670 meV   omega=      3.6582 meV
     lambda_tr(   2 )=       1.861877   gamma_tr=       0.070809 meV   omega=      3.6582 meV
     lambda___(   3 )=       0.151768   gamma___=       0.018394 meV   omega=      6.5304 meV
     lambda_tr(   3 )=       2.498677   gamma_tr=       0.302827 meV   omega=      6.5304 meV
     lambda___( tot )=       0.858394
     lambda_tr( tot )=      16.575247
     -------------------------------------------------------------------


     Number of (k,k+q) pairs on the Fermi surface:      216 out of      216


     ismear =     1 iq =      28 coord.:   0.00000  0.66667  0.50000 wt:   0.00463
     -------------------------------------------------------------------
     lambda___(   1 )=       0.000000   gamma___=       0.000000 meV   omega=     -3.0271 meV
     lambda_tr(   1 )=       0.000000   gamma_tr=       0.000000 meV   omega=     -3.0271 meV
     lambda___(   2 )=       0.000000   gamma___=       0.000000 meV   omega=     -2.7907 meV
     lambda_tr(   2 )=       0.000000   gamma_tr=       0.000000 meV   omega=     -2.7907 meV
     lambda___(   3 )=       0.013551   gamma___=       0.002345 meV   omega=      7.8031 meV
     lambda_tr(   3 )=      -0.000288   gamma_tr=      -0.000050 meV   omega=      7.8031 meV
     lambda___( tot )=       0.013551
     lambda_tr( tot )=      -0.000288
     -------------------------------------------------------------------


     Number of (k,k+q) pairs on the Fermi surface:      216 out of      216


     ismear =     1 iq =      29 coord.:   0.00000  0.66667  0.66667 wt:   0.00463
     -------------------------------------------------------------------
     lambda___(   1 )=       0.000000   gamma___=       0.000000 meV   omega=     -4.5024 meV
     lambda_tr(   1 )=       0.000000   gamma_tr=       0.000000 meV   omega=     -4.5024 meV
     lambda___(   2 )=       0.000000   gamma___=       0.000000 meV   omega=     -4.5024 meV
     lambda_tr(   2 )=       0.000000   gamma_tr=       0.000000 meV   omega=     -4.5024 meV
     lambda___(   3 )=       0.025755   gamma___=       0.003838 meV   omega=      7.2413 meV
     lambda_tr(   3 )=       0.020517   gamma_tr=       0.003057 meV   omega=      7.2413 meV
     lambda___( tot )=       0.025755
     lambda_tr( tot )=       0.020517
     -------------------------------------------------------------------


     Number of (k,k+q) pairs on the Fermi surface:      216 out of      216


     ismear =     1 iq =      30 coord.:   0.00000  0.66667  0.83333 wt:   0.00463
     -------------------------------------------------------------------
     lambda___(   1 )=       0.000000   gamma___=       0.000000 meV   omega=     -3.0769 meV
     lambda_tr(   1 )=       0.000000   gamma_tr=       0.000000 meV   omega=     -3.0769 meV
     lambda___(   2 )=       0.000000   gamma___=       0.000000 meV   omega=     -2.8895 meV
     lambda_tr(   2 )=       0.000000   gamma_tr=       0.000000 meV   omega=     -2.8895 meV
     lambda___(   3 )=       0.010344   gamma___=       0.000860 meV   omega=      5.4074 meV
     lambda_tr(   3 )=      -0.041659   gamma_tr=      -0.003462 meV   omega=      5.4074 meV
     lambda___( tot )=       0.010344
     lambda_tr( tot )=      -0.041659
     -------------------------------------------------------------------


     Number of (k,k+q) pairs on the Fermi surface:      216 out of      216


     ismear =     1 iq =      31 coord.:   0.00000  0.83333  0.00000 wt:   0.00463
     -------------------------------------------------------------------
     lambda___(   1 )=       0.068878   gamma___=       0.000284 meV   omega=      1.2052 meV
     lambda_tr(   1 )=       0.069034   gamma_tr=       0.000285 meV   omega=      1.2052 meV
     lambda___(   2 )=       0.068878   gamma___=       0.000284 meV   omega=      1.2052 meV
     lambda_tr(   2 )=       0.069034   gamma_tr=       0.000285 meV   omega=      1.2052 meV
     lambda___(   3 )=       0.000000   gamma___=       0.000000 meV   omega=      0.4924 meV
     lambda_tr(   3 )=       0.000000   gamma_tr=       0.000000 meV   omega=      0.4924 meV
     lambda___( tot )=       0.137755
     lambda_tr( tot )=       0.138069
     -------------------------------------------------------------------


     Number of (k,k+q) pairs on the Fermi surface:      216 out of      216


     ismear =     1 iq =      32 coord.:   0.00000  0.83333  0.16667 wt:   0.00463
     -------------------------------------------------------------------
     lambda___(   1 )=       0.000000   gamma___=       0.000000 meV   omega=     -2.7557 meV
     lambda_tr(   1 )=       0.000000   gamma_tr=       0.000000 meV   omega=     -2.7557 meV
     lambda___(   2 )=      -2.124031   gamma___=      -0.033402 meV   omega=      2.3523 meV
     lambda_tr(   2 )=      -4.037368   gamma_tr=      -0.063490 meV   omega=      2.3523 meV
     lambda___(   3 )=      -0.037150   gamma___=      -0.000962 meV   omega=      3.0193 meV
     lambda_tr(   3 )=      -0.415234   gamma_tr=      -0.010758 meV   omega=      3.0193 meV
     lambda___( tot )=      -2.161181
     lambda_tr( tot )=      -4.452601
     -------------------------------------------------------------------


     Number of (k,k+q) pairs on the Fermi surface:      216 out of      216


     ismear =     1 iq =      33 coord.:   0.00000  0.83333  0.33333 wt:   0.00463
     -------------------------------------------------------------------
     lambda___(   1 )=       0.064103   gamma___=       0.002209 meV   omega=      3.4821 meV
     lambda_tr(   1 )=      -0.139464   gamma_tr=      -0.004806 meV   omega=      3.4821 meV
     lambda___(   2 )=       0.066546   gamma___=       0.002538 meV   omega=      3.6633 meV
     lambda_tr(   2 )=       0.337098   gamma_tr=       0.012856 meV   omega=      3.6633 meV
     lambda___(   3 )=       0.039287   gamma___=       0.002111 meV   omega=      4.3479 meV
     lambda_tr(   3 )=      -0.115051   gamma_tr=      -0.006181 meV   omega=      4.3479 meV
     lambda___( tot )=       0.169936
     lambda_tr( tot )=       0.082584
     -------------------------------------------------------------------


     Number of (k,k+q) pairs on the Fermi surface:      216 out of      216


     ismear =     1 iq =      34 coord.:   0.00000  0.83333  0.50000 wt:   0.00463
     -------------------------------------------------------------------
     lambda___(   1 )=       0.524684   gamma___=       0.011408 meV   omega=      2.7660 meV
     lambda_tr(   1 )=       0.413265   gamma_tr=       0.008986 meV   omega=      2.7660 meV
     lambda___(   2 )=      -0.189637   gamma___=      -0.005992 meV   omega=      3.3343 meV
     lambda_tr(   2 )=      -0.778388   gamma_tr=      -0.024594 meV   omega=      3.3343 meV
     lambda___(   3 )=       0.381200   gamma___=       0.035710 meV   omega=      5.7413 meV
     lambda_tr(   3 )=      -0.794079   gamma_tr=      -0.074387 meV   omega=      5.7413 meV
     lambda___( tot )=       0.716247
     lambda_tr( tot )=      -1.159202
     -------------------------------------------------------------------


     Number of (k,k+q) pairs on the Fermi surface:      216 out of      216


     ismear =     1 iq =      35 coord.:   0.00000  0.83333  0.66667 wt:   0.00463
     -------------------------------------------------------------------
     lambda___(   1 )=       0.000000   gamma___=       0.000000 meV   omega=     -3.0769 meV
     lambda_tr(   1 )=       0.000000   gamma_tr=       0.000000 meV   omega=     -3.0769 meV
     lambda___(   2 )=       0.000000   gamma___=       0.000000 meV   omega=     -2.8895 meV
     lambda_tr(   2 )=       0.000000   gamma_tr=       0.000000 meV   omega=     -2.8895 meV
     lambda___(   3 )=       0.010344   gamma___=       0.000860 meV   omega=      5.4074 meV
     lambda_tr(   3 )=      -0.041660   gamma_tr=      -0.003462 meV   omega=      5.4074 meV
     lambda___( tot )=       0.010344
     lambda_tr( tot )=      -0.041660
     -------------------------------------------------------------------


     Number of (k,k+q) pairs on the Fermi surface:      216 out of      216


     ismear =     1 iq =      36 coord.:   0.00000  0.83333  0.83333 wt:   0.00463
     -------------------------------------------------------------------
     lambda___(   1 )=       0.000000   gamma___=       0.000000 meV   omega=     -3.2687 meV
     lambda_tr(   1 )=       0.000000   gamma_tr=       0.000000 meV   omega=     -3.2687 meV
     lambda___(   2 )=       0.000000   gamma___=       0.000000 meV   omega=     -3.2687 meV
     lambda_tr(   2 )=       0.000000   gamma_tr=       0.000000 meV   omega=     -3.2687 meV
     lambda___(   3 )=       0.266146   gamma___=       0.011944 meV   omega=      3.9739 meV
     lambda_tr(   3 )=       0.096928   gamma_tr=       0.004350 meV   omega=      3.9739 meV
     lambda___( tot )=       0.266146
     lambda_tr( tot )=       0.096928
     -------------------------------------------------------------------


     Number of (k,k+q) pairs on the Fermi surface:      216 out of      216


     ismear =     1 iq =      37 coord.:   0.16667  0.00000  0.00000 wt:   0.00463
     -------------------------------------------------------------------
     lambda___(   1 )=       0.068877   gamma___=       0.000284 meV   omega=      1.2052 meV
     lambda_tr(   1 )=       0.069034   gamma_tr=       0.000285 meV   omega=      1.2052 meV
     lambda___(   2 )=       0.068877   gamma___=       0.000284 meV   omega=      1.2052 meV
     lambda_tr(   2 )=       0.069034   gamma_tr=       0.000285 meV   omega=      1.2052 meV
     lambda___(   3 )=       0.000000   gamma___=       0.000000 meV   omega=      0.4924 meV
     lambda_tr(   3 )=       0.000000   gamma_tr=       0.000000 meV   omega=      0.4924 meV
     lambda___( tot )=       0.137754
     lambda_tr( tot )=       0.138068
     -------------------------------------------------------------------


     Number of (k,k+q) pairs on the Fermi surface:      216 out of      216


     ismear =     1 iq =      38 coord.:   0.16667  0.00000  0.16667 wt:   0.00463
     -------------------------------------------------------------------
     lambda___(   1 )=       0.000000   gamma___=       0.000000 meV   omega=     -3.2687 meV
     lambda_tr(   1 )=       0.000000   gamma_tr=       0.000000 meV   omega=     -3.2687 meV
     lambda___(   2 )=       0.000000   gamma___=       0.000000 meV   omega=     -3.2687 meV
     lambda_tr(   2 )=       0.000000   gamma_tr=       0.000000 meV   omega=     -3.2687 meV
     lambda___(   3 )=       0.266146   gamma___=       0.011944 meV   omega=      3.9739 meV
     lambda_tr(   3 )=       0.096928   gamma_tr=       0.004350 meV   omega=      3.9739 meV
     lambda___( tot )=       0.266146
     lambda_tr( tot )=       0.096928
     -------------------------------------------------------------------


     Number of (k,k+q) pairs on the Fermi surface:      216 out of      216


     ismear =     1 iq =      39 coord.:   0.16667  0.00000  0.33333 wt:   0.00463
     -------------------------------------------------------------------
     lambda___(   1 )=       0.000000   gamma___=       0.000000 meV   omega=     -3.0769 meV
     lambda_tr(   1 )=       0.000000   gamma_tr=       0.000000 meV   omega=     -3.0769 meV
     lambda___(   2 )=       0.000000   gamma___=       0.000000 meV   omega=     -2.8895 meV
     lambda_tr(   2 )=       0.000000   gamma_tr=       0.000000 meV   omega=     -2.8895 meV
     lambda___(   3 )=       0.010344   gamma___=       0.000860 meV   omega=      5.4074 meV
     lambda_tr(   3 )=      -0.041660   gamma_tr=      -0.003462 meV   omega=      5.4074 meV
     lambda___( tot )=       0.010344
     lambda_tr( tot )=      -0.041660
     -------------------------------------------------------------------


     Number of (k,k+q) pairs on the Fermi surface:      216 out of      216


     ismear =     1 iq =      40 coord.:   0.16667  0.00000  0.50000 wt:   0.00463
     -------------------------------------------------------------------
     lambda___(   1 )=       0.524275   gamma___=       0.011399 meV   omega=      2.7660 meV
     lambda_tr(   1 )=       0.412792   gamma_tr=       0.008975 meV   omega=      2.7660 meV
     lambda___(   2 )=      -0.189516   gamma___=      -0.005988 meV   omega=      3.3343 meV
     lambda_tr(   2 )=      -0.778141   gamma_tr=      -0.024586 meV   omega=      3.3343 meV
     lambda___(   3 )=       0.381210   gamma___=       0.035711 meV   omega=      5.7413 meV
     lambda_tr(   3 )=      -0.794077   gamma_tr=      -0.074387 meV   omega=      5.7413 meV
     lambda___( tot )=       0.715969
     lambda_tr( tot )=      -1.159427
     -------------------------------------------------------------------


     Number of (k,k+q) pairs on the Fermi surface:      216 out of      216


     ismear =     1 iq =      41 coord.:   0.16667  0.00000  0.66667 wt:   0.00463
     -------------------------------------------------------------------
     lambda___(   1 )=       0.064103   gamma___=       0.002209 meV   omega=      3.4821 meV
     lambda_tr(   1 )=      -0.139464   gamma_tr=      -0.004806 meV   omega=      3.4821 meV
     lambda___(   2 )=       0.066546   gamma___=       0.002538 meV   omega=      3.6633 meV
     lambda_tr(   2 )=       0.337099   gamma_tr=       0.012856 meV   omega=      3.6633 meV
     lambda___(   3 )=       0.039287   gamma___=       0.002111 meV   omega=      4.3479 meV
     lambda_tr(   3 )=      -0.115051   gamma_tr=      -0.006181 meV   omega=      4.3479 meV
     lambda___( tot )=       0.169936
     lambda_tr( tot )=       0.082584
     -------------------------------------------------------------------


     Number of (k,k+q) pairs on the Fermi surface:      216 out of      216


     ismear =     1 iq =      42 coord.:   0.16667  0.00000  0.83333 wt:   0.00463
     -------------------------------------------------------------------
     lambda___(   1 )=       0.000000   gamma___=       0.000000 meV   omega=     -2.7557 meV
     lambda_tr(   1 )=       0.000000   gamma_tr=       0.000000 meV   omega=     -2.7557 meV
     lambda___(   2 )=      -2.124036   gamma___=      -0.033402 meV   omega=      2.3523 meV
     lambda_tr(   2 )=      -4.037373   gamma_tr=      -0.063490 meV   omega=      2.3523 meV
     lambda___(   3 )=      -0.037157   gamma___=      -0.000963 meV   omega=      3.0193 meV
     lambda_tr(   3 )=      -0.415245   gamma_tr=      -0.010758 meV   omega=      3.0193 meV
     lambda___( tot )=      -2.161193
     lambda_tr( tot )=      -4.452618
     -------------------------------------------------------------------


     Number of (k,k+q) pairs on the Fermi surface:      216 out of      216


     ismear =     1 iq =      43 coord.:   0.16667  0.16667  0.00000 wt:   0.00463
     -------------------------------------------------------------------
     lambda___(   1 )=       0.000000   gamma___=       0.000000 meV   omega=     -3.2687 meV
     lambda_tr(   1 )=       0.000000   gamma_tr=       0.000000 meV   omega=     -3.2687 meV
     lambda___(   2 )=       0.000000   gamma___=       0.000000 meV   omega=     -3.2687 meV
     lambda_tr(   2 )=       0.000000   gamma_tr=       0.000000 meV   omega=     -3.2687 meV
     lambda___(   3 )=       0.271281   gamma___=       0.012175 meV   omega=      3.9739 meV
     lambda_tr(   3 )=       0.096880   gamma_tr=       0.004348 meV   omega=      3.9739 meV
     lambda___( tot )=       0.271281
     lambda_tr( tot )=       0.096880
     -------------------------------------------------------------------


     Number of (k,k+q) pairs on the Fermi surface:      216 out of      216


     ismear =     1 iq =      44 coord.:   0.16667  0.16667  0.16667 wt:   0.00463
     -------------------------------------------------------------------
     lambda___(   1 )=       0.068878   gamma___=       0.000284 meV   omega=      1.2052 meV
     lambda_tr(   1 )=       0.069034   gamma_tr=       0.000285 meV   omega=      1.2052 meV
     lambda___(   2 )=       0.068878   gamma___=       0.000284 meV   omega=      1.2052 meV
     lambda_tr(   2 )=       0.069034   gamma_tr=       0.000285 meV   omega=      1.2052 meV
     lambda___(   3 )=       0.000000   gamma___=       0.000000 meV   omega=      0.4924 meV
     lambda_tr(   3 )=       0.000000   gamma_tr=       0.000000 meV   omega=      0.4924 meV
     lambda___( tot )=       0.137755
     lambda_tr( tot )=       0.138069
     -------------------------------------------------------------------


     Number of (k,k+q) pairs on the Fermi surface:      216 out of      216


     ismear =     1 iq =      45 coord.:   0.16667  0.16667  0.33333 wt:   0.00463
     -------------------------------------------------------------------
     lambda___(   1 )=       0.000000   gamma___=       0.000000 meV   omega=     -2.7557 meV
     lambda_tr(   1 )=       0.000000   gamma_tr=       0.000000 meV   omega=     -2.7557 meV
     lambda___(   2 )=      -2.137092   gamma___=      -0.033607 meV   omega=      2.3523 meV
     lambda_tr(   2 )=      -4.049512   gamma_tr=      -0.063681 meV   omega=      2.3523 meV
     lambda___(   3 )=      -0.026635   gamma___=      -0.000690 meV   omega=      3.0193 meV
     lambda_tr(   3 )=      -0.409258   gamma_tr=      -0.010603 meV   omega=      3.0193 meV
     lambda___( tot )=      -2.163727
     lambda_tr( tot )=      -4.458770
     -------------------------------------------------------------------


     Number of (k,k+q) pairs on the Fermi surface:      216 out of      216


     ismear =     1 iq =      46 coord.:   0.16667  0.16667  0.50000 wt:   0.00463
     -------------------------------------------------------------------
     lambda___(   1 )=       0.064518   gamma___=       0.002223 meV   omega=      3.4821 meV
     lambda_tr(   1 )=      -0.141085   gamma_tr=      -0.004862 meV   omega=      3.4821 meV
     lambda___(   2 )=       0.066944   gamma___=       0.002553 meV   omega=      3.6633 meV
     lambda_tr(   2 )=       0.339593   gamma_tr=       0.012951 meV   omega=      3.6633 meV
     lambda___(   3 )=       0.039559   gamma___=       0.002125 meV   omega=      4.3479 meV
     lambda_tr(   3 )=      -0.116292   gamma_tr=      -0.006248 meV   omega=      4.3479 meV
     lambda___( tot )=       0.171021
     lambda_tr( tot )=       0.082216
     -------------------------------------------------------------------


     Number of (k,k+q) pairs on the Fermi surface:      216 out of      216


     ismear =     1 iq =      47 coord.:   0.16667  0.16667  0.66667 wt:   0.00463
     -------------------------------------------------------------------
     lambda___(   1 )=       0.506738   gamma___=       0.011018 meV   omega=      2.7660 meV
     lambda_tr(   1 )=       0.366425   gamma_tr=       0.007967 meV   omega=      2.7660 meV
     lambda___(   2 )=      -0.196238   gamma___=      -0.006200 meV   omega=      3.3343 meV
     lambda_tr(   2 )=      -0.793619   gamma_tr=      -0.025075 meV   omega=      3.3343 meV
     lambda___(   3 )=       0.380206   gamma___=       0.035617 meV   omega=      5.7413 meV
     lambda_tr(   3 )=      -0.805372   gamma_tr=      -0.075445 meV   omega=      5.7413 meV
     lambda___( tot )=       0.690705
     lambda_tr( tot )=      -1.232566
     -------------------------------------------------------------------


     Number of (k,k+q) pairs on the Fermi surface:      216 out of      216


     ismear =     1 iq =      48 coord.:   0.16667  0.16667  0.83333 wt:   0.00463
     -------------------------------------------------------------------
     lambda___(   1 )=       0.000000   gamma___=       0.000000 meV   omega=     -3.0769 meV
     lambda_tr(   1 )=       0.000000   gamma_tr=       0.000000 meV   omega=     -3.0769 meV
     lambda___(   2 )=       0.000000   gamma___=       0.000000 meV   omega=     -2.8895 meV
     lambda_tr(   2 )=       0.000000   gamma_tr=       0.000000 meV   omega=     -2.8895 meV
     lambda___(   3 )=       0.010404   gamma___=       0.000865 meV   omega=      5.4074 meV
     lambda_tr(   3 )=      -0.042002   gamma_tr=      -0.003490 meV   omega=      5.4074 meV
     lambda___( tot )=       0.010404
     lambda_tr( tot )=      -0.042002
     -------------------------------------------------------------------


     Number of (k,k+q) pairs on the Fermi surface:      216 out of      216


     ismear =     1 iq =      49 coord.:   0.16667  0.33333  0.00000 wt:   0.00463
     -------------------------------------------------------------------
     lambda___(   1 )=       0.000000   gamma___=       0.000000 meV   omega=     -3.0769 meV
     lambda_tr(   1 )=       0.000000   gamma_tr=       0.000000 meV   omega=     -3.0769 meV
     lambda___(   2 )=       0.000000   gamma___=       0.000000 meV   omega=     -2.8895 meV
     lambda_tr(   2 )=       0.000000   gamma_tr=       0.000000 meV   omega=     -2.8895 meV
     lambda___(   3 )=       0.010404   gamma___=       0.000865 meV   omega=      5.4074 meV
     lambda_tr(   3 )=      -0.042000   gamma_tr=      -0.003490 meV   omega=      5.4074 meV
     lambda___( tot )=       0.010404
     lambda_tr( tot )=      -0.042000
     -------------------------------------------------------------------


     Number of (k,k+q) pairs on the Fermi surface:      216 out of      216


     ismear =     1 iq =      50 coord.:   0.16667  0.33333  0.16667 wt:   0.00463
     -------------------------------------------------------------------
     lambda___(   1 )=       0.000000   gamma___=       0.000000 meV   omega=     -2.7557 meV
     lambda_tr(   1 )=       0.000000   gamma_tr=       0.000000 meV   omega=     -2.7557 meV
     lambda___(   2 )=      -2.124032   gamma___=      -0.033402 meV   omega=      2.3523 meV
     lambda_tr(   2 )=      -4.037369   gamma_tr=      -0.063490 meV   omega=      2.3523 meV
     lambda___(   3 )=      -0.037151   gamma___=      -0.000962 meV   omega=      3.0193 meV
     lambda_tr(   3 )=      -0.415232   gamma_tr=      -0.010758 meV   omega=      3.0193 meV
     lambda___( tot )=      -2.161183
     lambda_tr( tot )=      -4.452602
     -------------------------------------------------------------------


     Number of (k,k+q) pairs on the Fermi surface:      216 out of      216


     ismear =     1 iq =      51 coord.:   0.16667  0.33333  0.33333 wt:   0.00463
     -------------------------------------------------------------------
     lambda___(   1 )=       0.000000   gamma___=       0.000000 meV   omega=     -3.0769 meV
     lambda_tr(   1 )=       0.000000   gamma_tr=       0.000000 meV   omega=     -3.0769 meV
     lambda___(   2 )=       0.000000   gamma___=       0.000000 meV   omega=     -2.8895 meV
     lambda_tr(   2 )=       0.000000   gamma_tr=       0.000000 meV   omega=     -2.8895 meV
     lambda___(   3 )=       0.010344   gamma___=       0.000860 meV   omega=      5.4074 meV
     lambda_tr(   3 )=      -0.041659   gamma_tr=      -0.003462 meV   omega=      5.4074 meV
     lambda___( tot )=       0.010344
     lambda_tr( tot )=      -0.041659
     -------------------------------------------------------------------


     Number of (k,k+q) pairs on the Fermi surface:      216 out of      216


     ismear =     1 iq =      52 coord.:   0.16667  0.33333  0.50000 wt:   0.00463
     -------------------------------------------------------------------
     lambda___(   1 )=       0.000000   gamma___=       0.000000 meV   omega=     -2.1690 meV
     lambda_tr(   1 )=       0.000000   gamma_tr=       0.000000 meV   omega=     -2.1690 meV
     lambda___(   2 )=       6.524437   gamma___=       0.066223 meV   omega=      1.8899 meV
     lambda_tr(   2 )=     -28.990643   gamma_tr=      -0.294257 meV   omega=      1.8899 meV
     lambda___(   3 )=       0.167257   gamma___=       0.019814 meV   omega=      6.4564 meV
     lambda_tr(   3 )=       0.965752   gamma_tr=       0.114408 meV   omega=      6.4564 meV
     lambda___( tot )=       6.691694
     lambda_tr( tot )=     -28.024891
     -------------------------------------------------------------------


     Number of (k,k+q) pairs on the Fermi surface:      216 out of      216


     ismear =     1 iq =      53 coord.:   0.16667  0.33333  0.66667 wt:   0.00463
     -------------------------------------------------------------------
     lambda___(   1 )=      -0.152049   gamma___=      -0.000340 meV   omega=      0.8871 meV
     lambda_tr(   1 )=       2.420915   gamma_tr=       0.005414 meV   omega=      0.8871 meV
     lambda___(   2 )=       0.006842   gamma___=       0.000615 meV   omega=      5.6224 meV
     lambda_tr(   2 )=      -0.005825   gamma_tr=      -0.000523 meV   omega=      5.6224 meV
     lambda___(   3 )=       0.033339   gamma___=       0.003119 meV   omega=      5.7371 meV
     lambda_tr(   3 )=       0.189552   gamma_tr=       0.017731 meV   omega=      5.7371 meV
     lambda___( tot )=      -0.111868
     lambda_tr( tot )=       2.604642
     -------------------------------------------------------------------


     Number of (k,k+q) pairs on the Fermi surface:      216 out of      216


     ismear =     1 iq =      54 coord.:   0.16667  0.33333  0.83333 wt:   0.00463
     -------------------------------------------------------------------
     lambda___(   1 )=       0.000000   gamma___=       0.000000 meV   omega=     -2.1690 meV
     lambda_tr(   1 )=       0.000000   gamma_tr=       0.000000 meV   omega=     -2.1690 meV
     lambda___(   2 )=       6.591304   gamma___=       0.066902 meV   omega=      1.8899 meV
     lambda_tr(   2 )=     -28.607489   gamma_tr=      -0.290368 meV   omega=      1.8899 meV
     lambda___(   3 )=       0.164756   gamma___=       0.019518 meV   omega=      6.4564 meV
     lambda_tr(   3 )=       0.967931   gamma_tr=       0.114666 meV   omega=      6.4564 meV
     lambda___( tot )=       6.756060
     lambda_tr( tot )=     -27.639559
     -------------------------------------------------------------------


     Number of (k,k+q) pairs on the Fermi surface:      216 out of      216


     ismear =     1 iq =      55 coord.:   0.16667  0.50000  0.00000 wt:   0.00463
     -------------------------------------------------------------------
     lambda___(   1 )=       0.506165   gamma___=       0.011006 meV   omega=      2.7660 meV
     lambda_tr(   1 )=       0.365812   gamma_tr=       0.007954 meV   omega=      2.7660 meV
     lambda___(   2 )=      -0.196068   gamma___=      -0.006195 meV   omega=      3.3343 meV
     lambda_tr(   2 )=      -0.793290   gamma_tr=      -0.025064 meV   omega=      3.3343 meV
     lambda___(   3 )=       0.380228   gamma___=       0.035619 meV   omega=      5.7413 meV
     lambda_tr(   3 )=      -0.805344   gamma_tr=      -0.075442 meV   omega=      5.7413 meV
     lambda___( tot )=       0.690325
     lambda_tr( tot )=      -1.232822
     -------------------------------------------------------------------


     Number of (k,k+q) pairs on the Fermi surface:      216 out of      216


     ismear =     1 iq =      56 coord.:   0.16667  0.50000  0.16667 wt:   0.00463
     -------------------------------------------------------------------
     lambda___(   1 )=       0.064103   gamma___=       0.002209 meV   omega=      3.4821 meV
     lambda_tr(   1 )=      -0.139464   gamma_tr=      -0.004806 meV   omega=      3.4821 meV
     lambda___(   2 )=       0.066546   gamma___=       0.002538 meV   omega=      3.6633 meV
     lambda_tr(   2 )=       0.337098   gamma_tr=       0.012856 meV   omega=      3.6633 meV
     lambda___(   3 )=       0.039287   gamma___=       0.002111 meV   omega=      4.3479 meV
     lambda_tr(   3 )=      -0.115051   gamma_tr=      -0.006181 meV   omega=      4.3479 meV
     lambda___( tot )=       0.169936
     lambda_tr( tot )=       0.082584
     -------------------------------------------------------------------


     Number of (k,k+q) pairs on the Fermi surface:      216 out of      216


     ismear =     1 iq =      57 coord.:   0.16667  0.50000  0.33333 wt:   0.00463
     -------------------------------------------------------------------
     lambda___(   1 )=       0.000000   gamma___=       0.000000 meV   omega=     -2.1690 meV
     lambda_tr(   1 )=       0.000000   gamma_tr=       0.000000 meV   omega=     -2.1690 meV
     lambda___(   2 )=       6.521618   gamma___=       0.066195 meV   omega=      1.8899 meV
     lambda_tr(   2 )=     -28.721337   gamma_tr=      -0.291523 meV   omega=      1.8899 meV
     lambda___(   3 )=       0.168411   gamma___=       0.019951 meV   omega=      6.4564 meV
     lambda_tr(   3 )=       0.969408   gamma_tr=       0.114841 meV   omega=      6.4564 meV
     lambda___( tot )=       6.690029
     lambda_tr( tot )=     -27.751929
     -------------------------------------------------------------------


     Number of (k,k+q) pairs on the Fermi surface:      216 out of      216


     ismear =     1 iq =      58 coord.:   0.16667  0.50000  0.50000 wt:   0.00463
     -------------------------------------------------------------------
     lambda___(   1 )=       0.000000   gamma___=       0.000000 meV   omega=     -3.0271 meV
     lambda_tr(   1 )=       0.000000   gamma_tr=       0.000000 meV   omega=     -3.0271 meV
     lambda___(   2 )=       0.000000   gamma___=       0.000000 meV   omega=     -2.7907 meV
     lambda_tr(   2 )=       0.000000   gamma_tr=       0.000000 meV   omega=     -2.7907 meV
     lambda___(   3 )=       0.013551   gamma___=       0.002345 meV   omega=      7.8031 meV
     lambda_tr(   3 )=      -0.000288   gamma_tr=      -0.000050 meV   omega=      7.8031 meV
     lambda___( tot )=       0.013551
     lambda_tr( tot )=      -0.000288
     -------------------------------------------------------------------


     Number of (k,k+q) pairs on the Fermi surface:      216 out of      216


     ismear =     1 iq =      59 coord.:   0.16667  0.50000  0.66667 wt:   0.00463
     -------------------------------------------------------------------
     lambda___(   1 )=       0.000000   gamma___=       0.000000 meV   omega=     -2.8475 meV
     lambda_tr(   1 )=       0.000000   gamma_tr=       0.000000 meV   omega=     -2.8475 meV
     lambda___(   2 )=       0.342555   gamma___=       0.011338 meV   omega=      3.4127 meV
     lambda_tr(   2 )=       0.324748   gamma_tr=       0.010748 meV   omega=      3.4127 meV
     lambda___(   3 )=       0.124130   gamma___=       0.020417 meV   omega=      7.6077 meV
     lambda_tr(   3 )=       0.135201   gamma_tr=       0.022238 meV   omega=      7.6077 meV
     lambda___( tot )=       0.466685
     lambda_tr( tot )=       0.459949
     -------------------------------------------------------------------


     Number of (k,k+q) pairs on the Fermi surface:      216 out of      216


     ismear =     1 iq =      60 coord.:   0.16667  0.50000  0.83333 wt:   0.00463
     -------------------------------------------------------------------
     lambda___(   1 )=      -0.152054   gamma___=      -0.000340 meV   omega=      0.8871 meV
     lambda_tr(   1 )=       2.420573   gamma_tr=       0.005413 meV   omega=      0.8871 meV
     lambda___(   2 )=       0.006842   gamma___=       0.000615 meV   omega=      5.6224 meV
     lambda_tr(   2 )=      -0.005826   gamma_tr=      -0.000523 meV   omega=      5.6224 meV
     lambda___(   3 )=       0.033339   gamma___=       0.003119 meV   omega=      5.7371 meV
     lambda_tr(   3 )=       0.189551   gamma_tr=       0.017731 meV   omega=      5.7371 meV
     lambda___( tot )=      -0.111873
     lambda_tr( tot )=       2.604298
     -------------------------------------------------------------------


     Number of (k,k+q) pairs on the Fermi surface:      216 out of      216


     ismear =     1 iq =      61 coord.:   0.16667  0.66667  0.00000 wt:   0.00463
     -------------------------------------------------------------------
     lambda___(   1 )=       0.064517   gamma___=       0.002223 meV   omega=      3.4821 meV
     lambda_tr(   1 )=      -0.141085   gamma_tr=      -0.004862 meV   omega=      3.4821 meV
     lambda___(   2 )=       0.066945   gamma___=       0.002553 meV   omega=      3.6633 meV
     lambda_tr(   2 )=       0.339595   gamma_tr=       0.012951 meV   omega=      3.6633 meV
     lambda___(   3 )=       0.039559   gamma___=       0.002125 meV   omega=      4.3479 meV
     lambda_tr(   3 )=      -0.116293   gamma_tr=      -0.006248 meV   omega=      4.3479 meV
     lambda___( tot )=       0.171021
     lambda_tr( tot )=       0.082218
     -------------------------------------------------------------------


     Number of (k,k+q) pairs on the Fermi surface:      216 out of      216


     ismear =     1 iq =      62 coord.:   0.16667  0.66667  0.16667 wt:   0.00463
     -------------------------------------------------------------------
     lambda___(   1 )=       0.524685   gamma___=       0.011408 meV   omega=      2.7660 meV
     lambda_tr(   1 )=       0.413267   gamma_tr=       0.008986 meV   omega=      2.7660 meV
     lambda___(   2 )=      -0.189637   gamma___=      -0.005992 meV   omega=      3.3343 meV
     lambda_tr(   2 )=      -0.778386   gamma_tr=      -0.024594 meV   omega=      3.3343 meV
     lambda___(   3 )=       0.381201   gamma___=       0.035710 meV   omega=      5.7413 meV
     lambda_tr(   3 )=      -0.794078   gamma_tr=      -0.074387 meV   omega=      5.7413 meV
     lambda___( tot )=       0.716249
     lambda_tr( tot )=      -1.159198
     -------------------------------------------------------------------


     Number of (k,k+q) pairs on the Fermi surface:      216 out of      216


     ismear =     1 iq =      63 coord.:   0.16667  0.66667  0.33333 wt:   0.00463
     -------------------------------------------------------------------
     lambda___(   1 )=      -0.150739   gamma___=      -0.000337 meV   omega=      0.8871 meV
     lambda_tr(   1 )=       2.512553   gamma_tr=       0.005619 meV   omega=      0.8871 meV
     lambda___(   2 )=       0.006904   gamma___=       0.000620 meV   omega=      5.6224 meV
     lambda_tr(   2 )=      -0.005719   gamma_tr=      -0.000514 meV   omega=      5.6224 meV
     lambda___(   3 )=       0.033652   gamma___=       0.003148 meV   omega=      5.7371 meV
     lambda_tr(   3 )=       0.191822   gamma_tr=       0.017943 meV   omega=      5.7371 meV
     lambda___( tot )=      -0.110183
     lambda_tr( tot )=       2.698657
     -------------------------------------------------------------------


     Number of (k,k+q) pairs on the Fermi surface:      216 out of      216


     ismear =     1 iq =      64 coord.:   0.16667  0.66667  0.50000 wt:   0.00463
     -------------------------------------------------------------------
     lambda___(   1 )=       0.000000   gamma___=       0.000000 meV   omega=     -2.8475 meV
     lambda_tr(   1 )=       0.000000   gamma_tr=       0.000000 meV   omega=     -2.8475 meV
     lambda___(   2 )=       0.340709   gamma___=       0.011277 meV   omega=      3.4127 meV
     lambda_tr(   2 )=       0.323590   gamma_tr=       0.010710 meV   omega=      3.4127 meV
     lambda___(   3 )=       0.121498   gamma___=       0.019984 meV   omega=      7.6077 meV
     lambda_tr(   3 )=       0.132514   gamma_tr=       0.021796 meV   omega=      7.6077 meV
     lambda___( tot )=       0.462206
     lambda_tr( tot )=       0.456104
     -------------------------------------------------------------------


     Number of (k,k+q) pairs on the Fermi surface:      216 out of      216


     ismear =     1 iq =      65 coord.:   0.16667  0.66667  0.66667 wt:   0.00463
     -------------------------------------------------------------------
[...]
      211        7      6.7121    321.2225    154.3498      1.2088     -0.1727
      212        7      5.5884    519.9916    410.6470      3.2171     -0.6892
      213        7      4.6673    497.9120    269.1358      1.2762     -0.2164
      214        7      5.4585    367.1791    295.2619      1.5592     -0.3587
      215        7      6.8732    327.8758     81.7493      1.0585     -0.0553
      216        7      7.7957    266.8870     11.0470      0.9767      0.0238
  
        1        8      8.2862    216.9602      0.2245      0.9520      0.0504
        2        8      7.7982    266.4504     10.8922      0.9765      0.0241
        3        8      6.7126    414.6248     95.7718      1.0799     -0.0740
        4        8      6.1174    341.5197     21.7731      0.8636      0.1579
        5        8      6.7126    414.6249     95.7718      1.0799     -0.0740
        6        8      7.7982    266.4504     10.8923      0.9765      0.0241
        7        8      7.7982    266.4504     10.8922      0.9765      0.0241
        8        8      6.7129    321.4338    154.8397      1.2109     -0.1742
        9        8      5.5908    522.0595    414.9599      3.2871     -0.6958
       10        8      4.6703    499.6829    270.8423      1.2982     -0.2297
       11        8      5.4617    368.4812    296.8033      1.5787     -0.3666
       12        8      6.8817    326.6964     76.1512      1.0499     -0.0476
       13        8      6.7126    414.6248     95.7718      1.0799     -0.0740
       14        8      5.5908    522.0595    414.9599      3.2871     -0.6958
       15        8      3.4267    284.1740    176.3086      0.9531      0.0492
       16        8      2.3802      2.3950    549.0890      1.9897     -0.4974
       17        8      3.4954    689.6772    513.1069      1.8114     -0.4479
       18        8      5.4617    368.4813    296.8032      1.5787     -0.3666
       19        8      6.1174    341.5197     21.7731      0.8636      0.1579
       20        8      4.6703    499.6829    270.8423      1.2982     -0.2297
       21        8      2.3802      2.3950    549.0890      1.9897     -0.4974
       22        8      1.7131    392.8718     10.0223      0.7528      0.3284
       23        8      2.3802      2.3953    549.0893      1.9897     -0.4974
       24        8      4.6703    499.6831    270.8421      1.2982     -0.2297
       25        8      6.7126    414.6249     95.7718      1.0799     -0.0740
       26        8      5.4617    368.4812    296.8033      1.5787     -0.3666
       27        8      3.4954    689.6772    513.1069      1.8114     -0.4479
       28        8      2.3802      2.3953    549.0893      1.9897     -0.4974
       29        8      3.4267    284.1741    176.3086      0.9531      0.0492
       30        8      5.5908    522.0596    414.9602      3.2871     -0.6958
       31        8      7.7982    266.4504     10.8923      0.9765      0.0241
       32        8      6.8817    326.6964     76.1512      1.0499     -0.0476
       33        8      5.4617    368.4813    296.8032      1.5787     -0.3666
       34        8      4.6703    499.6831    270.8421      1.2982     -0.2297
       35        8      5.5908    522.0596    414.9602      3.2871     -0.6958
       36        8      6.7129    321.4338    154.8397      1.2109     -0.1742
       37        8      7.7982    266.4504     10.8922      0.9765      0.0241
       38        8      6.7129    321.4338    154.8397      1.2109     -0.1742
       39        8      5.5908    522.0595    414.9599      3.2871     -0.6958
       40        8      4.6703    499.6829    270.8423      1.2982     -0.2297
       41        8      5.4617    368.4812    296.8033      1.5787     -0.3666
       42        8      6.8817    326.6964     76.1512      1.0499     -0.0476
       43        8      6.7121    321.2225    154.3498      1.2088     -0.1727
       44        8      7.7982    266.4504     10.8923      0.9765      0.0241
       45        8      6.8827    326.7802     75.8287      1.0491     -0.0468
       46        8      5.4623    368.7811    297.3893      1.5846     -0.3689
       47        8      4.6689    498.9915    270.3715      1.2928     -0.2265
       48        8      5.5902    521.5810    415.4758      3.3078     -0.6977
       49        8      5.5902    521.5809    415.4754      3.3077     -0.6977
       50        8      6.8817    326.6964     76.1512      1.0499     -0.0476
       51        8      5.5908    522.0596    414.9602      3.2871     -0.6958
       52        8      4.0623    579.1000    945.1811     -2.1865     -1.4573
       53        8      2.9909    549.4385   1514.7386     -1.3705     -1.7297
       54        8      4.0609    576.7649    946.8218     -2.1592     -1.4631
       55        8      4.6689    498.9913    270.3716      1.2928     -0.2265
       56        8      5.4617    368.4813    296.8032      1.5787     -0.3666
       57        8      4.0621    578.3113    944.3103     -2.2072     -1.4531
       58        8      2.3802      2.3953    549.0893      1.9897     -0.4974
       59        8      1.4397    470.6725    364.6036      0.9500      0.0527
       60        8      2.9909    549.4382   1514.7398     -1.3705     -1.7297
       61        8      5.4623    368.7809    297.3891      1.5846     -0.3689
       62        8      4.6703    499.6831    270.8421      1.2982     -0.2297
       63        8      2.9903    548.9437   1515.8580     -1.3603     -1.7351
       64        8      1.4368    470.7878    367.5851      0.9564      0.0456
       65        8      2.3802      2.3950    549.0890      1.9897     -0.4974
       66        8      4.0623    579.1000    945.1811     -2.1865     -1.4573
       67        8      6.8827    326.7802     75.8287      1.0491     -0.0468
       68        8      5.5908    522.0596    414.9602      3.2871     -0.6958
       69        8      4.0621    578.3113    944.3103     -2.2072     -1.4531
       70        8      2.9903    548.9437   1515.8580     -1.3603     -1.7351
       71        8      4.0621    578.3113    944.3103     -2.2072     -1.4531
       72        8      5.5908    522.0595    414.9599      3.2871     -0.6958
       73        8      6.7126    414.6248     95.7718      1.0799     -0.0740
       74        8      5.5908    522.0596    414.9599      3.2871     -0.6958
       75        8      3.4267    284.1741    176.3086      0.9531      0.0492
       76        8      2.3802      2.3950    549.0890      1.9897     -0.4974
       77        8      3.4954    689.6772    513.1069      1.8114     -0.4479
       78        8      5.4617    368.4813    296.8032      1.5787     -0.3666
       79        8      5.5902    521.5809    415.4754      3.3077     -0.6977
       80        8      6.8817    326.6964     76.1512      1.0499     -0.0476
       81        8      5.5908    522.0596    414.9602      3.2871     -0.6958
       82        8      4.0623    579.1000    945.1811     -2.1865     -1.4573
       83        8      2.9909    549.4385   1514.7386     -1.3705     -1.7297
       84        8      4.0609    576.7649    946.8219     -2.1592     -1.4631
       85        8      3.4267    284.1613    176.3274      0.9532      0.0491
       86        8      5.5902    521.5809    415.4758      3.3078     -0.6977
       87        8      6.7126    414.6249     95.7718      1.0799     -0.0740
       88        8      5.4623    368.7809    297.3891      1.5846     -0.3689
       89        8      3.4954    689.6498    513.0969      1.8112     -0.4479
       90        8      2.3795     -0.0973    547.0867      1.9695     -0.4923
       91        8      2.3795     -0.0971    547.0867      1.9695     -0.4923
       92        8      4.0609    576.7649    946.8218     -2.1592     -1.4631
       93        8      5.4617    368.4812    296.8033      1.5787     -0.3666
       94        8      4.6703    499.6831    270.8421      1.2982     -0.2297
       95        8      2.9909    549.4382   1514.7398     -1.3705     -1.7297
       96        8      1.4395    470.6547    364.6874      0.9494      0.0533
       97        8      3.4954    689.6498    513.0969      1.8112     -0.4479
       98        8      2.9909    549.4382   1514.7398     -1.3705     -1.7297
       99        8      3.4954    689.6772    513.1069      1.8114     -0.4479
      100        8      2.9903    548.9437   1515.8580     -1.3603     -1.7351
      101        8      3.4954    689.6772    513.1069      1.8114     -0.4479
      102        8      2.9909    549.4385   1514.7386     -1.3705     -1.7297
      103        8      5.4623    368.7811    297.3893      1.5846     -0.3689
      104        8      4.0623    579.1000    945.1811     -2.1865     -1.4573
      105        8      2.3802      2.3953    549.0893      1.9897     -0.4974
      106        8      1.4368    470.7878    367.5851      0.9564      0.0456
      107        8      2.9903    548.9437   1515.8580     -1.3603     -1.7351
      108        8      4.6703    499.6829    270.8423      1.2982     -0.2297
      109        8      6.1174    341.5197     21.7731      0.8636      0.1579
      110        8      4.6703    499.6830    270.8423      1.2982     -0.2297
      111        8      2.3802      2.3950    549.0890      1.9897     -0.4974
      112        8      1.7131    392.8718     10.0223      0.7528      0.3284
      113        8      2.3802      2.3953    549.0893      1.9897     -0.4974
      114        8      4.6703    499.6831    270.8421      1.2982     -0.2297
      115        8      4.6689    498.9913    270.3716      1.2928     -0.2265
      116        8      5.4617    368.4813    296.8033      1.5787     -0.3666
      117        8      4.0621    578.3113    944.3103     -2.2072     -1.4531
      118        8      2.3802      2.3953    549.0893      1.9897     -0.4974
      119        8      1.4397    470.6725    364.6035      0.9500      0.0527
      120        8      2.9909    549.4382   1514.7398     -1.3705     -1.7297
      121        8      2.3795     -0.0971    547.0867      1.9695     -0.4923
      122        8      4.0609    576.7649    946.8218     -2.1592     -1.4631
      123        8      5.4617    368.4812    296.8033      1.5787     -0.3666
      124        8      4.6703    499.6831    270.8421      1.2982     -0.2297
      125        8      2.9909    549.4382   1514.7398     -1.3705     -1.7297
      126        8      1.4395    470.6547    364.6874      0.9494      0.0533
      127        8      1.7143    392.4575      9.8211      0.7528      0.3283
      128        8      2.3795     -0.0973    547.0867      1.9695     -0.4923
      129        8      4.6689    498.9915    270.3715      1.2928     -0.2265
      130        8      6.1174    341.5197     21.7731      0.8636      0.1579
      131        8      4.6689    498.9913    270.3716      1.2928     -0.2265
      132        8      2.3795     -0.0971    547.0867      1.9695     -0.4923
      133        8      2.3795     -0.0973    547.0867      1.9695     -0.4923
      134        8      1.4395    470.6547    364.6874      0.9494      0.0533
      135        8      2.9909    549.4385   1514.7387     -1.3705     -1.7297
      136        8      4.6703    499.6829    270.8423      1.2982     -0.2297
      137        8      5.4617    368.4813    296.8032      1.5787     -0.3666
      138        8      4.0609    576.7649    946.8218     -2.1592     -1.4631
      139        8      4.6689    498.9915    270.3715      1.2928     -0.2265
      140        8      2.9909    549.4385   1514.7387     -1.3705     -1.7297
      141        8      1.4397    470.6725    364.6036      0.9500      0.0527
      142        8      2.3802      2.3950    549.0890      1.9897     -0.4974
      143        8      4.0621    578.3113    944.3103     -2.2072     -1.4531
      144        8      5.4617    368.4812    296.8033      1.5787     -0.3666
      145        8      6.7126    414.6249     95.7718      1.0799     -0.0740
      146        8      5.4617    368.4812    296.8033      1.5787     -0.3666
      147        8      3.4954    689.6772    513.1069      1.8114     -0.4479
      148        8      2.3802      2.3953    549.0893      1.9897     -0.4974
      149        8      3.4267    284.1741    176.3086      0.9531      0.0492
      150        8      5.5908    522.0596    414.9602      3.2871     -0.6958
      151        8      5.4623    368.7809    297.3891      1.5846     -0.3689
      152        8      4.6703    499.6831    270.8421      1.2982     -0.2297
      153        8      2.9903    548.9437   1515.8580     -1.3603     -1.7351
      154        8      1.4368    470.7878    367.5851      0.9564      0.0456
      155        8      2.3802      2.3950    549.0890      1.9897     -0.4974
      156        8      4.0623    579.1000    945.1811     -2.1865     -1.4573
      157        8      3.4954    689.6498    513.0969      1.8112     -0.4479
      158        8      2.9909    549.4382   1514.7398     -1.3705     -1.7297
      159        8      3.4954    689.6772    513.1069      1.8114     -0.4479
      160        8      2.9903    548.9437   1515.8581     -1.3603     -1.7351
      161        8      3.4954    689.6772    513.1069      1.8114     -0.4479
      162        8      2.9909    549.4385   1514.7386     -1.3705     -1.7297
      163        8      2.3795     -0.0973    547.0867      1.9695     -0.4923
      164        8      1.4395    470.6547    364.6874      0.9494      0.0533
      165        8      2.9909    549.4385   1514.7387     -1.3705     -1.7297
      166        8      4.6703    499.6829    270.8423      1.2982     -0.2297
      167        8      5.4617    368.4813    296.8032      1.5787     -0.3666
      168        8      4.0609    576.7649    946.8218     -2.1592     -1.4631
      169        8      3.4267    284.1613    176.3274      0.9532      0.0491
      170        8      2.3795     -0.0971    547.0867      1.9695     -0.4923
      171        8      3.4954    689.6498    513.0969      1.8112     -0.4479
      172        8      5.4623    368.7811    297.3893      1.5846     -0.3689
      173        8      6.7126    414.6248     95.7718      1.0799     -0.0740
      174        8      5.5902    521.5809    415.4754      3.3077     -0.6977
      175        8      5.5902    521.5809    415.4758      3.3078     -0.6977
      176        8      4.0609    576.7649    946.8218     -2.1592     -1.4631
      177        8      2.9909    549.4382   1514.7398     -1.3705     -1.7297
      178        8      4.0623    579.1000    945.1811     -2.1865     -1.4573
      179        8      5.5908    522.0595    414.9599      3.2871     -0.6958
      180        8      6.8817    326.6964     76.1512      1.0499     -0.0476
      181        8      7.7982    266.4504     10.8923      0.9765      0.0241
      182        8      6.8817    326.6964     76.1512      1.0499     -0.0476
      183        8      5.4617    368.4813    296.8032      1.5787     -0.3666
      184        8      4.6703    499.6831    270.8421      1.2982     -0.2297
      185        8      5.5908    522.0596    414.9602      3.2871     -0.6958
      186        8      6.7129    321.4338    154.8397      1.2109     -0.1742
      187        8      6.8827    326.7802     75.8287      1.0491     -0.0468
      188        8      5.5908    522.0596    414.9602      3.2871     -0.6958
      189        8      4.0621    578.3113    944.3103     -2.2072     -1.4531
      190        8      2.9903    548.9437   1515.8580     -1.3603     -1.7351
      191        8      4.0621    578.3113    944.3103     -2.2072     -1.4531
      192        8      5.5908    522.0595    414.9599      3.2871     -0.6958
      193        8      5.4623    368.7811    297.3893      1.5846     -0.3689
      194        8      4.0623    579.1000    945.1811     -2.1865     -1.4573
      195        8      2.3802      2.3953    549.0893      1.9897     -0.4974
      196        8      1.4368    470.7878    367.5851      0.9564      0.0456
      197        8      2.9903    548.9437   1515.8581     -1.3603     -1.7351
      198        8      4.6703    499.6829    270.8423      1.2982     -0.2297
      199        8      4.6689    498.9915    270.3715      1.2928     -0.2265
      200        8      2.9909    549.4385   1514.7386     -1.3705     -1.7297
      201        8      1.4397    470.6725    364.6035      0.9500      0.0527
      202        8      2.3802      2.3950    549.0890      1.9897     -0.4974
      203        8      4.0621    578.3113    944.3103     -2.2072     -1.4531
      204        8      5.4617    368.4812    296.8033      1.5787     -0.3666
      205        8      5.5902    521.5809    415.4758      3.3078     -0.6977
      206        8      4.0609    576.7649    946.8218     -2.1592     -1.4631
      207        8      2.9909    549.4382   1514.7398     -1.3705     -1.7297
      208        8      4.0623    579.1000    945.1811     -2.1865     -1.4573
      209        8      5.5908    522.0595    414.9599      3.2871     -0.6958
      210        8      6.8817    326.6964     76.1512      1.0499     -0.0476
      211        8      6.7121    321.2225    154.3498      1.2088     -0.1727
      212        8      5.5902    521.5810    415.4754      3.3077     -0.6977
      213        8      4.6689    498.9913    270.3716      1.2928     -0.2265
      214        8      5.4623    368.7809    297.3891      1.5846     -0.3689
      215        8      6.8827    326.7802     75.8287      1.0491     -0.0468
      216        8      7.7982    266.4504     10.8922      0.9765      0.0241
  
     ===================================================================
     Memory usage:  VmHWM =       113Mb
                   VmPeak =       457Mb
     ===================================================================


     ===================================================================
     Eliashberg Spectral Function in the Migdal Approximation
     ===================================================================

     lambda :    1.0134613
     lambda_tr :    1.4887466
 
     Estimated Allen-Dynes Tc
 
     logavg =    0.0001692 l_a2f =    1.0146175
     mu =   0.10 Tc =         1.901837419785 K
     mu =   0.12 Tc =         1.724562220091 K
     mu =   0.14 Tc =         1.551185873131 K
     mu =   0.16 Tc =         1.382521556598 K
     mu =   0.18 Tc =         1.219450657259 K
     mu =   0.20 Tc =         1.062918587886 K
     a2F          :      0.05s CPU      0.08s WALL (       1 calls)

     Unfolding on the coarse grid
     elphon_wrap  :     17.87s CPU     19.31s WALL (       1 calls)

     INITIALIZATION: 

     init_vloc    :      0.00s CPU      0.00s WALL (       1 calls)
     init_us_1    :      0.07s CPU      0.07s WALL (       2 calls)



     Electron-Phonon interpolation
     ephwann      :      1.23s CPU      1.58s WALL (       1 calls)
     ep-interp    :      1.03s CPU      1.19s WALL (     216 calls)
     PH SELF-ENER :      0.10s CPU      0.11s WALL (     216 calls)

     Ham: step 1  :      0.00s CPU      0.00s WALL (       1 calls)
     Ham: step 2  :      0.00s CPU      0.00s WALL (       1 calls)
     ep: step 1   :      0.00s CPU      0.00s WALL (      81 calls)
     ep: step 2   :      1.18s CPU      1.53s WALL (       1 calls)
     DynW2B       :      0.00s CPU      0.00s WALL (     216 calls)
     HamW2B       :      0.33s CPU      0.38s WALL (   23490 calls)
     ephW2Bp      :      0.07s CPU      0.11s WALL (     216 calls)
     ephW2B       :      0.08s CPU      0.09s WALL (   11664 calls)


     Total program execution
     EPW          :     21.30s CPU     23.53s WALL

                                                                                          
 Please consider citing:                                                                  
 S. Ponce, E. R. Margine, C. Verdi and F. Giustino, Comput. Phys. Commun. 209, 116 (2016) 
                                                                                          
