                                                                                      
                                       ``:oss/                                        
                           `.+s+.     .+ys--yh+     `./ss+.                           
                          -sh//yy+`   +yy   +yy    -+h+-oyy                           
                          -yh- .oyy/.-sh.   .syo-.:sy-  /yh                           
                 `.-.`    `yh+   -oyyyo.     `/syys:    oys      `.`                  
               `/+ssys+-` `sh+      `                   oys`   .:osyo`                
               -yh- ./syyooyo`                          .sys+/oyo--yh/                
               `yy+    .-:-.                             `-/+/:`  -sh-                
                /yh.                                              oys                 
          ``..---hho---------`   .---------..`      `.-----.`    -hd+---.             
       `./osmNMMMMMMMMMMMMMMMs. +NNMMMMMMMMNNmh+.   yNMMMMMNm-  oNMMMMMNmo++:`        
       +sy--/sdMMMhyyyyyyyNMMh- .oyNMMmyyyyyhNMMm+` -yMMMdyyo:` .oyyNMMNhs+syy`       
       -yy/   /MMM+.`-+/``mMMy-   `mMMh:`````.dMMN:` `MMMy-`-dhhy```mMMy:``+hs        
        -yy+` /MMMo:-mMM+`-oo/.    mMMh:     `dMMN/`  dMMm:`dMMMMy..MMMo-.+yo`        
         .sys`/MMMMNNMMMs-         mMMmyooooymMMNo:   oMMM/sMMMMMM++MMN//oh:          
          `sh+/MMMhyyMMMs- `-`     mMMMMMMMMMNmy+-`   -MMMhMMMsmMMmdMMd/yy+           
    `-/+++oyy-/MMM+.`/hh/.`mNm:`   mMMd+/////:-.`      NMMMMMd/:NMMMMMy:/yyo/:.`      
   +os+//:-..-oMMMo:--:::-/MMMo. .-mMMd+---`           hMMMMN+. oMMMMMo. `-+osyso:`   
   syo     `mNMMMMMNNNNNNNNMMMo.oNNMMMMMNNNN:`         +MMMMs:`  dMMMN/`     ``:syo   
   /yh`     :syyyyyyyyyyyyyyyy+.`+syyyyyyyyo:`         .oyys:`   .oyys:`        +yh   
   -yh-        ````````````````    `````````              ``        ``          oys   
   -+h/------------------------::::::::://////++++++++++++++++++++++///////::::/yd:   
   shdddddddddddddddddddddddddddddhhhhhhhhyyyyyssssssssssssssssyyyyyyyhhhhhhhddddh`   
                                                                                      
  S. Ponce, E. R. Margine, C. Verdi, and F. Giustino,                                 
                                                Comput. Phys. Commun. 209, 116 (2016) 
                                                                                      

     Program EPW v.4.2.0 (svn rev. 13615) starts on 25Jul2017 at 12:16:58 

     This program is part of the open-source Quantum ESPRESSO suite
     for quantum simulation of materials; please cite
         "P. Giannozzi et al., J. Phys.:Condens. Matter 21 395502 (2009);
          URL http://www.quantum-espresso.org", 
     in publications or presentations arising from this work. More details at
     http://www.quantum-espresso.org/quote

     Parallel version (MPI), running on     4 processors
     K-points division:     npool     =       4

     Reading data from directory:
     ./pb.save/

   Info: using nr1, nr2, nr3 values from input

   Info: using nr1, nr2, nr3 values from input

     IMPORTANT: XC functional enforced from input :
     Exchange-correlation      = PZ ( 1  1  0  0 0 0)
     Any further DFT definition will be discarded
     Please, verify this is what you really want


     G-vector sticks info
     --------------------
     sticks:   dense  smooth     PW     G-vecs:    dense   smooth      PW
     Sum         703     703    211                12387    12387    2109


     --                                                                         

     bravais-lattice index     =            2
     lattice parameter (a_0)   =       9.2700  a.u.
     unit-cell volume          =     199.1495 (a.u.)^3
     number of atoms/cell      =            1
     number of atomic types    =            1
     kinetic-energy cut-off    =      60.0000  Ry
     charge density cut-off    =     240.0000  Ry
     convergence threshold     =      0.0E+00
     beta                      =       0.0000
     number of iterations used =            0
     Exchange-correlation      = PZ ( 1  1  0  0 0 0)


     celldm(1)=    9.27000  celldm(2)=    0.00000  celldm(3)=    0.00000
     celldm(4)=    0.00000  celldm(5)=    0.00000  celldm(6)=    0.00000

     crystal axes: (cart. coord. in units of a_0)
               a(1) = ( -0.5000  0.0000  0.5000 )  
               a(2) = (  0.0000  0.5000  0.5000 )  
               a(3) = ( -0.5000  0.5000  0.0000 )  

     reciprocal axes: (cart. coord. in units 2 pi/a_0)
               b(1) = ( -1.0000 -1.0000  1.0000 )  
               b(2) = (  1.0000  1.0000  1.0000 )  
               b(3) = ( -1.0000  1.0000 -1.0000 )  


     Atoms inside the unit cell: 

   Cartesian axes

     site n.  atom      mass           positions (a_0 units)
        1        Pb 207.2175   tau( 1) = (    0.00000    0.00000    0.00000  )

     49 Sym.Ops. (with q -> -q+G )


     G cutoff =  522.4094  (  12387 G-vectors)     FFT grid: ( 36, 36, 36)
     number of k points=   27  gaussian broad. (Ry)=  0.0200     ngauss =   1
                       cart. coord. in units 2pi/a_0
        k(    1) = (   0.0000000   0.0000000   0.0000000), wk =   0.0370370
        k(    2) = (  -0.3333333   0.3333333  -0.3333333), wk =   0.0370370
        k(    3) = (  -0.6666667   0.6666667  -0.6666667), wk =   0.0370370
        k(    4) = (   0.3333333   0.3333333   0.3333333), wk =   0.0370370
        k(    5) = (   0.0000000   0.6666667   0.0000000), wk =   0.0370370
        k(    6) = (  -0.3333333   1.0000000  -0.3333333), wk =   0.0370370
        k(    7) = (   0.6666667   0.6666667   0.6666667), wk =   0.0370370
        k(    8) = (   0.3333333   1.0000000   0.3333333), wk =   0.0370370
        k(    9) = (   0.0000000   1.3333333   0.0000000), wk =   0.0370370
        k(   10) = (  -0.3333333  -0.3333333   0.3333333), wk =   0.0370370
        k(   11) = (  -0.6666667   0.0000000   0.0000000), wk =   0.0370370
        k(   12) = (  -1.0000000   0.3333333  -0.3333333), wk =   0.0370370
        k(   13) = (   0.0000000   0.0000000   0.6666667), wk =   0.0370370
        k(   14) = (  -0.3333333   0.3333333   0.3333333), wk =   0.0370370
        k(   15) = (  -0.6666667   0.6666667  -0.0000000), wk =   0.0370370
        k(   16) = (   0.3333333   0.3333333   1.0000000), wk =   0.0370370
        k(   17) = (   0.0000000   0.6666667   0.6666667), wk =   0.0370370
        k(   18) = (  -0.3333333   1.0000000   0.3333333), wk =   0.0370370
        k(   19) = (  -0.6666667  -0.6666667   0.6666667), wk =   0.0370370
        k(   20) = (  -1.0000000  -0.3333333   0.3333333), wk =   0.0370370
        k(   21) = (  -1.3333333   0.0000000   0.0000000), wk =   0.0370370
        k(   22) = (  -0.3333333  -0.3333333   1.0000000), wk =   0.0370370
        k(   23) = (  -0.6666667  -0.0000000   0.6666667), wk =   0.0370370
        k(   24) = (  -1.0000000   0.3333333   0.3333333), wk =   0.0370370
        k(   25) = (   0.0000000   0.0000000   1.3333333), wk =   0.0370370
        k(   26) = (  -0.3333333   0.3333333   1.0000000), wk =   0.0370370
        k(   27) = (  -0.6666667   0.6666667   0.6666667), wk =   0.0370370

     PseudoPot. # 1 for Pb read from file:
     ./pb_s.UPF
     MD5 check sum: 7774f596943a2055f0d8d19eea6f2ae8
     Pseudo is Norm-conserving, Zval = 14.0
     Generated using "atomic" code by A. Dal Corso  (Quantum ESPRESSO distribution)
     Using radial grid of 1281 points,  4 beta functions with: 
                l(1) =   2
                l(2) =   2
                l(3) =   1
                l(4) =   1
     EPW          :     0.26s CPU         0.27s WALL

     EPW          :     0.56s CPU         0.58s WALL

     No wavefunction gauge setting applied
     -------------------------------------------------------------------
     Wannierization on  3 x  3 x  3 electronic grid
     -------------------------------------------------------------------

     Spin CASE ( non-collinear )

     Initializing Wannier90


     Initial Wannier projections

     (   0.00000   0.00000   0.00000) :  l =  -3 mr =   1
     (   0.00000   0.00000   0.00000) :  l =  -3 mr =   1
     (   0.00000   0.00000   0.00000) :  l =  -3 mr =   2
     (   0.00000   0.00000   0.00000) :  l =  -3 mr =   2
     (   0.00000   0.00000   0.00000) :  l =  -3 mr =   3
     (   0.00000   0.00000   0.00000) :  l =  -3 mr =   3
     (   0.00000   0.00000   0.00000) :  l =  -3 mr =   4
     (   0.00000   0.00000   0.00000) :  l =  -3 mr =   4

      - Number of bands is ( 22)
      - Number of wannier functions is (  8)
      - All guiding functions are given 

  Reading data about k-point neighbours 

      - All neighbours are found 

     AMN
      k points =    27 in    4 pools
            1 of    7 on ionode
            2 of    7 on ionode
            3 of    7 on ionode
            4 of    7 on ionode
            5 of    7 on ionode
            6 of    7 on ionode
            7 of    7 on ionode

     AMN calculated

     MMN
      k points =    27 in    4 pools
            1 of    7 on ionode
            2 of    7 on ionode
            3 of    7 on ionode
            4 of    7 on ionode
            5 of    7 on ionode
            6 of    7 on ionode
            7 of    7 on ionode
     MMN calculated

     Running Wannier90

     Wannier Function centers (cartesian, alat) and spreads (ang):

     (   0.08272   0.08272   0.08272) :   1.60664
     (   0.08272   0.08272   0.08272) :   1.60664
     (   0.08272  -0.08272  -0.08272) :   1.60664
     (   0.08272  -0.08272  -0.08272) :   1.60664
     (  -0.08272   0.08272  -0.08272) :   1.60664
     (  -0.08272   0.08272  -0.08272) :   1.60664
     (  -0.08272  -0.08272   0.08272) :   1.60664
     (  -0.08272  -0.08272   0.08272) :   1.60664

     -------------------------------------------------------------------
     WANNIER      :      8.31s CPU      8.39s WALL (       1 calls)
     -------------------------------------------------------------------

     Dipole matrix elements calculated


     Calculating kmap and kgmap
     Progress  kmap: ###########################
     Progress kgmap: ########################################
     kmaps        :      2.70s CPU      2.72s WALL (       1 calls)
     Symmetries of bravais lattice:  48
     Symmetries of crystal:          48


     ===================================================================
     irreducible q point #    1
     ===================================================================

     Symmetries of small group of q: 48
          in addition sym. q -> -q+G:

     Number of q in the star =    1
     List of q in the star:
          1   0.000000000   0.000000000   0.000000000
        Imposing acoustic sum rule on the dynamical matrix

        q(    1 ) = (   0.0000000   0.0000000   0.0000000 )


     ===================================================================
     irreducible q point #    2
     ===================================================================

     Symmetries of small group of q:  6

     Number of q in the star =    8
     List of q in the star:
          1  -0.333333333   0.333333333  -0.333333333
          2   0.333333333   0.333333333  -0.333333333
          3   0.333333333   0.333333333   0.333333333
          4  -0.333333333   0.333333333   0.333333333
          5   0.333333333  -0.333333333   0.333333333
          6  -0.333333333  -0.333333333  -0.333333333
          7   0.333333333  -0.333333333  -0.333333333
          8  -0.333333333  -0.333333333   0.333333333

        q(    2 ) = (  -0.3333333   0.3333333  -0.3333333 )
        q(    3 ) = (   0.3333333   0.3333333  -0.3333333 )
        q(    4 ) = (   0.3333333   0.3333333   0.3333333 )
        q(    5 ) = (  -0.3333333   0.3333333   0.3333333 )
        q(    6 ) = (   0.3333333  -0.3333333   0.3333333 )
        q(    7 ) = (  -0.3333333  -0.3333333  -0.3333333 )
        q(    8 ) = (   0.3333333  -0.3333333  -0.3333333 )
        q(    9 ) = (  -0.3333333  -0.3333333   0.3333333 )


     ===================================================================
     irreducible q point #    3
     ===================================================================

     Symmetries of small group of q:  8

     Number of q in the star =    6
     List of q in the star:
          1   0.000000000   0.666666667   0.000000000
          2  -0.666666667   0.000000000   0.000000000
          3   0.000000000  -0.666666667   0.000000000
          4   0.000000000   0.000000000   0.666666667
          5   0.000000000   0.000000000  -0.666666667
          6   0.666666667   0.000000000   0.000000000

        q(   10 ) = (   0.0000000   0.6666667   0.0000000 )
        q(   11 ) = (  -0.6666667   0.0000000   0.0000000 )
        q(   12 ) = (   0.0000000  -0.6666667   0.0000000 )
        q(   13 ) = (   0.0000000   0.0000000   0.6666667 )
        q(   14 ) = (   0.0000000   0.0000000  -0.6666667 )
        q(   15 ) = (   0.6666667   0.0000000   0.0000000 )


     ===================================================================
     irreducible q point #    4
     ===================================================================

     Symmetries of small group of q:  4

     Number of q in the star =   12
     List of q in the star:
          1   0.666666667   0.000000000   0.666666667
          2   0.666666667   0.000000000  -0.666666667
          3  -0.666666667   0.000000000  -0.666666667
          4  -0.666666667   0.000000000   0.666666667
          5   0.000000000  -0.666666667   0.666666667
          6  -0.666666667   0.666666667   0.000000000
          7  -0.666666667  -0.666666667   0.000000000
          8   0.666666667   0.666666667   0.000000000
          9   0.666666667  -0.666666667   0.000000000
         10   0.000000000   0.666666667   0.666666667
         11   0.000000000   0.666666667  -0.666666667
         12   0.000000000  -0.666666667  -0.666666667

        q(   16 ) = (   0.6666667   0.0000000   0.6666667 )
        q(   17 ) = (   0.6666667   0.0000000  -0.6666667 )
        q(   18 ) = (  -0.6666667   0.0000000  -0.6666667 )
        q(   19 ) = (  -0.6666667   0.0000000   0.6666667 )
        q(   20 ) = (   0.0000000  -0.6666667   0.6666667 )
        q(   21 ) = (  -0.6666667   0.6666667   0.0000000 )
        q(   22 ) = (  -0.6666667  -0.6666667   0.0000000 )
        q(   23 ) = (   0.6666667   0.6666667   0.0000000 )
        q(   24 ) = (   0.6666667  -0.6666667   0.0000000 )
        q(   25 ) = (   0.0000000   0.6666667   0.6666667 )
        q(   26 ) = (   0.0000000   0.6666667  -0.6666667 )
        q(   27 ) = (   0.0000000  -0.6666667  -0.6666667 )

     Writing epmatq on .epb files


     The .epb files have been correctly written


              band disentanglement is used:  nbndsub =    8

     Writing Hamiltonian, Dynamical matrix and EP vertex in Wann rep to file


     Reading Hamiltonian, Dynamical matrix and EP vertex in Wann rep from file


     Finished reading Wann rep data from file

     ===================================================================
     Memory usage:  VmHWM =        77Mb
                   VmPeak =       483Mb
     ===================================================================
     
     Using uniform q-mesh:    6   6   6
     Size of q point mesh for interpolation:        216
     Using uniform k-mesh:    6   6   6
     Size of k point mesh for interpolation:        432
     Max number of k points per pool:              108

     Fermi energy coarse grid =  10.121992 eV

     Skipping the first   10 bands:

     The Fermi level will be determined with   4.00000 electrons

     Fermi energy is calculated from the fine k-mesh: Ef =  11.622359 eV

     Warning: check if difference with Fermi level fine grid makes sense

     ===================================================================

              ibndmin =     1  ebndmin =    -0.040
              ibndmax =     8  ebndmax =     1.463


     Number of ep-matrix elements per pool :        10368 ~=   81.00 Kb (@ 8 bytes/ DP)

     ===================================================================
     Phonon (Imaginary) Self-Energy in the Migdal Approximation
     ===================================================================


     Fermi Surface thickness =  20.000000 eV

     Golden Rule strictly enforced with T =   0.043087 eV
     Gaussian Broadening:   0.200000 eV, ngauss=   1
     DOS =  0.904603 states/spin/eV/Unit Cell at Ef= 11.622359 eV

     ismear =     1 iq =       1 coord.:   0.00000  0.00000  0.00000 wt:   0.00463
     -------------------------------------------------------------------
     lambda___(   1 )=       0.000000   gamma___=       0.000000 meV   omega=      0.0000 meV
     lambda_tr(   1 )=       0.000000   gamma_tr=       0.000000 meV   omega=      0.0000 meV
     lambda___(   2 )=       0.000000   gamma___=       0.000000 meV   omega=      0.0000 meV
     lambda_tr(   2 )=       0.000000   gamma_tr=       0.000000 meV   omega=      0.0000 meV
     lambda___(   3 )=       0.000000   gamma___=       0.000000 meV   omega=      0.0000 meV
     lambda_tr(   3 )=       0.000000   gamma_tr=       0.000000 meV   omega=      0.0000 meV
     lambda( tot )=       0.000000
     lambda_tr( tot )=       0.000000
     -------------------------------------------------------------------


     Number of (k,k+q) pairs on the Fermi surface:      216 out of      216


     ===================================================================
     Electron (Imaginary) Self-Energy in the Migdal Approximation
     ===================================================================


     Fermi Surface thickness =  20.000000 eV

     Golden Rule strictly enforced with T =   0.043087 eV
     Gaussian Broadening:   0.200000 eV, ngauss=   1
     DOS =  0.904603 states/spin/eV/Unit Cell at Ef= 11.622359 eV
 

     ismear =     1 iq =       2 coord.:   0.00000  0.00000  0.16667 wt:   0.00463
     -------------------------------------------------------------------
     lambda___(   1 )=       0.000000   gamma___=       0.000000 meV   omega=     -1.2052 meV
     lambda_tr(   1 )=       0.000000   gamma_tr=       0.000000 meV   omega=     -1.2052 meV
     lambda___(   2 )=       0.000000   gamma___=       0.000000 meV   omega=     -1.2052 meV
     lambda_tr(   2 )=       0.000000   gamma_tr=       0.000000 meV   omega=     -1.2052 meV
     lambda___(   3 )=       0.000000   gamma___=       0.000000 meV   omega=      0.4924 meV
     lambda_tr(   3 )=       0.000000   gamma_tr=       0.000000 meV   omega=      0.4924 meV
     lambda( tot )=       0.000000
     lambda_tr( tot )=       0.000000
     -------------------------------------------------------------------


     Number of (k,k+q) pairs on the Fermi surface:      216 out of      216


     ismear =     1 iq =       3 coord.:   0.00000  0.00000  0.33333 wt:   0.00463
     -------------------------------------------------------------------
     lambda___(   1 )=       0.320919   gamma___=       0.005267 meV   omega=      2.4032 meV
     lambda_tr(   1 )=     -19.689520   gamma_tr=      -0.323153 meV   omega=      2.4032 meV
     lambda___(   2 )=       0.321073   gamma___=       0.005270 meV   omega=      2.4032 meV
     lambda_tr(   2 )=     -19.695086   gamma_tr=      -0.323245 meV   omega=      2.4032 meV
     lambda___(   3 )=       0.571262   gamma___=       0.017944 meV   omega=      3.3246 meV
     lambda_tr(   3 )=     -25.301016   gamma_tr=      -0.794721 meV   omega=      3.3246 meV
     lambda( tot )=       1.213255
     lambda_tr( tot )=     -64.685622
     -------------------------------------------------------------------


     Number of (k,k+q) pairs on the Fermi surface:      216 out of      216


     ismear =     1 iq =       4 coord.:   0.00000  0.00000  0.50000 wt:   0.00463
     -------------------------------------------------------------------
     lambda___(   1 )=       0.000000   gamma___=       0.000000 meV   omega=      3.8020 meV
     lambda_tr(   1 )=       0.000000   gamma_tr=       0.000000 meV   omega=      3.8020 meV
     lambda___(   2 )=       0.000000   gamma___=       0.000000 meV   omega=      3.8020 meV
     lambda_tr(   2 )=       0.000000   gamma_tr=       0.000000 meV   omega=      3.8020 meV
     lambda___(   3 )=       0.000000   gamma___=       0.000000 meV   omega=      4.6498 meV
     lambda_tr(   3 )=       0.000000   gamma_tr=       0.000000 meV   omega=      4.6498 meV
     lambda( tot )=       0.000000
     lambda_tr( tot )=       0.000000
     -------------------------------------------------------------------


     Number of (k,k+q) pairs on the Fermi surface:      216 out of      216


     ismear =     1 iq =       5 coord.:   0.00000  0.00000  0.66667 wt:   0.00463
     -------------------------------------------------------------------
     lambda___(   1 )=       0.319379   gamma___=       0.005242 meV   omega=      2.4032 meV
     lambda_tr(   1 )=     -18.477692   gamma_tr=      -0.303264 meV   omega=      2.4032 meV
     lambda___(   2 )=       0.311263   gamma___=       0.005109 meV   omega=      2.4032 meV
     lambda_tr(   2 )=     -17.812399   gamma_tr=      -0.292345 meV   omega=      2.4032 meV
     lambda___(   3 )=       0.574469   gamma___=       0.018044 meV   omega=      3.3246 meV
     lambda_tr(   3 )=     -23.995904   gamma_tr=      -0.753727 meV   omega=      3.3246 meV
     lambda( tot )=       1.205110
     lambda_tr( tot )=     -60.285995
     -------------------------------------------------------------------


     Number of (k,k+q) pairs on the Fermi surface:      216 out of      216


     ismear =     1 iq =       6 coord.:   0.00000  0.00000  0.83333 wt:   0.00463
     -------------------------------------------------------------------
     lambda___(   1 )=       0.000000   gamma___=       0.000000 meV   omega=     -1.2052 meV
     lambda_tr(   1 )=       0.000000   gamma_tr=       0.000000 meV   omega=     -1.2052 meV
     lambda___(   2 )=       0.000000   gamma___=       0.000000 meV   omega=     -1.2052 meV
     lambda_tr(   2 )=       0.000000   gamma_tr=       0.000000 meV   omega=     -1.2052 meV
     lambda___(   3 )=       0.000000   gamma___=       0.000000 meV   omega=      0.4924 meV
     lambda_tr(   3 )=       0.000000   gamma_tr=       0.000000 meV   omega=      0.4924 meV
     lambda( tot )=       0.000000
     lambda_tr( tot )=       0.000000
     -------------------------------------------------------------------


     Number of (k,k+q) pairs on the Fermi surface:      216 out of      216


     ismear =     1 iq =       7 coord.:   0.00000  0.16667  0.00000 wt:   0.00463
     -------------------------------------------------------------------
     lambda___(   1 )=       0.000000   gamma___=       0.000000 meV   omega=     -1.2052 meV
     lambda_tr(   1 )=       0.000000   gamma_tr=       0.000000 meV   omega=     -1.2052 meV
     lambda___(   2 )=       0.000000   gamma___=       0.000000 meV   omega=     -1.2052 meV
     lambda_tr(   2 )=       0.000000   gamma_tr=       0.000000 meV   omega=     -1.2052 meV
     lambda___(   3 )=       0.000000   gamma___=       0.000000 meV   omega=      0.4924 meV
     lambda_tr(   3 )=       0.000000   gamma_tr=       0.000000 meV   omega=      0.4924 meV
     lambda( tot )=       0.000000
     lambda_tr( tot )=       0.000000
     -------------------------------------------------------------------


     Number of (k,k+q) pairs on the Fermi surface:      216 out of      216


     ismear =     1 iq =       8 coord.:   0.00000  0.16667  0.16667 wt:   0.00463
     -------------------------------------------------------------------
     lambda___(   1 )=       0.000000   gamma___=       0.000000 meV   omega=     -3.2687 meV
     lambda_tr(   1 )=       0.000000   gamma_tr=       0.000000 meV   omega=     -3.2687 meV
     lambda___(   2 )=       0.000000   gamma___=       0.000000 meV   omega=     -3.2687 meV
     lambda_tr(   2 )=       0.000000   gamma_tr=       0.000000 meV   omega=     -3.2687 meV
     lambda___(   3 )=       0.234328   gamma___=       0.010516 meV   omega=      3.9739 meV
     lambda_tr(   3 )=       0.079038   gamma_tr=       0.003547 meV   omega=      3.9739 meV
     lambda( tot )=       0.234328
     lambda_tr( tot )=       0.079038
     -------------------------------------------------------------------


     Number of (k,k+q) pairs on the Fermi surface:      216 out of      216


     ismear =     1 iq =       9 coord.:   0.00000  0.16667  0.33333 wt:   0.00463
     -------------------------------------------------------------------
     lambda___(   1 )=       0.000000   gamma___=       0.000000 meV   omega=     -3.0769 meV
     lambda_tr(   1 )=       0.000000   gamma_tr=       0.000000 meV   omega=     -3.0769 meV
     lambda___(   2 )=       0.000000   gamma___=       0.000000 meV   omega=     -2.8895 meV
     lambda_tr(   2 )=       0.000000   gamma_tr=       0.000000 meV   omega=     -2.8895 meV
     lambda___(   3 )=       0.009449   gamma___=       0.000785 meV   omega=      5.4074 meV
     lambda_tr(   3 )=      -0.042288   gamma_tr=      -0.003514 meV   omega=      5.4074 meV
     lambda( tot )=       0.009449
     lambda_tr( tot )=      -0.042288
     -------------------------------------------------------------------


     Number of (k,k+q) pairs on the Fermi surface:      216 out of      216


     ismear =     1 iq =      10 coord.:   0.00000  0.16667  0.50000 wt:   0.00463
     -------------------------------------------------------------------
     lambda___(   1 )=       0.489811   gamma___=       0.010650 meV   omega=      2.7660 meV
     lambda_tr(   1 )=       0.283799   gamma_tr=       0.006171 meV   omega=      2.7660 meV
     lambda___(   2 )=      -0.132965   gamma___=      -0.004201 meV   omega=      3.3343 meV
     lambda_tr(   2 )=      -0.786651   gamma_tr=      -0.024855 meV   omega=      3.3343 meV
     lambda___(   3 )=       0.494816   gamma___=       0.046353 meV   omega=      5.7413 meV
     lambda_tr(   3 )=      -0.705492   gamma_tr=      -0.066089 meV   omega=      5.7413 meV
     lambda( tot )=       0.851662
     lambda_tr( tot )=      -1.208344
     -------------------------------------------------------------------


     Number of (k,k+q) pairs on the Fermi surface:      216 out of      216


     ismear =     1 iq =      11 coord.:   0.00000  0.16667  0.66667 wt:   0.00463
     -------------------------------------------------------------------
     lambda___(   1 )=       0.065265   gamma___=       0.002249 meV   omega=      3.4821 meV
     lambda_tr(   1 )=      -0.157261   gamma_tr=      -0.005419 meV   omega=      3.4821 meV
     lambda___(   2 )=       0.067942   gamma___=       0.002591 meV   omega=      3.6633 meV
     lambda_tr(   2 )=       0.307555   gamma_tr=       0.011729 meV   omega=      3.6633 meV
     lambda___(   3 )=       0.036663   gamma___=       0.001970 meV   omega=      4.3479 meV
     lambda_tr(   3 )=      -0.119550   gamma_tr=      -0.006423 meV   omega=      4.3479 meV
     lambda( tot )=       0.169870
     lambda_tr( tot )=       0.030745
     -------------------------------------------------------------------


     Number of (k,k+q) pairs on the Fermi surface:      216 out of      216


     ismear =     1 iq =      12 coord.:   0.00000  0.16667  0.83333 wt:   0.00463
     -------------------------------------------------------------------
     lambda___(   1 )=       0.000000   gamma___=       0.000000 meV   omega=     -2.7557 meV
     lambda_tr(   1 )=       0.000000   gamma_tr=       0.000000 meV   omega=     -2.7557 meV
     lambda___(   2 )=      -1.824660   gamma___=      -0.028694 meV   omega=      2.3523 meV
     lambda_tr(   2 )=      -3.524238   gamma_tr=      -0.055421 meV   omega=      2.3523 meV
     lambda___(   3 )=       0.001816   gamma___=       0.000047 meV   omega=      3.0193 meV
     lambda_tr(   3 )=      -0.465447   gamma_tr=      -0.012058 meV   omega=      3.0193 meV
     lambda( tot )=      -1.822845
     lambda_tr( tot )=      -3.989685
     -------------------------------------------------------------------


     Number of (k,k+q) pairs on the Fermi surface:      216 out of      216


     ismear =     1 iq =      13 coord.:   0.00000  0.33333  0.00000 wt:   0.00463
     -------------------------------------------------------------------
     lambda___(   1 )=       0.303187   gamma___=       0.004976 meV   omega=      2.4032 meV
     lambda_tr(   1 )=     -17.548242   gamma_tr=      -0.288010 meV   omega=      2.4032 meV
     lambda___(   2 )=       0.308899   gamma___=       0.005070 meV   omega=      2.4032 meV
     lambda_tr(   2 )=     -17.600714   gamma_tr=      -0.288871 meV   omega=      2.4032 meV
     lambda___(   3 )=       0.596749   gamma___=       0.018744 meV   omega=      3.3246 meV
     lambda_tr(   3 )=     -24.161078   gamma_tr=      -0.758915 meV   omega=      3.3246 meV
     lambda( tot )=       1.208834
     lambda_tr( tot )=     -59.310034
     -------------------------------------------------------------------


     Number of (k,k+q) pairs on the Fermi surface:      216 out of      216


     ismear =     1 iq =      14 coord.:   0.00000  0.33333  0.16667 wt:   0.00463
     -------------------------------------------------------------------
     lambda___(   1 )=       0.000000   gamma___=       0.000000 meV   omega=     -3.0769 meV
     lambda_tr(   1 )=       0.000000   gamma_tr=       0.000000 meV   omega=     -3.0769 meV
     lambda___(   2 )=       0.000000   gamma___=       0.000000 meV   omega=     -2.8895 meV
     lambda_tr(   2 )=       0.000000   gamma_tr=       0.000000 meV   omega=     -2.8895 meV
     lambda___(   3 )=       0.010063   gamma___=       0.000836 meV   omega=      5.4074 meV
     lambda_tr(   3 )=      -0.037739   gamma_tr=      -0.003136 meV   omega=      5.4074 meV
     lambda( tot )=       0.010063
     lambda_tr( tot )=      -0.037739
     -------------------------------------------------------------------


     Number of (k,k+q) pairs on the Fermi surface:      216 out of      216


     ismear =     1 iq =      15 coord.:   0.00000  0.33333  0.33333 wt:   0.00463
     -------------------------------------------------------------------
     lambda___(   1 )=       0.000000   gamma___=       0.000000 meV   omega=     -4.5024 meV
     lambda_tr(   1 )=       0.000000   gamma_tr=       0.000000 meV   omega=     -4.5024 meV
     lambda___(   2 )=       0.000000   gamma___=       0.000000 meV   omega=     -4.5024 meV
     lambda_tr(   2 )=       0.000000   gamma_tr=       0.000000 meV   omega=     -4.5024 meV
     lambda___(   3 )=       0.024488   gamma___=       0.003649 meV   omega=      7.2413 meV
     lambda_tr(   3 )=       0.019250   gamma_tr=       0.002869 meV   omega=      7.2413 meV
     lambda( tot )=       0.024488
     lambda_tr( tot )=       0.019250
     -------------------------------------------------------------------


     Number of (k,k+q) pairs on the Fermi surface:      216 out of      216


     ismear =     1 iq =      16 coord.:   0.00000  0.33333  0.50000 wt:   0.00463
     -------------------------------------------------------------------
     lambda___(   1 )=       0.000000   gamma___=       0.000000 meV   omega=     -3.0271 meV
     lambda_tr(   1 )=       0.000000   gamma_tr=       0.000000 meV   omega=     -3.0271 meV
     lambda___(   2 )=       0.000000   gamma___=       0.000000 meV   omega=     -2.7907 meV
     lambda_tr(   2 )=       0.000000   gamma_tr=       0.000000 meV   omega=     -2.7907 meV
     lambda___(   3 )=       0.013901   gamma___=       0.002405 meV   omega=      7.8031 meV
     lambda_tr(   3 )=      -0.000798   gamma_tr=      -0.000138 meV   omega=      7.8031 meV
     lambda( tot )=       0.013901
     lambda_tr( tot )=      -0.000798
     -------------------------------------------------------------------


     Number of (k,k+q) pairs on the Fermi surface:      216 out of      216


     ismear =     1 iq =      17 coord.:   0.00000  0.33333  0.66667 wt:   0.00463
     -------------------------------------------------------------------
     lambda___(   1 )=       0.249028   gamma___=       0.006571 meV   omega=      3.0471 meV
     lambda_tr(   1 )=      12.192173   gamma_tr=       0.321716 meV   omega=      3.0471 meV
     lambda___(   2 )=       0.442229   gamma___=       0.016818 meV   omega=      3.6582 meV
     lambda_tr(   2 )=       1.870309   gamma_tr=       0.071129 meV   omega=      3.6582 meV
     lambda___(   3 )=       0.153557   gamma___=       0.018610 meV   omega=      6.5304 meV
     lambda_tr(   3 )=       2.502510   gamma_tr=       0.303291 meV   omega=      6.5304 meV
     lambda( tot )=       0.844814
     lambda_tr( tot )=      16.564992
     -------------------------------------------------------------------


     Number of (k,k+q) pairs on the Fermi surface:      216 out of      216


     ismear =     1 iq =      18 coord.:   0.00000  0.33333  0.83333 wt:   0.00463
     -------------------------------------------------------------------
     lambda___(   1 )=       0.064637   gamma___=       0.002227 meV   omega=      3.4821 meV
     lambda_tr(   1 )=      -0.133558   gamma_tr=      -0.004602 meV   omega=      3.4821 meV
     lambda___(   2 )=       0.071084   gamma___=       0.002711 meV   omega=      3.6633 meV
     lambda_tr(   2 )=       0.319229   gamma_tr=       0.012175 meV   omega=      3.6633 meV
     lambda___(   3 )=       0.036153   gamma___=       0.001942 meV   omega=      4.3479 meV
     lambda_tr(   3 )=      -0.124088   gamma_tr=      -0.006667 meV   omega=      4.3479 meV
     lambda( tot )=       0.171874
     lambda_tr( tot )=       0.061583
     -------------------------------------------------------------------


     Number of (k,k+q) pairs on the Fermi surface:      216 out of      216


     ismear =     1 iq =      19 coord.:   0.00000  0.50000  0.00000 wt:   0.00463
     -------------------------------------------------------------------
     lambda___(   1 )=       0.000000   gamma___=       0.000000 meV   omega=      3.8020 meV
     lambda_tr(   1 )=       0.000000   gamma_tr=       0.000000 meV   omega=      3.8020 meV
     lambda___(   2 )=       0.000000   gamma___=       0.000000 meV   omega=      3.8020 meV
     lambda_tr(   2 )=       0.000000   gamma_tr=       0.000000 meV   omega=      3.8020 meV
     lambda___(   3 )=       0.000000   gamma___=       0.000000 meV   omega=      4.6498 meV
     lambda_tr(   3 )=       0.000000   gamma_tr=       0.000000 meV   omega=      4.6498 meV
     lambda( tot )=       0.000000
     lambda_tr( tot )=       0.000000
     -------------------------------------------------------------------


     Number of (k,k+q) pairs on the Fermi surface:      216 out of      216


     ismear =     1 iq =      20 coord.:   0.00000  0.50000  0.16667 wt:   0.00463
     -------------------------------------------------------------------
     lambda___(   1 )=      -0.179818   gamma___=      -0.003910 meV   omega=      2.7660 meV
     lambda_tr(   1 )=      -0.396050   gamma_tr=      -0.008611 meV   omega=      2.7660 meV
     lambda___(   2 )=      -0.124239   gamma___=      -0.003925 meV   omega=      3.3343 meV
     lambda_tr(   2 )=      -0.787310   gamma_tr=      -0.024875 meV   omega=      3.3343 meV
     lambda___(   3 )=       0.237121   gamma___=       0.022213 meV   omega=      5.7413 meV
     lambda_tr(   3 )=      -0.858462   gamma_tr=      -0.080418 meV   omega=      5.7413 meV
     lambda( tot )=      -0.066937
     lambda_tr( tot )=      -2.041821
     -------------------------------------------------------------------


     Number of (k,k+q) pairs on the Fermi surface:      216 out of      216


     ismear =     1 iq =      21 coord.:   0.00000  0.50000  0.33333 wt:   0.00463
     -------------------------------------------------------------------
     lambda___(   1 )=       0.000000   gamma___=       0.000000 meV   omega=     -3.0271 meV
     lambda_tr(   1 )=       0.000000   gamma_tr=       0.000000 meV   omega=     -3.0271 meV
     lambda___(   2 )=       0.000000   gamma___=       0.000000 meV   omega=     -2.7907 meV
     lambda_tr(   2 )=       0.000000   gamma_tr=       0.000000 meV   omega=     -2.7907 meV
     lambda___(   3 )=       0.012916   gamma___=       0.002235 meV   omega=      7.8031 meV
     lambda_tr(   3 )=      -0.000982   gamma_tr=      -0.000170 meV   omega=      7.8031 meV
     lambda( tot )=       0.012916
     lambda_tr( tot )=      -0.000982
     -------------------------------------------------------------------


     Number of (k,k+q) pairs on the Fermi surface:      216 out of      216


     ismear =     1 iq =      22 coord.:   0.00000  0.50000  0.50000 wt:   0.00463
     -------------------------------------------------------------------
     lambda___(   1 )=       0.000000   gamma___=       0.000000 meV   omega=     -4.3788 meV
     lambda_tr(   1 )=       0.000000   gamma_tr=       0.000000 meV   omega=     -4.3788 meV
     lambda___(   2 )=       0.000000   gamma___=       0.000000 meV   omega=     -4.3788 meV
     lambda_tr(   2 )=       0.000000   gamma_tr=       0.000000 meV   omega=     -4.3788 meV
     lambda___(   3 )=       0.622374   gamma___=       0.129626 meV   omega=      8.5608 meV
     lambda_tr(   3 )=       3.671612   gamma_tr=       0.764712 meV   omega=      8.5608 meV
     lambda( tot )=       0.622374
     lambda_tr( tot )=       3.671612
     -------------------------------------------------------------------


     Number of (k,k+q) pairs on the Fermi surface:      216 out of      216


     ismear =     1 iq =      23 coord.:   0.00000  0.50000  0.66667 wt:   0.00463
     -------------------------------------------------------------------
     lambda___(   1 )=       0.000000   gamma___=       0.000000 meV   omega=     -3.0271 meV
     lambda_tr(   1 )=       0.000000   gamma_tr=       0.000000 meV   omega=     -3.0271 meV
     lambda___(   2 )=       0.000000   gamma___=       0.000000 meV   omega=     -2.7907 meV
     lambda_tr(   2 )=       0.000000   gamma_tr=       0.000000 meV   omega=     -2.7907 meV
     lambda___(   3 )=       0.013033   gamma___=       0.002255 meV   omega=      7.8031 meV
     lambda_tr(   3 )=       0.000236   gamma_tr=       0.000041 meV   omega=      7.8031 meV
     lambda( tot )=       0.013033
     lambda_tr( tot )=       0.000236
     -------------------------------------------------------------------


     Number of (k,k+q) pairs on the Fermi surface:      216 out of      216


     ismear =     1 iq =      24 coord.:   0.00000  0.50000  0.83333 wt:   0.00463
     -------------------------------------------------------------------
     lambda___(   1 )=       0.136386   gamma___=       0.002965 meV   omega=      2.7660 meV
     lambda_tr(   1 )=       0.260114   gamma_tr=       0.005656 meV   omega=      2.7660 meV
     lambda___(   2 )=      -0.192340   gamma___=      -0.006077 meV   omega=      3.3343 meV
     lambda_tr(   2 )=      -0.852983   gamma_tr=      -0.026950 meV   omega=      3.3343 meV
     lambda___(   3 )=       0.428538   gamma___=       0.040144 meV   omega=      5.7413 meV
     lambda_tr(   3 )=      -0.706565   gamma_tr=      -0.066189 meV   omega=      5.7413 meV
     lambda( tot )=       0.372584
     lambda_tr( tot )=      -1.299434
     -------------------------------------------------------------------


     Number of (k,k+q) pairs on the Fermi surface:      216 out of      216


     ismear =     1 iq =      25 coord.:   0.00000  0.66667  0.00000 wt:   0.00463
     -------------------------------------------------------------------
     lambda___(   1 )=       0.302446   gamma___=       0.004964 meV   omega=      2.4032 meV
     lambda_tr(   1 )=     -17.528624   gamma_tr=      -0.287688 meV   omega=      2.4032 meV
     lambda___(   2 )=       0.309629   gamma___=       0.005082 meV   omega=      2.4032 meV
     lambda_tr(   2 )=     -17.619853   gamma_tr=      -0.289185 meV   omega=      2.4032 meV
     lambda___(   3 )=       0.596454   gamma___=       0.018735 meV   omega=      3.3246 meV
     lambda_tr(   3 )=     -24.160958   gamma_tr=      -0.758911 meV   omega=      3.3246 meV
     lambda( tot )=       1.208529
     lambda_tr( tot )=     -59.309435
     -------------------------------------------------------------------


     Number of (k,k+q) pairs on the Fermi surface:      216 out of      216


     ismear =     1 iq =      26 coord.:   0.00000  0.66667  0.16667 wt:   0.00463
     -------------------------------------------------------------------
     lambda___(   1 )=       0.054101   gamma___=       0.001864 meV   omega=      3.4821 meV
     lambda_tr(   1 )=      -0.144472   gamma_tr=      -0.004978 meV   omega=      3.4821 meV
     lambda___(   2 )=       0.060662   gamma___=       0.002313 meV   omega=      3.6633 meV
     lambda_tr(   2 )=       0.283576   gamma_tr=       0.010815 meV   omega=      3.6633 meV
     lambda___(   3 )=       0.032602   gamma___=       0.001752 meV   omega=      4.3479 meV
     lambda_tr(   3 )=      -0.129845   gamma_tr=      -0.006976 meV   omega=      4.3479 meV
     lambda( tot )=       0.147365
     lambda_tr( tot )=       0.009260
     -------------------------------------------------------------------


     Number of (k,k+q) pairs on the Fermi surface:      216 out of      216


     ismear =     1 iq =      27 coord.:   0.00000  0.66667  0.33333 wt:   0.00463
     -------------------------------------------------------------------
     lambda___(   1 )=       0.172207   gamma___=       0.004544 meV   omega=      3.0471 meV
     lambda_tr(   1 )=       8.447891   gamma_tr=       0.222915 meV   omega=      3.0471 meV
     lambda___(   2 )=       0.365320   gamma___=       0.013893 meV   omega=      3.6582 meV
     lambda_tr(   2 )=       1.446715   gamma_tr=       0.055020 meV   omega=      3.6582 meV
     lambda___(   3 )=       0.128585   gamma___=       0.015584 meV   omega=      6.5304 meV
     lambda_tr(   3 )=       2.148679   gamma_tr=       0.260409 meV   omega=      6.5304 meV
     lambda( tot )=       0.666113
     lambda_tr( tot )=      12.043285
     -------------------------------------------------------------------


     Number of (k,k+q) pairs on the Fermi surface:      216 out of      216


     ismear =     1 iq =      28 coord.:   0.00000  0.66667  0.50000 wt:   0.00463
     -------------------------------------------------------------------
     lambda___(   1 )=       0.000000   gamma___=       0.000000 meV   omega=     -3.0271 meV
     lambda_tr(   1 )=       0.000000   gamma_tr=       0.000000 meV   omega=     -3.0271 meV
     lambda___(   2 )=       0.000000   gamma___=       0.000000 meV   omega=     -2.7907 meV
     lambda_tr(   2 )=       0.000000   gamma_tr=       0.000000 meV   omega=     -2.7907 meV
     lambda___(   3 )=       0.012240   gamma___=       0.002118 meV   omega=      7.8031 meV
     lambda_tr(   3 )=      -0.000878   gamma_tr=      -0.000152 meV   omega=      7.8031 meV
     lambda( tot )=       0.012240
     lambda_tr( tot )=      -0.000878
     -------------------------------------------------------------------


     Number of (k,k+q) pairs on the Fermi surface:      216 out of      216


     ismear =     1 iq =      29 coord.:   0.00000  0.66667  0.66667 wt:   0.00463
     -------------------------------------------------------------------
     lambda___(   1 )=       0.000000   gamma___=       0.000000 meV   omega=     -4.5024 meV
     lambda_tr(   1 )=       0.000000   gamma_tr=       0.000000 meV   omega=     -4.5024 meV
     lambda___(   2 )=       0.000000   gamma___=       0.000000 meV   omega=     -4.5024 meV
     lambda_tr(   2 )=       0.000000   gamma_tr=       0.000000 meV   omega=     -4.5024 meV
     lambda___(   3 )=       0.022946   gamma___=       0.003419 meV   omega=      7.2413 meV
     lambda_tr(   3 )=       0.018256   gamma_tr=       0.002720 meV   omega=      7.2413 meV
     lambda( tot )=       0.022946
     lambda_tr( tot )=       0.018256
     -------------------------------------------------------------------


     Number of (k,k+q) pairs on the Fermi surface:      216 out of      216


     ismear =     1 iq =      30 coord.:   0.00000  0.66667  0.83333 wt:   0.00463
     -------------------------------------------------------------------
     lambda___(   1 )=       0.000000   gamma___=       0.000000 meV   omega=     -3.0769 meV
     lambda_tr(   1 )=       0.000000   gamma_tr=       0.000000 meV   omega=     -3.0769 meV
     lambda___(   2 )=       0.000000   gamma___=       0.000000 meV   omega=     -2.8895 meV
     lambda_tr(   2 )=       0.000000   gamma_tr=       0.000000 meV   omega=     -2.8895 meV
     lambda___(   3 )=       0.009035   gamma___=       0.000751 meV   omega=      5.4074 meV
     lambda_tr(   3 )=      -0.033153   gamma_tr=      -0.002755 meV   omega=      5.4074 meV
     lambda( tot )=       0.009035
     lambda_tr( tot )=      -0.033153
     -------------------------------------------------------------------


     Number of (k,k+q) pairs on the Fermi surface:      216 out of      216


     ismear =     1 iq =      31 coord.:   0.00000  0.83333  0.00000 wt:   0.00463
     -------------------------------------------------------------------
     lambda___(   1 )=       0.000000   gamma___=       0.000000 meV   omega=     -1.2052 meV
     lambda_tr(   1 )=       0.000000   gamma_tr=       0.000000 meV   omega=     -1.2052 meV
     lambda___(   2 )=       0.000000   gamma___=       0.000000 meV   omega=     -1.2052 meV
     lambda_tr(   2 )=       0.000000   gamma_tr=       0.000000 meV   omega=     -1.2052 meV
     lambda___(   3 )=       0.000000   gamma___=       0.000000 meV   omega=      0.4924 meV
     lambda_tr(   3 )=       0.000000   gamma_tr=       0.000000 meV   omega=      0.4924 meV
     lambda( tot )=       0.000000
     lambda_tr( tot )=       0.000000
     -------------------------------------------------------------------


     Number of (k,k+q) pairs on the Fermi surface:      216 out of      216


     ismear =     1 iq =      32 coord.:   0.00000  0.83333  0.16667 wt:   0.00463
     -------------------------------------------------------------------
     lambda___(   1 )=       0.000000   gamma___=       0.000000 meV   omega=     -2.7557 meV
     lambda_tr(   1 )=       0.000000   gamma_tr=       0.000000 meV   omega=     -2.7557 meV
     lambda___(   2 )=      -1.564813   gamma___=      -0.024608 meV   omega=      2.3523 meV
     lambda_tr(   2 )=      -3.349993   gamma_tr=      -0.052681 meV   omega=      2.3523 meV
     lambda___(   3 )=       0.237339   gamma___=       0.006149 meV   omega=      3.0193 meV
     lambda_tr(   3 )=      -0.205792   gamma_tr=      -0.005331 meV   omega=      3.0193 meV
     lambda( tot )=      -1.327474
     lambda_tr( tot )=      -3.555785
     -------------------------------------------------------------------


     Number of (k,k+q) pairs on the Fermi surface:      216 out of      216


     ismear =     1 iq =      33 coord.:   0.00000  0.83333  0.33333 wt:   0.00463
     -------------------------------------------------------------------
     lambda___(   1 )=       0.058953   gamma___=       0.002031 meV   omega=      3.4821 meV
     lambda_tr(   1 )=      -0.142546   gamma_tr=      -0.004912 meV   omega=      3.4821 meV
     lambda___(   2 )=       0.056516   gamma___=       0.002155 meV   omega=      3.6633 meV
     lambda_tr(   2 )=       0.287366   gamma_tr=       0.010959 meV   omega=      3.6633 meV
     lambda___(   3 )=       0.036950   gamma___=       0.001985 meV   omega=      4.3479 meV
     lambda_tr(   3 )=      -0.123596   gamma_tr=      -0.006640 meV   omega=      4.3479 meV
     lambda( tot )=       0.152419
     lambda_tr( tot )=       0.021224
     -------------------------------------------------------------------


     Number of (k,k+q) pairs on the Fermi surface:      216 out of      216


     ismear =     1 iq =      34 coord.:   0.00000  0.83333  0.50000 wt:   0.00463
     -------------------------------------------------------------------
     lambda___(   1 )=       0.231348   gamma___=       0.005030 meV   omega=      2.7660 meV
     lambda_tr(   1 )=       0.212616   gamma_tr=       0.004623 meV   omega=      2.7660 meV
     lambda___(   2 )=      -0.266174   gamma___=      -0.008410 meV   omega=      3.3343 meV
     lambda_tr(   2 )=      -0.879645   gamma_tr=      -0.027793 meV   omega=      3.3343 meV
     lambda___(   3 )=       0.148220   gamma___=       0.013885 meV   omega=      5.7413 meV
     lambda_tr(   3 )=      -0.918054   gamma_tr=      -0.086001 meV   omega=      5.7413 meV
     lambda( tot )=       0.113394
     lambda_tr( tot )=      -1.585084
     -------------------------------------------------------------------


     Number of (k,k+q) pairs on the Fermi surface:      216 out of      216


     ismear =     1 iq =      35 coord.:   0.00000  0.83333  0.66667 wt:   0.00463
     -------------------------------------------------------------------
     lambda___(   1 )=       0.000000   gamma___=       0.000000 meV   omega=     -3.0769 meV
     lambda_tr(   1 )=       0.000000   gamma_tr=       0.000000 meV   omega=     -3.0769 meV
     lambda___(   2 )=       0.000000   gamma___=       0.000000 meV   omega=     -2.8895 meV
     lambda_tr(   2 )=       0.000000   gamma_tr=       0.000000 meV   omega=     -2.8895 meV
     lambda___(   3 )=       0.009622   gamma___=       0.000800 meV   omega=      5.4074 meV
     lambda_tr(   3 )=      -0.031514   gamma_tr=      -0.002619 meV   omega=      5.4074 meV
     lambda( tot )=       0.009622
     lambda_tr( tot )=      -0.031514
     -------------------------------------------------------------------


     Number of (k,k+q) pairs on the Fermi surface:      216 out of      216


     ismear =     1 iq =      36 coord.:   0.00000  0.83333  0.83333 wt:   0.00463
     -------------------------------------------------------------------
     lambda___(   1 )=       0.000000   gamma___=       0.000000 meV   omega=     -3.2687 meV
     lambda_tr(   1 )=       0.000000   gamma_tr=       0.000000 meV   omega=     -3.2687 meV
     lambda___(   2 )=       0.000000   gamma___=       0.000000 meV   omega=     -3.2687 meV
     lambda_tr(   2 )=       0.000000   gamma_tr=       0.000000 meV   omega=     -3.2687 meV
     lambda___(   3 )=       0.232013   gamma___=       0.010413 meV   omega=      3.9739 meV
     lambda_tr(   3 )=       0.089875   gamma_tr=       0.004033 meV   omega=      3.9739 meV
     lambda( tot )=       0.232013
     lambda_tr( tot )=       0.089875
     -------------------------------------------------------------------


     Number of (k,k+q) pairs on the Fermi surface:      216 out of      216


     ismear =     1 iq =      37 coord.:   0.16667  0.00000  0.00000 wt:   0.00463
     -------------------------------------------------------------------
     lambda___(   1 )=       0.000000   gamma___=       0.000000 meV   omega=     -1.2052 meV
     lambda_tr(   1 )=       0.000000   gamma_tr=       0.000000 meV   omega=     -1.2052 meV
     lambda___(   2 )=       0.000000   gamma___=       0.000000 meV   omega=     -1.2052 meV
     lambda_tr(   2 )=       0.000000   gamma_tr=       0.000000 meV   omega=     -1.2052 meV
     lambda___(   3 )=       0.000000   gamma___=       0.000000 meV   omega=      0.4924 meV
     lambda_tr(   3 )=       0.000000   gamma_tr=       0.000000 meV   omega=      0.4924 meV
     lambda( tot )=       0.000000
     lambda_tr( tot )=       0.000000
     -------------------------------------------------------------------


     Number of (k,k+q) pairs on the Fermi surface:      216 out of      216


     ismear =     1 iq =      38 coord.:   0.16667  0.00000  0.16667 wt:   0.00463
     -------------------------------------------------------------------
     lambda___(   1 )=       0.000000   gamma___=       0.000000 meV   omega=     -3.2687 meV
     lambda_tr(   1 )=       0.000000   gamma_tr=       0.000000 meV   omega=     -3.2687 meV
     lambda___(   2 )=       0.000000   gamma___=       0.000000 meV   omega=     -3.2687 meV
     lambda_tr(   2 )=       0.000000   gamma_tr=       0.000000 meV   omega=     -3.2687 meV
     lambda___(   3 )=       0.226627   gamma___=       0.010171 meV   omega=      3.9739 meV
     lambda_tr(   3 )=       0.077379   gamma_tr=       0.003473 meV   omega=      3.9739 meV
     lambda( tot )=       0.226627
     lambda_tr( tot )=       0.077379
     -------------------------------------------------------------------


     Number of (k,k+q) pairs on the Fermi surface:      216 out of      216


     ismear =     1 iq =      39 coord.:   0.16667  0.00000  0.33333 wt:   0.00463
     -------------------------------------------------------------------
     lambda___(   1 )=       0.000000   gamma___=       0.000000 meV   omega=     -3.0769 meV
     lambda_tr(   1 )=       0.000000   gamma_tr=       0.000000 meV   omega=     -3.0769 meV
     lambda___(   2 )=       0.000000   gamma___=       0.000000 meV   omega=     -2.8895 meV
     lambda_tr(   2 )=       0.000000   gamma_tr=       0.000000 meV   omega=     -2.8895 meV
     lambda___(   3 )=       0.009534   gamma___=       0.000792 meV   omega=      5.4074 meV
     lambda_tr(   3 )=      -0.038273   gamma_tr=      -0.003180 meV   omega=      5.4074 meV
     lambda( tot )=       0.009534
     lambda_tr( tot )=      -0.038273
     -------------------------------------------------------------------


     Number of (k,k+q) pairs on the Fermi surface:      216 out of      216


     ismear =     1 iq =      40 coord.:   0.16667  0.00000  0.50000 wt:   0.00463
     -------------------------------------------------------------------
     lambda___(   1 )=      -0.925055   gamma___=      -0.020114 meV   omega=      2.7660 meV
     lambda_tr(   1 )=      -0.442990   gamma_tr=      -0.009632 meV   omega=      2.7660 meV
     lambda___(   2 )=      -0.474971   gamma___=      -0.015007 meV   omega=      3.3343 meV
     lambda_tr(   2 )=      -1.118830   gamma_tr=      -0.035350 meV   omega=      3.3343 meV
     lambda___(   3 )=       0.240058   gamma___=       0.022488 meV   omega=      5.7413 meV
     lambda_tr(   3 )=      -0.863532   gamma_tr=      -0.080893 meV   omega=      5.7413 meV
     lambda( tot )=      -1.159968
     lambda_tr( tot )=      -2.425353
     -------------------------------------------------------------------


     Number of (k,k+q) pairs on the Fermi surface:      216 out of      216


     ismear =     1 iq =      41 coord.:   0.16667  0.00000  0.66667 wt:   0.00463
     -------------------------------------------------------------------
     lambda___(   1 )=       0.058260   gamma___=       0.002008 meV   omega=      3.4821 meV
     lambda_tr(   1 )=      -0.149469   gamma_tr=      -0.005150 meV   omega=      3.4821 meV
     lambda___(   2 )=       0.063967   gamma___=       0.002440 meV   omega=      3.6633 meV
     lambda_tr(   2 )=       0.291072   gamma_tr=       0.011101 meV   omega=      3.6633 meV
     lambda___(   3 )=       0.039742   gamma___=       0.002135 meV   omega=      4.3479 meV
     lambda_tr(   3 )=      -0.125198   gamma_tr=      -0.006726 meV   omega=      4.3479 meV
     lambda( tot )=       0.161970
     lambda_tr( tot )=       0.016405
     -------------------------------------------------------------------


     Number of (k,k+q) pairs on the Fermi surface:      216 out of      216


     ismear =     1 iq =      42 coord.:   0.16667  0.00000  0.83333 wt:   0.00463
     -------------------------------------------------------------------
     lambda___(   1 )=       0.000000   gamma___=       0.000000 meV   omega=     -2.7557 meV
     lambda_tr(   1 )=       0.000000   gamma_tr=       0.000000 meV   omega=     -2.7557 meV
     lambda___(   2 )=      -2.996643   gamma___=      -0.047124 meV   omega=      2.3523 meV
     lambda_tr(   2 )=      -4.667176   gamma_tr=      -0.073394 meV   omega=      2.3523 meV
     lambda___(   3 )=      -0.054656   gamma___=      -0.001416 meV   omega=      3.0193 meV
     lambda_tr(   3 )=      -0.496561   gamma_tr=      -0.012864 meV   omega=      3.0193 meV
     lambda( tot )=      -3.051299
     lambda_tr( tot )=      -5.163737
     -------------------------------------------------------------------


     Number of (k,k+q) pairs on the Fermi surface:      216 out of      216


     ismear =     1 iq =      43 coord.:   0.16667  0.16667  0.00000 wt:   0.00463
     -------------------------------------------------------------------
     lambda___(   1 )=       0.000000   gamma___=       0.000000 meV   omega=     -3.2687 meV
     lambda_tr(   1 )=       0.000000   gamma_tr=       0.000000 meV   omega=     -3.2687 meV
     lambda___(   2 )=       0.000000   gamma___=       0.000000 meV   omega=     -3.2687 meV
     lambda_tr(   2 )=       0.000000   gamma_tr=       0.000000 meV   omega=     -3.2687 meV
     lambda___(   3 )=       0.230591   gamma___=       0.010349 meV   omega=      3.9739 meV
     lambda_tr(   3 )=       0.084765   gamma_tr=       0.003804 meV   omega=      3.9739 meV
     lambda( tot )=       0.230591
     lambda_tr( tot )=       0.084765
     -------------------------------------------------------------------


     Number of (k,k+q) pairs on the Fermi surface:      216 out of      216


     ismear =     1 iq =      44 coord.:   0.16667  0.16667  0.16667 wt:   0.00463
     -------------------------------------------------------------------
     lambda___(   1 )=       0.000000   gamma___=       0.000000 meV   omega=     -1.2052 meV
     lambda_tr(   1 )=       0.000000   gamma_tr=       0.000000 meV   omega=     -1.2052 meV
     lambda___(   2 )=       0.000000   gamma___=       0.000000 meV   omega=     -1.2052 meV
     lambda_tr(   2 )=       0.000000   gamma_tr=       0.000000 meV   omega=     -1.2052 meV
     lambda___(   3 )=       0.000000   gamma___=       0.000000 meV   omega=      0.4924 meV
     lambda_tr(   3 )=       0.000000   gamma_tr=       0.000000 meV   omega=      0.4924 meV
     lambda( tot )=       0.000000
     lambda_tr( tot )=       0.000000
     -------------------------------------------------------------------


     Number of (k,k+q) pairs on the Fermi surface:      216 out of      216


     ismear =     1 iq =      45 coord.:   0.16667  0.16667  0.33333 wt:   0.00463
     -------------------------------------------------------------------
     lambda___(   1 )=       0.000000   gamma___=       0.000000 meV   omega=     -2.7557 meV
     lambda_tr(   1 )=       0.000000   gamma_tr=       0.000000 meV   omega=     -2.7557 meV
     lambda___(   2 )=      -0.584681   gamma___=      -0.009194 meV   omega=      2.3523 meV
     lambda_tr(   2 )=      -2.507731   gamma_tr=      -0.039436 meV   omega=      2.3523 meV
     lambda___(   3 )=       0.850027   gamma___=       0.022022 meV   omega=      3.0193 meV
     lambda_tr(   3 )=       0.404998   gamma_tr=       0.010492 meV   omega=      3.0193 meV
     lambda( tot )=       0.265345
     lambda_tr( tot )=      -2.102733
     -------------------------------------------------------------------


     Number of (k,k+q) pairs on the Fermi surface:      216 out of      216


     ismear =     1 iq =      46 coord.:   0.16667  0.16667  0.50000 wt:   0.00463
     -------------------------------------------------------------------
     lambda___(   1 )=       0.058183   gamma___=       0.002005 meV   omega=      3.4821 meV
     lambda_tr(   1 )=      -0.158831   gamma_tr=      -0.005473 meV   omega=      3.4821 meV
     lambda___(   2 )=       0.055299   gamma___=       0.002109 meV   omega=      3.6633 meV
     lambda_tr(   2 )=       0.302274   gamma_tr=       0.011528 meV   omega=      3.6633 meV
     lambda___(   3 )=       0.037823   gamma___=       0.002032 meV   omega=      4.3479 meV
     lambda_tr(   3 )=      -0.120337   gamma_tr=      -0.006465 meV   omega=      4.3479 meV
     lambda( tot )=       0.151305
     lambda_tr( tot )=       0.023106
     -------------------------------------------------------------------


     Number of (k,k+q) pairs on the Fermi surface:      216 out of      216


     ismear =     1 iq =      47 coord.:   0.16667  0.16667  0.66667 wt:   0.00463
     -------------------------------------------------------------------
     lambda___(   1 )=       0.685757   gamma___=       0.014911 meV   omega=      2.7660 meV
     lambda_tr(   1 )=       0.113905   gamma_tr=       0.002477 meV   omega=      2.7660 meV
     lambda___(   2 )=       0.019945   gamma___=       0.000630 meV   omega=      3.3343 meV
     lambda_tr(   2 )=      -0.613583   gamma_tr=      -0.019386 meV   omega=      3.3343 meV
     lambda___(   3 )=       0.255249   gamma___=       0.023911 meV   omega=      5.7413 meV
     lambda_tr(   3 )=      -0.870010   gamma_tr=      -0.081500 meV   omega=      5.7413 meV
     lambda( tot )=       0.960950
     lambda_tr( tot )=      -1.369688
     -------------------------------------------------------------------


     Number of (k,k+q) pairs on the Fermi surface:      216 out of      216


     ismear =     1 iq =      48 coord.:   0.16667  0.16667  0.83333 wt:   0.00463
     -------------------------------------------------------------------
     lambda___(   1 )=       0.000000   gamma___=       0.000000 meV   omega=     -3.0769 meV
     lambda_tr(   1 )=       0.000000   gamma_tr=       0.000000 meV   omega=     -3.0769 meV
     lambda___(   2 )=       0.000000   gamma___=       0.000000 meV   omega=     -2.8895 meV
     lambda_tr(   2 )=       0.000000   gamma_tr=       0.000000 meV   omega=     -2.8895 meV
     lambda___(   3 )=       0.010181   gamma___=       0.000846 meV   omega=      5.4074 meV
     lambda_tr(   3 )=      -0.035155   gamma_tr=      -0.002921 meV   omega=      5.4074 meV
     lambda( tot )=       0.010181
     lambda_tr( tot )=      -0.035155
     -------------------------------------------------------------------


     Number of (k,k+q) pairs on the Fermi surface:      216 out of      216


     ismear =     1 iq =      49 coord.:   0.16667  0.33333  0.00000 wt:   0.00463
     -------------------------------------------------------------------
     lambda___(   1 )=       0.000000   gamma___=       0.000000 meV   omega=     -3.0769 meV
     lambda_tr(   1 )=       0.000000   gamma_tr=       0.000000 meV   omega=     -3.0769 meV
     lambda___(   2 )=       0.000000   gamma___=       0.000000 meV   omega=     -2.8895 meV
     lambda_tr(   2 )=       0.000000   gamma_tr=       0.000000 meV   omega=     -2.8895 meV
     lambda___(   3 )=       0.009766   gamma___=       0.000812 meV   omega=      5.4074 meV
     lambda_tr(   3 )=      -0.034348   gamma_tr=      -0.002854 meV   omega=      5.4074 meV
     lambda( tot )=       0.009766
     lambda_tr( tot )=      -0.034348
     -------------------------------------------------------------------


     Number of (k,k+q) pairs on the Fermi surface:      216 out of      216


     ismear =     1 iq =      50 coord.:   0.16667  0.33333  0.16667 wt:   0.00463
     -------------------------------------------------------------------
     lambda___(   1 )=       0.000000   gamma___=       0.000000 meV   omega=     -2.7557 meV
     lambda_tr(   1 )=       0.000000   gamma_tr=       0.000000 meV   omega=     -2.7557 meV
     lambda___(   2 )=      -2.130312   gamma___=      -0.033501 meV   omega=      2.3523 meV
     lambda_tr(   2 )=      -3.876907   gamma_tr=      -0.060967 meV   omega=      2.3523 meV
     lambda___(   3 )=       0.256653   gamma___=       0.006649 meV   omega=      3.0193 meV
     lambda_tr(   3 )=      -0.192756   gamma_tr=      -0.004994 meV   omega=      3.0193 meV
     lambda( tot )=      -1.873659
     lambda_tr( tot )=      -4.069663
     -------------------------------------------------------------------


     Number of (k,k+q) pairs on the Fermi surface:      216 out of      216


     ismear =     1 iq =      51 coord.:   0.16667  0.33333  0.33333 wt:   0.00463
     -------------------------------------------------------------------
     lambda___(   1 )=       0.000000   gamma___=       0.000000 meV   omega=     -3.0769 meV
     lambda_tr(   1 )=       0.000000   gamma_tr=       0.000000 meV   omega=     -3.0769 meV
     lambda___(   2 )=       0.000000   gamma___=       0.000000 meV   omega=     -2.8895 meV
     lambda_tr(   2 )=       0.000000   gamma_tr=       0.000000 meV   omega=     -2.8895 meV
     lambda___(   3 )=       0.009732   gamma___=       0.000809 meV   omega=      5.4074 meV
     lambda_tr(   3 )=      -0.040625   gamma_tr=      -0.003376 meV   omega=      5.4074 meV
     lambda( tot )=       0.009732
     lambda_tr( tot )=      -0.040625
     -------------------------------------------------------------------


     Number of (k,k+q) pairs on the Fermi surface:      216 out of      216


     ismear =     1 iq =      52 coord.:   0.16667  0.33333  0.50000 wt:   0.00463
     -------------------------------------------------------------------
     lambda___(   1 )=       0.000000   gamma___=       0.000000 meV   omega=     -2.1690 meV
     lambda_tr(   1 )=       0.000000   gamma_tr=       0.000000 meV   omega=     -2.1690 meV
     lambda___(   2 )=       8.038912   gamma___=       0.081595 meV   omega=      1.8899 meV
     lambda_tr(   2 )=     -26.306497   gamma_tr=      -0.267012 meV   omega=      1.8899 meV
     lambda___(   3 )=       0.146985   gamma___=       0.017413 meV   omega=      6.4564 meV
     lambda_tr(   3 )=       0.902371   gamma_tr=       0.106899 meV   omega=      6.4564 meV
     lambda( tot )=       8.185897
     lambda_tr( tot )=     -25.404125
     -------------------------------------------------------------------


     Number of (k,k+q) pairs on the Fermi surface:      216 out of      216


     ismear =     1 iq =      53 coord.:   0.16667  0.33333  0.66667 wt:   0.00463
     -------------------------------------------------------------------
     lambda___(   1 )=      -0.167574   gamma___=      -0.000375 meV   omega=      0.8871 meV
     lambda_tr(   1 )=       1.987324   gamma_tr=       0.004444 meV   omega=      0.8871 meV
     lambda___(   2 )=       0.007553   gamma___=       0.000679 meV   omega=      5.6224 meV
     lambda_tr(   2 )=      -0.002124   gamma_tr=      -0.000191 meV   omega=      5.6224 meV
     lambda___(   3 )=       0.033043   gamma___=       0.003091 meV   omega=      5.7371 meV
     lambda_tr(   3 )=       0.183130   gamma_tr=       0.017130 meV   omega=      5.7371 meV
     lambda( tot )=      -0.126977
     lambda_tr( tot )=       2.168330
     -------------------------------------------------------------------


     Number of (k,k+q) pairs on the Fermi surface:      216 out of      216


     ismear =     1 iq =      54 coord.:   0.16667  0.33333  0.83333 wt:   0.00463
     -------------------------------------------------------------------
     lambda___(   1 )=       0.000000   gamma___=       0.000000 meV   omega=     -2.1690 meV
     lambda_tr(   1 )=       0.000000   gamma_tr=       0.000000 meV   omega=     -2.1690 meV
     lambda___(   2 )=       6.477610   gamma___=       0.065748 meV   omega=      1.8899 meV
     lambda_tr(   2 )=     -28.506487   gamma_tr=      -0.289342 meV   omega=      1.8899 meV
     lambda___(   3 )=       0.216542   gamma___=       0.025653 meV   omega=      6.4564 meV
     lambda_tr(   3 )=       0.889974   gamma_tr=       0.105431 meV   omega=      6.4564 meV
     lambda( tot )=       6.694153
     lambda_tr( tot )=     -27.616513
     -------------------------------------------------------------------


     Number of (k,k+q) pairs on the Fermi surface:      216 out of      216


     ismear =     1 iq =      55 coord.:   0.16667  0.50000  0.00000 wt:   0.00463
     -------------------------------------------------------------------
     lambda___(   1 )=       0.710113   gamma___=       0.015440 meV   omega=      2.7660 meV
     lambda_tr(   1 )=       0.514703   gamma_tr=       0.011191 meV   omega=      2.7660 meV
     lambda___(   2 )=      -0.098536   gamma___=      -0.003113 meV   omega=      3.3343 meV
     lambda_tr(   2 )=      -0.720251   gamma_tr=      -0.022757 meV   omega=      3.3343 meV
     lambda___(   3 )=       0.211585   gamma___=       0.019821 meV   omega=      5.7413 meV
     lambda_tr(   3 )=      -0.902167   gamma_tr=      -0.084513 meV   omega=      5.7413 meV
     lambda( tot )=       0.823162
     lambda_tr( tot )=      -1.107716
     -------------------------------------------------------------------


     Number of (k,k+q) pairs on the Fermi surface:      216 out of      216


     ismear =     1 iq =      56 coord.:   0.16667  0.50000  0.16667 wt:   0.00463
     -------------------------------------------------------------------
     lambda___(   1 )=       0.061542   gamma___=       0.002121 meV   omega=      3.4821 meV
     lambda_tr(   1 )=      -0.134411   gamma_tr=      -0.004632 meV   omega=      3.4821 meV
     lambda___(   2 )=       0.062260   gamma___=       0.002374 meV   omega=      3.6633 meV
     lambda_tr(   2 )=       0.294104   gamma_tr=       0.011216 meV   omega=      3.6633 meV
     lambda___(   3 )=       0.037115   gamma___=       0.001994 meV   omega=      4.3479 meV
     lambda_tr(   3 )=      -0.132025   gamma_tr=      -0.007093 meV   omega=      4.3479 meV
     lambda( tot )=       0.160917
     lambda_tr( tot )=       0.027667
     -------------------------------------------------------------------


     Number of (k,k+q) pairs on the Fermi surface:      216 out of      216


     ismear =     1 iq =      57 coord.:   0.16667  0.50000  0.33333 wt:   0.00463
     -------------------------------------------------------------------
     lambda___(   1 )=       0.000000   gamma___=       0.000000 meV   omega=     -2.1690 meV
     lambda_tr(   1 )=       0.000000   gamma_tr=       0.000000 meV   omega=     -2.1690 meV
     lambda___(   2 )=       4.597442   gamma___=       0.046664 meV   omega=      1.8899 meV
     lambda_tr(   2 )=     -31.178576   gamma_tr=      -0.316464 meV   omega=      1.8899 meV
     lambda___(   3 )=       0.153628   gamma___=       0.018200 meV   omega=      6.4564 meV
     lambda_tr(   3 )=       0.827490   gamma_tr=       0.098029 meV   omega=      6.4564 meV
     lambda( tot )=       4.751070
     lambda_tr( tot )=     -30.351086
     -------------------------------------------------------------------


     Number of (k,k+q) pairs on the Fermi surface:      216 out of      216


     ismear =     1 iq =      58 coord.:   0.16667  0.50000  0.50000 wt:   0.00463
     -------------------------------------------------------------------
     lambda___(   1 )=       0.000000   gamma___=       0.000000 meV   omega=     -3.0271 meV
     lambda_tr(   1 )=       0.000000   gamma_tr=       0.000000 meV   omega=     -3.0271 meV
     lambda___(   2 )=       0.000000   gamma___=       0.000000 meV   omega=     -2.7907 meV
     lambda_tr(   2 )=       0.000000   gamma_tr=       0.000000 meV   omega=     -2.7907 meV
     lambda___(   3 )=       0.013424   gamma___=       0.002323 meV   omega=      7.8031 meV
     lambda_tr(   3 )=      -0.000931   gamma_tr=      -0.000161 meV   omega=      7.8031 meV
     lambda( tot )=       0.013424
     lambda_tr( tot )=      -0.000931
     -------------------------------------------------------------------


     Number of (k,k+q) pairs on the Fermi surface:      216 out of      216


     ismear =     1 iq =      59 coord.:   0.16667  0.50000  0.66667 wt:   0.00463
     -------------------------------------------------------------------
     lambda___(   1 )=       0.000000   gamma___=       0.000000 meV   omega=     -2.8475 meV
     lambda_tr(   1 )=       0.000000   gamma_tr=       0.000000 meV   omega=     -2.8475 meV
     lambda___(   2 )=       0.508584   gamma___=       0.016833 meV   omega=      3.4127 meV
     lambda_tr(   2 )=       0.488246   gamma_tr=       0.016160 meV   omega=      3.4127 meV
     lambda___(   3 )=       0.112610   gamma___=       0.018522 meV   omega=      7.6077 meV
     lambda_tr(   3 )=       0.122121   gamma_tr=       0.020087 meV   omega=      7.6077 meV
     lambda( tot )=       0.621194
     lambda_tr( tot )=       0.610367
     -------------------------------------------------------------------


     Number of (k,k+q) pairs on the Fermi surface:      216 out of      216


     ismear =     1 iq =      60 coord.:   0.16667  0.50000  0.83333 wt:   0.00463
     -------------------------------------------------------------------
     lambda___(   1 )=      -0.227489   gamma___=      -0.000509 meV   omega=      0.8871 meV
     lambda_tr(   1 )=       1.793593   gamma_tr=       0.004011 meV   omega=      0.8871 meV
     lambda___(   2 )=       0.007224   gamma___=       0.000649 meV   omega=      5.6224 meV
     lambda_tr(   2 )=      -0.001715   gamma_tr=      -0.000154 meV   omega=      5.6224 meV
     lambda___(   3 )=       0.032874   gamma___=       0.003075 meV   omega=      5.7371 meV
     lambda_tr(   3 )=       0.181080   gamma_tr=       0.016938 meV   omega=      5.7371 meV
     lambda( tot )=      -0.187391
     lambda_tr( tot )=       1.972957
     -------------------------------------------------------------------


     Number of (k,k+q) pairs on the Fermi surface:      216 out of      216


     ismear =     1 iq =      61 coord.:   0.16667  0.66667  0.00000 wt:   0.00463
     -------------------------------------------------------------------
     lambda___(   1 )=       0.059859   gamma___=       0.002063 meV   omega=      3.4821 meV
     lambda_tr(   1 )=      -0.157515   gamma_tr=      -0.005428 meV   omega=      3.4821 meV
     lambda___(   2 )=       0.056292   gamma___=       0.002147 meV   omega=      3.6633 meV
     lambda_tr(   2 )=       0.279514   gamma_tr=       0.010660 meV   omega=      3.6633 meV
     lambda___(   3 )=       0.034513   gamma___=       0.001854 meV   omega=      4.3479 meV
     lambda_tr(   3 )=      -0.130420   gamma_tr=      -0.007007 meV   omega=      4.3479 meV
     lambda( tot )=       0.150664
     lambda_tr( tot )=      -0.008420
     -------------------------------------------------------------------


     Number of (k,k+q) pairs on the Fermi surface:      216 out of      216


     ismear =     1 iq =      62 coord.:   0.16667  0.66667  0.16667 wt:   0.00463
     -------------------------------------------------------------------
     lambda___(   1 )=      -0.537669   gamma___=      -0.011691 meV   omega=      2.7660 meV
     lambda_tr(   1 )=       0.067559   gamma_tr=       0.001469 meV   omega=      2.7660 meV
     lambda___(   2 )=      -0.279956   gamma___=      -0.008845 meV   omega=      3.3343 meV
     lambda_tr(   2 )=      -0.884906   gamma_tr=      -0.027959 meV   omega=      3.3343 meV
     lambda___(   3 )=       0.091426   gamma___=       0.008564 meV   omega=      5.7413 meV
     lambda_tr(   3 )=      -0.967348   gamma_tr=      -0.090618 meV   omega=      5.7413 meV
     lambda( tot )=      -0.726199
     lambda_tr( tot )=      -1.784695
     -------------------------------------------------------------------


     Number of (k,k+q) pairs on the Fermi surface:      216 out of      216


     ismear =     1 iq =      63 coord.:   0.16667  0.66667  0.33333 wt:   0.00463
     -------------------------------------------------------------------
     lambda___(   1 )=      -0.402433   gamma___=      -0.000900 meV   omega=      0.8871 meV
     lambda_tr(   1 )=       1.436550   gamma_tr=       0.003213 meV   omega=      0.8871 meV
     lambda___(   2 )=       0.006048   gamma___=       0.000543 meV   omega=      5.6224 meV
     lambda_tr(   2 )=      -0.001399   gamma_tr=      -0.000126 meV   omega=      5.6224 meV
     lambda___(   3 )=       0.031057   gamma___=       0.002905 meV   omega=      5.7371 meV
     lambda_tr(   3 )=       0.174449   gamma_tr=       0.016318 meV   omega=      5.7371 meV
     lambda( tot )=      -0.365328
     lambda_tr( tot )=       1.609600
     -------------------------------------------------------------------


     Number of (k,k+q) pairs on the Fermi surface:      216 out of      216


     ismear =     1 iq =      64 coord.:   0.16667  0.66667  0.50000 wt:   0.00463
     -------------------------------------------------------------------
     lambda___(   1 )=       0.000000   gamma___=       0.000000 meV   omega=     -2.8475 meV
     lambda_tr(   1 )=       0.000000   gamma_tr=       0.000000 meV   omega=     -2.8475 meV
     lambda___(   2 )=       0.214815   gamma___=       0.007110 meV   omega=      3.4127 meV
     lambda_tr(   2 )=       0.200082   gamma_tr=       0.006622 meV   omega=      3.4127 meV
     lambda___(   3 )=       0.112021   gamma___=       0.018425 meV   omega=      7.6077 meV
     lambda_tr(   3 )=       0.118795   gamma_tr=       0.019539 meV   omega=      7.6077 meV
     lambda( tot )=       0.326836
     lambda_tr( tot )=       0.318877
     -------------------------------------------------------------------


     Number of (k,k+q) pairs on the Fermi surface:      216 out of      216


     ismear =     1 iq =      65 coord.:   0.16667  0.66667  0.66667 wt:   0.00463
     -------------------------------------------------------------------
     lambda___(   1 )=       0.000000   gamma___=       0.000000 meV   omega=     -3.0271 meV
     lambda_tr(   1 )=       0.000000   gamma_tr=       0.000000 meV   omega=     -3.0271 meV
     lambda___(   2 )=       0.000000   gamma___=       0.000000 meV   omega=     -2.7907 meV
     lambda_tr(   2 )=       0.000000   gamma_tr=       0.000000 meV   omega=     -2.7907 meV
     lambda___(   3 )=       0.012727   gamma___=       0.002202 meV   omega=      7.8031 meV
     lambda_tr(   3 )=       0.000564   gamma_tr=       0.000098 meV   omega=      7.8031 meV
     lambda( tot )=       0.012727
     lambda_tr( tot )=       0.000564
     -------------------------------------------------------------------


     Number of (k,k+q) pairs on the Fermi surface:      216 out of      216


     ismear =     1 iq =      66 coord.:   0.16667  0.66667  0.83333 wt:   0.00463
     -------------------------------------------------------------------
     lambda___(   1 )=       0.000000   gamma___=       0.000000 meV   omega=     -2.1690 meV
     lambda_tr(   1 )=       0.000000   gamma_tr=       0.000000 meV   omega=     -2.1690 meV
     lambda___(   2 )=       7.660179   gamma___=       0.077751 meV   omega=      1.8899 meV
     lambda_tr(   2 )=     -28.536958   gamma_tr=      -0.289652 meV   omega=      1.8899 meV
     lambda___(   3 )=       0.162241   gamma___=       0.019220 meV   omega=      6.4564 meV
     lambda_tr(   3 )=       0.822370   gamma_tr=       0.097422 meV   omega=      6.4564 meV
     lambda( tot )=       7.822420
     lambda_tr( tot )=     -27.714587
     -------------------------------------------------------------------


     Number of (k,k+q) pairs on the Fermi surface:      216 out of      216


     ismear =     1 iq =      67 coord.:   0.16667  0.83333  0.00000 wt:   0.00463
     -------------------------------------------------------------------
     lambda___(   1 )=       0.000000   gamma___=       0.000000 meV   omega=     -2.7557 meV
     lambda_tr(   1 )=       0.000000   gamma_tr=       0.000000 meV   omega=     -2.7557 meV
     lambda___(   2 )=      -1.861423   gamma___=      -0.029272 meV   omega=      2.3523 meV
     lambda_tr(   2 )=      -3.612752   gamma_tr=      -0.056813 meV   omega=      2.3523 meV
[...]
      210        7      6.8740    295.7045     91.0999      1.0968     -0.0882
      211        7      6.7122    278.8142    173.6323      1.3074     -0.2351
      212        7      5.5884    473.9361    457.7441      5.5179     -0.8188
      213        7      4.6673    440.8599    270.1642      1.3520     -0.2604
      214        7      5.4585    302.1781    318.1673      1.7263     -0.4207
      215        7      6.8732    293.6409     90.3567      1.0949     -0.0867
      216        7      7.7957    231.7014     12.9442      1.0006     -0.0006
  
        1        8      8.2862    180.0198      0.0000      0.9790      0.0214
        2        8      7.7982    232.2327     12.9522      1.0004     -0.0004
        3        8      6.7126    353.8381    101.2781      1.1278     -0.1133
        4        8      6.1174    301.8207     24.5535      0.8662      0.1544
        5        8      6.7126    350.7470    102.8000      1.1403     -0.1231
        6        8      7.7982    232.1062     12.9476      1.0008     -0.0008
        7        8      7.7982    232.9094     14.0243      1.0034     -0.0034
        8        8      6.7129    277.0962    176.5690      1.3117     -0.2376
        9        8      5.5908    478.0404    449.7110      4.8965     -0.7958
       10        8      4.6703    448.9102    279.4401      1.4054     -0.2885
       11        8      5.4617    306.3457    327.1951      1.7842     -0.4395
       12        8      6.8817    293.1647     85.4884      1.0839     -0.0774
       13        8      6.7126    350.5084    105.6773      1.1453     -0.1269
       14        8      5.5908    479.8572    460.1252      5.8432     -0.8289
       15        8      3.4267    241.9536    182.1870      0.9802      0.0202
       16        8      2.3802    -68.1430    524.8120      2.1178     -0.5278
       17        8      3.4954    564.8786    459.3831      1.6613     -0.3981
       18        8      5.4617    306.2362    315.2025      1.7250     -0.4203
       19        8      6.1174    302.3736     24.4629      0.8670      0.1534
       20        8      4.6703    447.9435    286.7259      1.4462     -0.3085
       21        8      2.3802    -64.8101    520.4945      2.0894     -0.5214
       22        8      1.7131    321.7565     10.7404      0.7767      0.2875
       23        8      2.3802    -67.1127    529.7863      2.1855     -0.5424
       24        8      4.6703    450.7890    268.9985      1.3553     -0.2622
       25        8      6.7126    354.9772    105.0442      1.1372     -0.1206
       26        8      5.4617    307.5321    330.0241      1.8265     -0.4525
       27        8      3.4954    589.5805    494.6072      1.9330     -0.4827
       28        8      2.3802    -66.5311    526.8814      2.1933     -0.5441
       29        8      3.4267    242.1947    192.7972      1.0049     -0.0049
       30        8      5.5908    481.5097    447.2186      4.6629     -0.7855
       31        8      7.7982    231.6775     12.5773      0.9996      0.0004
       32        8      6.8817    296.4453     86.5013      1.0904     -0.0829
       33        8      5.4617    309.3493    321.4201      1.7878     -0.4407
       34        8      4.6703    446.2745    276.0364      1.3821     -0.2765
       35        8      5.5908    483.5297    448.8119      4.9257     -0.7970
       36        8      6.7129    280.1752    163.9085      1.2812     -0.2195
       37        8      7.7982    231.7957     13.6392      1.0026     -0.0026
       38        8      6.7129    279.3440    169.1298      1.2960     -0.2284
       39        8      5.5908    479.0664    460.9364      5.5383     -0.8194
       40        8      4.6703    448.5647    280.7671      1.4106     -0.2911
       41        8      5.4617    306.5141    323.8872      1.7841     -0.4395
       42        8      6.8817    293.5312     84.8626      1.0839     -0.0774
       43        8      6.7122    281.1383    172.2468      1.3104     -0.2369
       44        8      7.7982    232.1281     12.4666      0.9993      0.0007
       45        8      6.8827    293.1811     82.2430      1.0824     -0.0761
       46        8      5.4623    307.4850    323.8375      1.8110     -0.4478
       47        8      4.6689    448.7455    284.4505      1.4361     -0.3037
       48        8      5.5902    482.6058    458.7036      5.4398     -0.8162
       49        8      5.5902    476.6240    450.4995      5.1276     -0.8050
       50        8      6.8817    293.6757     85.5952      1.0871     -0.0801
       51        8      5.5908    481.4118    453.2341      5.2296     -0.8088
       52        8      4.0623    493.3867    877.8645     -2.4942     -1.4009
       53        8      2.9909    465.4764   1386.9285     -1.5481     -1.6460
       54        8      4.0609    486.7843    892.6300     -2.3354     -1.4282
       55        8      4.6689    443.0626    275.7006      1.3973     -0.2843
       56        8      5.4617    309.0572    317.7926      1.7584     -0.4313
       57        8      4.0621    499.3651    892.2517     -2.4526     -1.4077
       58        8      2.3802    -70.3818    527.0651      2.1668     -0.5385
       59        8      1.4397    390.5245    357.5863      1.0498     -0.0475
       60        8      2.9909    458.4902   1372.0520     -1.6004     -1.6248
       61        8      5.4623    305.3818    329.0021      1.8326     -0.4543
       62        8      4.6703    446.9270    276.2142      1.3868     -0.2789
       63        8      2.9903    453.6836   1367.0747     -1.5989     -1.6254
       64        8      1.4368    390.4167    361.2336      1.0606     -0.0572
       65        8      2.3802    -69.8175    526.1729      2.1499     -0.5349
       66        8      4.0623    495.2501    875.6885     -2.4934     -1.4011
       67        8      6.8827    295.6892     89.0937      1.0967     -0.0882
       68        8      5.5908    478.9891    459.8069      5.3834     -0.8142
       69        8      4.0621    500.1849    861.7014     -2.6639     -1.3754
       70        8      2.9903    448.8193   1356.2005     -1.6660     -1.6002
       71        8      4.0621    499.2655    897.1704     -2.3825     -1.4197
       72        8      5.5908    485.4434    450.9815      4.8711     -0.7947
       73        8      6.7126    349.7662    102.6754      1.1377     -0.1211
       74        8      5.5908    481.4210    466.2352      5.9075     -0.8307
       75        8      3.4267    245.3945    184.4008      0.9817      0.0187
       76        8      2.3802    -61.5559    527.2925      2.2239     -0.5503
       77        8      3.4954    569.9292    463.4781      1.7107     -0.4155
       78        8      5.4617    304.1647    320.7142      1.7735     -0.4361
       79        8      5.5902    473.2264    453.5224      5.2623     -0.8100
       80        8      6.8817    293.5339     86.5874      1.0908     -0.0833
       81        8      5.5908    482.4025    470.6026      6.3352     -0.8422
       82        8      4.0623    496.0121    870.1376     -2.4981     -1.4003
       83        8      2.9909    446.5338   1352.8528     -1.6468     -1.6073
       84        8      4.0609    483.4327    882.4565     -2.4071     -1.4154
       85        8      3.4267    237.8173    185.4145      0.9810      0.0193
       86        8      5.5902    472.0602    452.5120      5.3642     -0.8136
       87        8      6.7126    350.8152    103.0123      1.1375     -0.1208
       88        8      5.4623    310.3799    321.5081      1.7845     -0.4396
       89        8      3.4954    583.0157    462.2967      1.6893     -0.4080
       90        8      2.3795    -72.1389    522.7745      2.1061     -0.5252
       91        8      2.3795    -70.0391    525.7485      2.1741     -0.5400
       92        8      4.0609    489.8460    878.3065     -2.4828     -1.4028
       93        8      5.4617    304.6338    321.2290      1.7682     -0.4345
       94        8      4.6703    450.0002    273.1717      1.3627     -0.2662
       95        8      2.9909    449.2685   1367.8911     -1.6190     -1.6177
       96        8      1.4395    397.3415    355.6682      1.0535     -0.0507
       97        8      3.4954    584.3255    462.6627      1.6899     -0.4083
       98        8      2.9909    448.5999   1347.9540     -1.6696     -1.5989
       99        8      3.4954    570.8403    459.7941      1.6704     -0.4014
      100        8      2.9903    462.9095   1388.3358     -1.5403     -1.6492
      101        8      3.4954    582.8541    479.0345      1.7934     -0.4424
      102        8      2.9909    443.7173   1353.1335     -1.6749     -1.5971
      103        8      5.4623    308.2677    328.5081      1.8213     -0.4510
      104        8      4.0623    494.7222    872.0100     -2.4681     -1.4052
      105        8      2.3802    -62.1838    531.4024      2.2429     -0.5541
      106        8      1.4368    395.2572    359.0906      1.0535     -0.0508
      107        8      2.9903    457.1725   1378.3734     -1.5763     -1.6344
      108        8      4.6703    451.3002    270.7028      1.3561     -0.2626
      109        8      6.1174    299.8215     24.8040      0.8662      0.1545
      110        8      4.6703    441.9348    277.5954      1.4013     -0.2864
      111        8      2.3802    -61.2039    528.3117      2.2005     -0.5456
      112        8      1.7131    321.2534     10.6629      0.7756      0.2893
      113        8      2.3802    -67.8256    531.1338      2.1514     -0.5352
      114        8      4.6703    449.5349    272.4465      1.3823     -0.2765
      115        8      4.6689    446.5419    286.5897      1.4563     -0.3133
      116        8      5.4617    308.8363    319.3509      1.7564     -0.4306
      117        8      4.0621    498.3777    880.2080     -2.4951     -1.4008
      118        8      2.3802    -59.7170    529.1533      2.2507     -0.5557
      119        8      1.4397    391.0391    357.8467      1.0538     -0.0511
      120        8      2.9909    476.4885   1398.8435     -1.5103     -1.6621
      121        8      2.3795    -68.6762    531.0195      2.1612     -0.5373
      122        8      4.0609    490.1738    879.2599     -2.4844     -1.4025
      123        8      5.4617    306.2752    317.6662      1.7516     -0.4291
      124        8      4.6703    441.9518    281.9222      1.4253     -0.2984
      125        8      2.9909    446.6008   1344.4863     -1.6823     -1.5944
      126        8      1.4395    393.5676    353.7203      1.0346     -0.0334
      127        8      1.7143    320.4857     10.4566      0.7757      0.2892
      128        8      2.3795    -67.3329    528.6379      2.1783     -0.5409
      129        8      4.6689    446.8907    279.5560      1.4118     -0.2917
      130        8      6.1174    300.0019     24.5825      0.8661      0.1546
      131        8      4.6689    442.2782    277.8132      1.3858     -0.2784
      132        8      2.3795    -65.9698    524.4839      2.1907     -0.5435
      133        8      2.3795    -66.0087    529.4113      2.2955     -0.5644
      134        8      1.4395    390.7242    358.1724      1.0584     -0.0552
      135        8      2.9909    473.0868   1392.8133     -1.5307     -1.6533
      136        8      4.6703    450.2800    281.9627      1.4362     -0.3037
      137        8      5.4617    311.3119    316.4778      1.7371     -0.4243
      138        8      4.0609    501.1998    882.1538     -2.4822     -1.4029
      139        8      4.6689    441.3808    286.8162      1.4303     -0.3009
      140        8      2.9909    446.5264   1344.6616     -1.6762     -1.5966
      141        8      1.4397    393.5138    355.3691      1.0380     -0.0366
      142        8      2.3802    -67.9651    533.3868      2.1564     -0.5363
      143        8      4.0621    488.6166    874.4159     -2.5555     -1.3913
      144        8      5.4617    308.1456    316.7826      1.7399     -0.4252
      145        8      6.7126    354.3219    105.0023      1.1410     -0.1236
      146        8      5.4617    305.2199    322.9879      1.7848     -0.4397
      147        8      3.4954    577.4491    446.9837      1.5840     -0.3687
      148        8      2.3802    -72.4400    530.8783      2.1672     -0.5386
      149        8      3.4267    234.3131    184.3890      0.9730      0.0277
      150        8      5.5908    475.3946    446.7554      4.9310     -0.7972
      151        8      5.4623    304.7073    323.5954      1.7926     -0.4421
      152        8      4.6703    447.5670    280.5148      1.4144     -0.2930
      153        8      2.9903    444.9688   1355.3244     -1.6293     -1.6138
      154        8      1.4368    389.3420    356.1248      1.0544     -0.0516
      155        8      2.3802    -71.8929    530.3975      2.1788     -0.5410
      156        8      4.0623    494.3951    887.0405     -2.4576     -1.4069
      157        8      3.4954    563.6968    443.9057      1.5572     -0.3578
      158        8      2.9909    475.4645   1392.5288     -1.5345     -1.6517
      159        8      3.4954    570.3389    475.9238      1.8033     -0.4455
      160        8      2.9903    441.4098   1343.8433     -1.6981     -1.5889
      161        8      3.4954    578.7717    448.5075      1.5948     -0.3730
      162        8      2.9909    477.6094   1394.0214     -1.5362     -1.6510
      163        8      2.3795    -60.8323    530.8428      2.1861     -0.5426
      164        8      1.4395    389.8422    355.9511      1.0471     -0.0450
      165        8      2.9909    470.4270   1386.7379     -1.5596     -1.6412
      166        8      4.6703    446.2373    277.8846      1.3975     -0.2844
      167        8      5.4617    305.2518    324.4822      1.7962     -0.4433
      168        8      4.0609    495.1987    876.7117     -2.4608     -1.4064
      169        8      3.4267    241.5813    184.3555      0.9771      0.0234
      170        8      2.3795    -60.3831    534.0623      2.2553     -0.5566
      171        8      3.4954    564.8539    451.7428      1.6280     -0.3857
      172        8      5.4623    304.0592    322.4660      1.7879     -0.4407
      173        8      6.7126    354.2501    102.1566      1.1334     -0.1177
      174        8      5.5902    480.8518    461.3178      5.6308     -0.8224
      175        8      5.5902    482.0043    471.8585      6.4797     -0.8457
      176        8      4.0609    499.1491    874.8325     -2.5048     -1.3992
      177        8      2.9909    469.7545   1383.6701     -1.5669     -1.6382
      178        8      4.0623    489.7290    889.2278     -2.3928     -1.4179
      179        8      5.5908    477.5098    451.6887      5.0334     -0.8013
      180        8      6.8817    293.8353     80.3677      1.0747     -0.0695
      181        8      7.7982    232.2941     12.5832      0.9996      0.0004
      182        8      6.8817    292.3295     81.2608      1.0806     -0.0746
      183        8      5.4617    308.2406    315.9351      1.7674     -0.4342
      184        8      4.6703    445.4872    281.6211      1.4237     -0.2976
      185        8      5.5908    479.0455    459.0693      5.5750     -0.8206
      186        8      6.7129    282.3496    172.1512      1.3110     -0.2372
      187        8      6.8827    295.8525     89.2084      1.0920     -0.0843
      188        8      5.5908    479.5841    460.3179      5.6789     -0.8239
      189        8      4.0621    496.2430    873.5017     -2.5649     -1.3899
      190        8      2.9903    472.1904   1399.3597     -1.5091     -1.6627
      191        8      4.0621    494.1214    893.2650     -2.4575     -1.4069
      192        8      5.5908    474.4227    447.4529      5.0192     -0.8008
      193        8      5.4623    304.6733    320.2291      1.7655     -0.4336
      194        8      4.0623    501.5447    894.0748     -2.4097     -1.4150
      195        8      2.3802    -62.6658    520.6190      2.0968     -0.5231
      196        8      1.4368    392.3906    356.6718      1.0440     -0.0422
      197        8      2.9903    467.3452   1389.7861     -1.5416     -1.6487
      198        8      4.6703    442.8582    276.5058      1.4001     -0.2858
      199        8      4.6689    443.4568    277.7068      1.4024     -0.2869
      200        8      2.9909    444.4516   1350.5297     -1.6634     -1.6012
      201        8      1.4397    393.1894    358.4177      1.0498     -0.0475
      202        8      2.3802    -65.2242    521.3260      2.0915     -0.5219
      203        8      4.0621    497.3628    878.0949     -2.4768     -1.4037
      204        8      5.4617    305.8354    321.5570      1.7900     -0.4413
      205        8      5.5902    478.8149    467.5339      5.9599     -0.8322
      206        8      4.0609    496.2476    876.9081     -2.4388     -1.4100
      207        8      2.9909    439.0802   1342.9151     -1.7083     -1.5854
      208        8      4.0623    503.8133    896.4110     -2.3916     -1.4181
      209        8      5.5908    482.9223    451.2356      4.8751     -0.7949
      210        8      6.8817    294.9459     86.0679      1.0873     -0.0803
      211        8      6.7122    278.8142    173.6323      1.3074     -0.2351
      212        8      5.5902    476.0665    463.0521      5.8463     -0.8290
      213        8      4.6689    442.6033    270.6660      1.3675     -0.2687
      214        8      5.4623    304.2763    321.2328      1.7642     -0.4332
      215        8      6.8827    292.8593     84.2373      1.0830     -0.0766
      216        8      7.7982    232.2438     12.8423      1.0003     -0.0003
  
     ===================================================================
     Memory usage:  VmHWM =        77Mb
                   VmPeak =       483Mb
     ===================================================================


     ===================================================================
     Eliashberg Spectral Function in the Migdal Approximation
     ===================================================================

     lambda :    0.9472895
     lambda_tr :    1.2113207
 
     Estimated Allen-Dynes Tc
 
     logavg =    0.0001685 l_a2F =    0.9483647
     mu =   0.10 Tc =         1.702736278336 K
     mu =   0.12 Tc =         1.529102263417 K
     mu =   0.14 Tc =         1.360313766478 K
     mu =   0.16 Tc =         1.197275956202 K
     mu =   0.18 Tc =         1.040959145590 K
     mu =   0.20 Tc =         0.892389409646 K
     a2F          :      0.07s CPU      0.07s WALL (       1 calls)

     Unfolding on the coarse grid
     elphon_wrap  :     95.61s CPU     96.46s WALL (       1 calls)

     INITIALIZATION: 

     init_vloc    :      0.09s CPU      0.11s WALL (      29 calls)
     init_us_1    :      2.58s CPU      2.57s WALL (      29 calls)


     Electron-Phonon interpolation
     ephwann      :      2.20s CPU      2.36s WALL (       1 calls)
     ep-interp    :      1.83s CPU      1.96s WALL (     216 calls)
     PH SELF-ENER :      0.16s CPU      0.14s WALL (     216 calls)

     Ham: step 1  :      0.00s CPU      0.00s WALL (       1 calls)
     Ham: step 2  :      0.00s CPU      0.00s WALL (       1 calls)
     ep: step 1   :      0.00s CPU      0.00s WALL (      81 calls)
     ep: step 2   :      0.02s CPU      0.02s WALL (      81 calls)
     DynW2B       :      0.00s CPU      0.00s WALL (     216 calls)
     HamW2B       :      0.80s CPU      0.83s WALL (   23436 calls)
     ephW2Bp      :      0.16s CPU      0.15s WALL (     216 calls)


     Total program execution
     EPW          :  1m46.68s CPU     1m47.79s WALL

                                                                                          
 Please consider citing:                                                                  
 S. Ponce, E. R. Margine, C. Verdi and F. Giustino, Comput. Phys. Commun. 209, 116 (2016) 
                                                                                          
