                                                                                      
                                       ``:oss/                                        
                           `.+s+.     .+ys--yh+     `./ss+.                           
                          -sh//yy+`   +yy   +yy    -+h+-oyy                           
                          -yh- .oyy/.-sh.   .syo-.:sy-  /yh                           
                 `.-.`    `yh+   -oyyyo.     `/syys:    oys      `.`                  
               `/+ssys+-` `sh+      `                   oys`   .:osyo`                
               -yh- ./syyooyo`                          .sys+/oyo--yh/                
               `yy+    .-:-.                             `-/+/:`  -sh-                
                /yh.                                              oys                 
          ``..---hho---------`   .---------..`      `.-----.`    -hd+---.             
       `./osmNMMMMMMMMMMMMMMMs. +NNMMMMMMMMNNmh+.   yNMMMMMNm-  oNMMMMMNmo++:`        
       +sy--/sdMMMhyyyyyyyNMMh- .oyNMMmyyyyyhNMMm+` -yMMMdyyo:` .oyyNMMNhs+syy`       
       -yy/   /MMM+.`-+/``mMMy-   `mMMh:`````.dMMN:` `MMMy-`-dhhy```mMMy:``+hs        
        -yy+` /MMMo:-mMM+`-oo/.    mMMh:     `dMMN/`  dMMm:`dMMMMy..MMMo-.+yo`        
         .sys`/MMMMNNMMMs-         mMMmyooooymMMNo:   oMMM/sMMMMMM++MMN//oh:          
          `sh+/MMMhyyMMMs- `-`     mMMMMMMMMMNmy+-`   -MMMhMMMsmMMmdMMd/yy+           
    `-/+++oyy-/MMM+.`/hh/.`mNm:`   mMMd+/////:-.`      NMMMMMd/:NMMMMMy:/yyo/:.`      
   +os+//:-..-oMMMo:--:::-/MMMo. .-mMMd+---`           hMMMMN+. oMMMMMo. `-+osyso:`   
   syo     `mNMMMMMNNNNNNNNMMMo.oNNMMMMMNNNN:`         +MMMMs:`  dMMMN/`     ``:syo   
   /yh`     :syyyyyyyyyyyyyyyy+.`+syyyyyyyyo:`         .oyys:`   .oyys:`        +yh   
   -yh-        ````````````````    `````````              ``        ``          oys   
   -+h/------------------------::::::::://////++++++++++++++++++++++///////::::/yd:   
   shdddddddddddddddddddddddddddddhhhhhhhhyyyyyssssssssssssssssyyyyyyyhhhhhhhddddh`   
                                                                                      
  S. Ponce, E. R. Margine, C. Verdi, and F. Giustino,                                 
                                                Comput. Phys. Commun. 209, 116 (2016) 
                                                                                      

     Program EPW v.5.4b starts on  3Jun2021 at 12:54:45 

     This program is part of the open-source Quantum ESPRESSO suite
     for quantum simulation of materials; please cite
         "P. Giannozzi et al., J. Phys.:Condens. Matter 21 395502 (2009);
         "P. Giannozzi et al., J. Phys.:Condens. Matter 29 465901 (2017);
         "P. Giannozzi et al., J. Chem. Phys. 152 154105 (2020);
          URL http://www.quantum-espresso.org", 
     in publications or presentations arising from this work. More details at
     http://www.quantum-espresso.org/quote

     Parallel version (MPI), running on     4 processors

     MPI processes distributed on     1 nodes
     K-points division:     npool     =       4
     Reading input from epw1.in

     WARNING: The specified dis_win_min is ignored.
              You should instead use bands_skipped = 'exclude_bands = ...'
              to control the lower bound of band manifold.

     Reading supplied temperature list.

     Reading xml data from directory:

     ./pb.save/

     IMPORTANT: XC functional enforced from input :
     Exchange-correlation= PZ
                           (   1   1   0   0   0   0   0)
     Any further DFT definition will be discarded
     Please, verify this is what you really want


     G-vector sticks info
     --------------------
     sticks:   dense  smooth     PW     G-vecs:    dense   smooth      PW
     Sum         703     703    211                12387    12387    2109

     Using Slab Decomposition

     Reading collected, re-writing distributed wavefunctions

     --                                                                         

     bravais-lattice index     =            2
     lattice parameter (a_0)   =       9.2700  a.u.
     unit-cell volume          =     199.1495 (a.u.)^3
     number of atoms/cell      =            1
     number of atomic types    =            1
     kinetic-energy cut-off    =      60.0000  Ry
     charge density cut-off    =     240.0000  Ry
     Exchange-correlation= PZ
                           (   1   1   0   0   0   0   0)
     Non magnetic calculation with spin-orbit

     celldm(1)=    9.27000  celldm(2)=    0.00000  celldm(3)=    0.00000
     celldm(4)=    0.00000  celldm(5)=    0.00000  celldm(6)=    0.00000

     crystal axes: (cart. coord. in units of a_0)
               a(1) = ( -0.5000  0.0000  0.5000 )  
               a(2) = (  0.0000  0.5000  0.5000 )  
               a(3) = ( -0.5000  0.5000  0.0000 )  

     reciprocal axes: (cart. coord. in units 2 pi/a_0)
               b(1) = ( -1.0000 -1.0000  1.0000 )  
               b(2) = (  1.0000  1.0000  1.0000 )  
               b(3) = ( -1.0000  1.0000 -1.0000 )  


     Atoms inside the unit cell: 

   Cartesian axes

     site n.  atom      mass           positions (a_0 units)
        1        Pb 207.2000   tau( 1) = (    0.00000    0.00000    0.00000  )

     49 Sym.Ops. (with q -> -q+G )


     G cutoff =  522.4094  (  12387 G-vectors)     FFT grid: ( 36, 36, 36)
     number of k points=   27  gaussian broad. (Ry)=  0.0200     ngauss =   1
                       cart. coord. in units 2pi/a_0
        k(    1) = (   0.0000000   0.0000000   0.0000000), wk =   0.0370370
        k(    2) = (  -0.3333333   0.3333333  -0.3333333), wk =   0.0370370
        k(    3) = (  -0.6666667   0.6666667  -0.6666667), wk =   0.0370370
        k(    4) = (   0.3333333   0.3333333   0.3333333), wk =   0.0370370
        k(    5) = (   0.0000000   0.6666667   0.0000000), wk =   0.0370370
        k(    6) = (  -0.3333333   1.0000000  -0.3333333), wk =   0.0370370
        k(    7) = (   0.6666667   0.6666667   0.6666667), wk =   0.0370370
        k(    8) = (   0.3333333   1.0000000   0.3333333), wk =   0.0370370
        k(    9) = (   0.0000000   1.3333333   0.0000000), wk =   0.0370370
        k(   10) = (  -0.3333333  -0.3333333   0.3333333), wk =   0.0370370
        k(   11) = (  -0.6666667   0.0000000   0.0000000), wk =   0.0370370
        k(   12) = (  -1.0000000   0.3333333  -0.3333333), wk =   0.0370370
        k(   13) = (   0.0000000   0.0000000   0.6666667), wk =   0.0370370
        k(   14) = (  -0.3333333   0.3333333   0.3333333), wk =   0.0370370
        k(   15) = (  -0.6666667   0.6666667  -0.0000000), wk =   0.0370370
        k(   16) = (   0.3333333   0.3333333   1.0000000), wk =   0.0370370
        k(   17) = (   0.0000000   0.6666667   0.6666667), wk =   0.0370370
        k(   18) = (  -0.3333333   1.0000000   0.3333333), wk =   0.0370370
        k(   19) = (  -0.6666667  -0.6666667   0.6666667), wk =   0.0370370
        k(   20) = (  -1.0000000  -0.3333333   0.3333333), wk =   0.0370370
        k(   21) = (  -1.3333333   0.0000000   0.0000000), wk =   0.0370370
        k(   22) = (  -0.3333333  -0.3333333   1.0000000), wk =   0.0370370
        k(   23) = (  -0.6666667  -0.0000000   0.6666667), wk =   0.0370370
        k(   24) = (  -1.0000000   0.3333333   0.3333333), wk =   0.0370370
        k(   25) = (   0.0000000   0.0000000   1.3333333), wk =   0.0370370
        k(   26) = (  -0.3333333   0.3333333   1.0000000), wk =   0.0370370
        k(   27) = (  -0.6666667   0.6666667   0.6666667), wk =   0.0370370

     PseudoPot. # 1 for Pb read from file:
     ../../pseudo/pb_s.UPF
     MD5 check sum: 7774f596943a2055f0d8d19eea6f2ae8
     Pseudo is Norm-conserving, Zval = 14.0
     Generated using "atomic" code by A. Dal Corso  (Quantum ESPRESSO distribution)
     Using radial grid of 1281 points,  4 beta functions with: 
                l(1) =   2
                l(2) =   2
                l(3) =   1
                l(4) =   1
     EPW          :      0.21s CPU      0.22s WALL

     EPW          :      0.35s CPU      0.36s WALL

     -------------------------------------------------------------------
     Wannierization on  3 x  3 x  3 electronic grid
     -------------------------------------------------------------------

     Spin CASE ( non-collinear )

     Initializing Wannier90


     Initial Wannier projections

     (   0.00000   0.00000   0.00000) :  l =  -3 mr =   1
     (   0.00000   0.00000   0.00000) :  l =  -3 mr =   1
     (   0.00000   0.00000   0.00000) :  l =  -3 mr =   2
     (   0.00000   0.00000   0.00000) :  l =  -3 mr =   2
     (   0.00000   0.00000   0.00000) :  l =  -3 mr =   3
     (   0.00000   0.00000   0.00000) :  l =  -3 mr =   3
     (   0.00000   0.00000   0.00000) :  l =  -3 mr =   4
     (   0.00000   0.00000   0.00000) :  l =  -3 mr =   4

      - Number of bands is ( 12)
      - Number of total bands is ( 22)
      - Number of excluded bands is ( 10)
      - Number of wannier functions is (  8)
      - All guiding functions are given 

  Reading data about k-point neighbours 

      - All neighbours are found 

     AMN
      k points =    27 in    4 pools
            1 of    7 on ionode
            2 of    7 on ionode
            3 of    7 on ionode
            4 of    7 on ionode
            5 of    7 on ionode
            6 of    7 on ionode
            7 of    7 on ionode

     AMN calculated

     MMN
      k points =    27 in    4 pools
            1 of    7 on ionode
            2 of    7 on ionode
            3 of    7 on ionode
            4 of    7 on ionode
            5 of    7 on ionode
            6 of    7 on ionode
            7 of    7 on ionode
     MMN calculated

     Running Wannier90

     Wannier Function centers (cartesian, alat) and spreads (ang):

     (   0.08272   0.08272   0.08272) :   1.60664
     (   0.08272   0.08272   0.08272) :   1.60664
     (   0.08272  -0.08272  -0.08272) :   1.60664
     (   0.08272  -0.08272  -0.08272) :   1.60664
     (  -0.08272   0.08272  -0.08272) :   1.60664
     (  -0.08272   0.08272  -0.08272) :   1.60664
     (  -0.08272  -0.08272   0.08272) :   1.60664
     (  -0.08272  -0.08272   0.08272) :   1.60664

     -------------------------------------------------------------------
     WANNIER      :      4.68s CPU      4.68s WALL (       1 calls)
     -------------------------------------------------------------------
 debug: npwx, npol, nbnd, nspin, nhm, ntyp=        1580           2          22           4          16           1

     Dipole matrix elements calculated


     Calculating kgmap

     Progress kgmap: ########################################
     kmaps        :      0.03s CPU      0.03s WALL (       1 calls)
     Symmetries of Bravais lattice:  48
     Symmetries of crystal:          48


     ===================================================================
     irreducible q point #    1
     ===================================================================

     Symmetries of small group of q: 48
          in addition sym. q -> -q+G:

     Number of q in the star =    1
     List of q in the star:
          1   0.000000000   0.000000000   0.000000000
     Imposing acoustic sum rule on the dynamical matrix

        q(    1 ) = (   0.0000000   0.0000000   0.0000000 )


     ===================================================================
     irreducible q point #    2
     ===================================================================

     Symmetries of small group of q:  6

     Number of q in the star =    8
     List of q in the star:
          1  -0.333333333   0.333333333  -0.333333333
          2   0.333333333   0.333333333  -0.333333333
          3   0.333333333   0.333333333   0.333333333
          4  -0.333333333   0.333333333   0.333333333
          5   0.333333333  -0.333333333   0.333333333
          6  -0.333333333  -0.333333333  -0.333333333
          7   0.333333333  -0.333333333  -0.333333333
          8  -0.333333333  -0.333333333   0.333333333

        q(    2 ) = (  -0.3333333   0.3333333  -0.3333333 )
        q(    3 ) = (   0.3333333   0.3333333  -0.3333333 )
        q(    4 ) = (   0.3333333   0.3333333   0.3333333 )
        q(    5 ) = (  -0.3333333   0.3333333   0.3333333 )
        q(    6 ) = (   0.3333333  -0.3333333   0.3333333 )
        q(    7 ) = (  -0.3333333  -0.3333333  -0.3333333 )
        q(    8 ) = (   0.3333333  -0.3333333  -0.3333333 )
        q(    9 ) = (  -0.3333333  -0.3333333   0.3333333 )


     ===================================================================
     irreducible q point #    3
     ===================================================================

     Symmetries of small group of q:  8

     Number of q in the star =    6
     List of q in the star:
          1   0.000000000   0.666666667   0.000000000
          2  -0.666666667   0.000000000   0.000000000
          3   0.000000000  -0.666666667   0.000000000
          4   0.000000000   0.000000000   0.666666667
          5   0.000000000   0.000000000  -0.666666667
          6   0.666666667   0.000000000   0.000000000

        q(   10 ) = (   0.0000000   0.6666667   0.0000000 )
        q(   11 ) = (  -0.6666667   0.0000000   0.0000000 )
        q(   12 ) = (   0.0000000  -0.6666667   0.0000000 )
        q(   13 ) = (   0.0000000   0.0000000   0.6666667 )
        q(   14 ) = (   0.0000000   0.0000000  -0.6666667 )
        q(   15 ) = (   0.6666667   0.0000000   0.0000000 )


     ===================================================================
     irreducible q point #    4
     ===================================================================

     Symmetries of small group of q:  4

     Number of q in the star =   12
     List of q in the star:
          1   0.666666667   0.000000000   0.666666667
          2   0.666666667   0.000000000  -0.666666667
          3  -0.666666667   0.000000000  -0.666666667
          4  -0.666666667   0.000000000   0.666666667
          5   0.000000000  -0.666666667   0.666666667
          6  -0.666666667   0.666666667   0.000000000
          7  -0.666666667  -0.666666667   0.000000000
          8   0.666666667   0.666666667   0.000000000
          9   0.666666667  -0.666666667   0.000000000
         10   0.000000000   0.666666667   0.666666667
         11   0.000000000   0.666666667  -0.666666667
         12   0.000000000  -0.666666667  -0.666666667

        q(   16 ) = (   0.6666667   0.0000000   0.6666667 )
        q(   17 ) = (   0.6666667   0.0000000  -0.6666667 )
        q(   18 ) = (  -0.6666667   0.0000000  -0.6666667 )
        q(   19 ) = (  -0.6666667  -0.0000000   0.6666667 )
        q(   20 ) = (   0.0000000  -0.6666667   0.6666667 )
        q(   21 ) = (  -0.6666667   0.6666667   0.0000000 )
        q(   22 ) = (  -0.6666667  -0.6666667   0.0000000 )
        q(   23 ) = (   0.6666667   0.6666667   0.0000000 )
        q(   24 ) = (   0.6666667  -0.6666667   0.0000000 )
        q(   25 ) = (   0.0000000   0.6666667   0.6666667 )
        q(   26 ) = (   0.0000000   0.6666667  -0.6666667 )
        q(   27 ) = (  -0.0000000  -0.6666667  -0.6666667 )

     Writing epmatq on .epb files


     The .epb files have been correctly written


     Band disentanglement is used: nbndsub =    8
     Use zone-centred Wigner-Seitz cells 
     Number of WS vectors for electrons       43
     Number of WS vectors for phonons       43
     Number of WS vectors for electron-phonon       43
     Maximum number of cores for efficient parallelization      129
     Results may improve by using use_ws == .TRUE. 
 
     Bloch2wane:          1 /         27
     Bloch2wane:          2 /         27
     Bloch2wane:          3 /         27
     Bloch2wane:          4 /         27
     Bloch2wane:          5 /         27
     Bloch2wane:          6 /         27
     Bloch2wane:          7 /         27
     Bloch2wane:          8 /         27
     Bloch2wane:          9 /         27
     Bloch2wane:         10 /         27
     Bloch2wane:         11 /         27
     Bloch2wane:         12 /         27
     Bloch2wane:         13 /         27
     Bloch2wane:         14 /         27
     Bloch2wane:         15 /         27
     Bloch2wane:         16 /         27
     Bloch2wane:         17 /         27
     Bloch2wane:         18 /         27
     Bloch2wane:         19 /         27
     Bloch2wane:         20 /         27
     Bloch2wane:         21 /         27
     Bloch2wane:         22 /         27
     Bloch2wane:         23 /         27
     Bloch2wane:         24 /         27
     Bloch2wane:         25 /         27
     Bloch2wane:         26 /         27
     Bloch2wane:         27 /         27
 
     Bloch2wanp:          1 /         11
     Bloch2wanp:          2 /         11
     Bloch2wanp:          3 /         11
     Bloch2wanp:          4 /         11
     Bloch2wanp:          5 /         11
     Bloch2wanp:          6 /         11
     Bloch2wanp:          7 /         11
     Bloch2wanp:          8 /         11
     Bloch2wanp:          9 /         11
     Bloch2wanp:         10 /         11
     Bloch2wanp:         11 /         11

     Writing Hamiltonian, Dynamical matrix and EP vertex in Wann rep to file

     ===================================================================
     Memory usage:  VmHWM =        58Mb
                   VmPeak =       396Mb
     ===================================================================
     
     Using uniform q-mesh:    6   6   6
     Size of q point mesh for interpolation:        216
     Using uniform k-mesh:    6   6   6
     Size of k point mesh for interpolation:        432
     Max number of k points per pool:              108

     Fermi energy coarse grid =  10.121988 eV

     Skipping the first   10 bands:

     The Fermi level will be determined with   4.00000 electrons

     Fermi energy is calculated from the fine k-mesh: Ef =  11.622353 eV

     Warning: check if difference with Fermi level fine grid makes sense

     ===================================================================

              ibndmin =     1  ebndmin =    -0.541 eV
              ibndmax =     8  ebndmax =    19.909 eV


     Number of ep-matrix elements per pool :        10368 ~=   81.00 Kb (@ 8 bytes/ DP)
     Number selected, total            100            100
     Number selected, total            200            200
     We only need to compute      216 q-points
      

     ===================================================================
     Phonon (Imaginary) Self-Energy in the Migdal Approximation
     ===================================================================


     Fermi Surface thickness =  20.000000 eV

     Golden Rule strictly enforced with T =   0.043087 eV
     Gaussian Broadening:   0.200000 eV, ngauss=   1
     DOS =  0.904603 states/spin/eV/Unit Cell at Ef= 11.622353 eV

     ismear =     1 iq =       1 coord.:   0.00000  0.00000  0.00000 wt:   0.00463 Temp:  500.000K
     -------------------------------------------------------------------
     lambda___(   1 )=       0.000000   gamma___=       0.000000 meV   omega=      0.0000 meV
     lambda_tr(   1 )=       0.000000   gamma_tr=       0.000000 meV   omega=      0.0000 meV
     lambda___(   2 )=       0.000000   gamma___=       0.000000 meV   omega=      0.0000 meV
     lambda_tr(   2 )=       0.000000   gamma_tr=       0.000000 meV   omega=      0.0000 meV
     lambda___(   3 )=       0.000000   gamma___=       0.000000 meV   omega=      0.0000 meV
     lambda_tr(   3 )=       0.000000   gamma_tr=       0.000000 meV   omega=      0.0000 meV
     lambda___( tot )=       0.000000
     lambda_tr( tot )=       0.000000
     -------------------------------------------------------------------


     Number of (k,k+q) pairs on the Fermi surface:      216 out of      216


     ===================================================================
     Electron (Imaginary) Self-Energy in the Migdal Approximation
     ===================================================================


     Fermi Surface thickness =  20.000000 eV

     Golden Rule strictly enforced with T =   0.043087 eV
     Gaussian Broadening:   0.200000 eV, ngauss=   1
 

     ismear =     1 iq =       2 coord.:   0.00000  0.00000  0.16667 wt:   0.00463 Temp:  500.000K
     -------------------------------------------------------------------
     lambda___(   1 )=       0.068878   gamma___=       0.000284 meV   omega=      1.2052 meV
     lambda_tr(   1 )=       0.067823   gamma_tr=       0.000280 meV   omega=      1.2052 meV
     lambda___(   2 )=       0.068878   gamma___=       0.000284 meV   omega=      1.2052 meV
     lambda_tr(   2 )=       0.067823   gamma_tr=       0.000280 meV   omega=      1.2052 meV
     lambda___(   3 )=       0.000000   gamma___=       0.000000 meV   omega=      0.4924 meV
     lambda_tr(   3 )=       0.000000   gamma_tr=       0.000000 meV   omega=      0.4924 meV
     lambda___( tot )=       0.137757
     lambda_tr( tot )=       0.135647
     -------------------------------------------------------------------


     Number of (k,k+q) pairs on the Fermi surface:      216 out of      216


     ismear =     1 iq =       3 coord.:   0.00000  0.00000  0.33333 wt:   0.00463 Temp:  500.000K
     -------------------------------------------------------------------
     lambda___(   1 )=       0.345299   gamma___=       0.005667 meV   omega=      2.4032 meV
     lambda_tr(   1 )=     -17.951424   gamma_tr=      -0.294627 meV   omega=      2.4032 meV
     lambda___(   2 )=       0.345299   gamma___=       0.005667 meV   omega=      2.4032 meV
     lambda_tr(   2 )=     -17.951424   gamma_tr=      -0.294627 meV   omega=      2.4032 meV
     lambda___(   3 )=       0.583581   gamma___=       0.018331 meV   omega=      3.3246 meV
     lambda_tr(   3 )=     -23.065101   gamma_tr=      -0.724489 meV   omega=      3.3246 meV
     lambda___( tot )=       1.274179
     lambda_tr( tot )=     -58.967949
     -------------------------------------------------------------------


     Number of (k,k+q) pairs on the Fermi surface:      216 out of      216


     ismear =     1 iq =       4 coord.:   0.00000  0.00000  0.50000 wt:   0.00463 Temp:  500.000K
     -------------------------------------------------------------------
     lambda___(   1 )=       0.000000   gamma___=       0.000000 meV   omega=      3.8020 meV
     lambda_tr(   1 )=       0.000000   gamma_tr=       0.000000 meV   omega=      3.8020 meV
     lambda___(   2 )=       0.000000   gamma___=       0.000000 meV   omega=      3.8020 meV
     lambda_tr(   2 )=       0.000000   gamma_tr=       0.000000 meV   omega=      3.8020 meV
     lambda___(   3 )=       0.000000   gamma___=       0.000000 meV   omega=      4.6498 meV
     lambda_tr(   3 )=       0.000000   gamma_tr=       0.000000 meV   omega=      4.6498 meV
     lambda___( tot )=       0.000000
     lambda_tr( tot )=       0.000000
     -------------------------------------------------------------------


     Number of (k,k+q) pairs on the Fermi surface:      216 out of      216


     ismear =     1 iq =       5 coord.:   0.00000  0.00000  0.66667 wt:   0.00463 Temp:  500.000K
     -------------------------------------------------------------------
     lambda___(   1 )=       0.345333   gamma___=       0.005668 meV   omega=      2.4032 meV
     lambda_tr(   1 )=     -17.951633   gamma_tr=      -0.294630 meV   omega=      2.4032 meV
     lambda___(   2 )=       0.345333   gamma___=       0.005668 meV   omega=      2.4032 meV
     lambda_tr(   2 )=     -17.951633   gamma_tr=      -0.294630 meV   omega=      2.4032 meV
     lambda___(   3 )=       0.583843   gamma___=       0.018339 meV   omega=      3.3246 meV
     lambda_tr(   3 )=     -23.065222   gamma_tr=      -0.724493 meV   omega=      3.3246 meV
     lambda___( tot )=       1.274509
     lambda_tr( tot )=     -58.968488
     -------------------------------------------------------------------


     Number of (k,k+q) pairs on the Fermi surface:      216 out of      216


     ismear =     1 iq =       6 coord.:   0.00000  0.00000  0.83333 wt:   0.00463 Temp:  500.000K
     -------------------------------------------------------------------
     lambda___(   1 )=       0.068879   gamma___=       0.000284 meV   omega=      1.2052 meV
     lambda_tr(   1 )=       0.067824   gamma_tr=       0.000280 meV   omega=      1.2052 meV
     lambda___(   2 )=       0.068879   gamma___=       0.000284 meV   omega=      1.2052 meV
     lambda_tr(   2 )=       0.067824   gamma_tr=       0.000280 meV   omega=      1.2052 meV
     lambda___(   3 )=       0.000000   gamma___=       0.000000 meV   omega=      0.4924 meV
     lambda_tr(   3 )=       0.000000   gamma_tr=       0.000000 meV   omega=      0.4924 meV
     lambda___( tot )=       0.137757
     lambda_tr( tot )=       0.135647
     -------------------------------------------------------------------


     Number of (k,k+q) pairs on the Fermi surface:      216 out of      216


     ismear =     1 iq =       7 coord.:   0.00000  0.16667  0.00000 wt:   0.00463 Temp:  500.000K
     -------------------------------------------------------------------
     lambda___(   1 )=       0.068878   gamma___=       0.000284 meV   omega=      1.2052 meV
     lambda_tr(   1 )=       0.067154   gamma_tr=       0.000277 meV   omega=      1.2052 meV
     lambda___(   2 )=       0.068878   gamma___=       0.000284 meV   omega=      1.2052 meV
     lambda_tr(   2 )=       0.067154   gamma_tr=       0.000277 meV   omega=      1.2052 meV
     lambda___(   3 )=       0.000000   gamma___=       0.000000 meV   omega=      0.4924 meV
     lambda_tr(   3 )=       0.000000   gamma_tr=       0.000000 meV   omega=      0.4924 meV
     lambda___( tot )=       0.137756
     lambda_tr( tot )=       0.134309
     -------------------------------------------------------------------


     Number of (k,k+q) pairs on the Fermi surface:      216 out of      216


     ismear =     1 iq =       8 coord.:   0.00000  0.16667  0.16667 wt:   0.00463 Temp:  500.000K
     -------------------------------------------------------------------
     lambda___(   1 )=       0.000000   gamma___=       0.000000 meV   omega=     -3.2687 meV
     lambda_tr(   1 )=       0.000000   gamma_tr=       0.000000 meV   omega=     -3.2687 meV
     lambda___(   2 )=       0.000000   gamma___=       0.000000 meV   omega=     -3.2687 meV
     lambda_tr(   2 )=       0.000000   gamma_tr=       0.000000 meV   omega=     -3.2687 meV
     lambda___(   3 )=       0.266141   gamma___=       0.011944 meV   omega=      3.9739 meV
     lambda_tr(   3 )=       0.083652   gamma_tr=       0.003754 meV   omega=      3.9739 meV
     lambda___( tot )=       0.266141
     lambda_tr( tot )=       0.083652
     -------------------------------------------------------------------


     Number of (k,k+q) pairs on the Fermi surface:      216 out of      216


     ismear =     1 iq =       9 coord.:   0.00000  0.16667  0.33333 wt:   0.00463 Temp:  500.000K
     -------------------------------------------------------------------
     lambda___(   1 )=       0.000000   gamma___=       0.000000 meV   omega=     -3.0769 meV
     lambda_tr(   1 )=       0.000000   gamma_tr=       0.000000 meV   omega=     -3.0769 meV
     lambda___(   2 )=       0.000000   gamma___=       0.000000 meV   omega=     -2.8895 meV
     lambda_tr(   2 )=       0.000000   gamma_tr=       0.000000 meV   omega=     -2.8895 meV
     lambda___(   3 )=       0.010344   gamma___=       0.000860 meV   omega=      5.4074 meV
     lambda_tr(   3 )=      -0.074174   gamma_tr=      -0.006164 meV   omega=      5.4074 meV
     lambda___( tot )=       0.010344
     lambda_tr( tot )=      -0.074174
     -------------------------------------------------------------------


     Number of (k,k+q) pairs on the Fermi surface:      216 out of      216


     ismear =     1 iq =      10 coord.:   0.00000  0.16667  0.50000 wt:   0.00463 Temp:  500.000K
     -------------------------------------------------------------------
     lambda___(   1 )=       0.524283   gamma___=       0.011400 meV   omega=      2.7660 meV
     lambda_tr(   1 )=       0.405998   gamma_tr=       0.008828 meV   omega=      2.7660 meV
     lambda___(   2 )=      -0.189512   gamma___=      -0.005988 meV   omega=      3.3343 meV
     lambda_tr(   2 )=      -0.701149   gamma_tr=      -0.022153 meV   omega=      3.3343 meV
     lambda___(   3 )=       0.381216   gamma___=       0.035711 meV   omega=      5.7413 meV
     lambda_tr(   3 )=      -0.711860   gamma_tr=      -0.066685 meV   omega=      5.7413 meV
     lambda___( tot )=       0.715987
     lambda_tr( tot )=      -1.007011
     -------------------------------------------------------------------


     Number of (k,k+q) pairs on the Fermi surface:      216 out of      216


     ismear =     1 iq =      11 coord.:   0.00000  0.16667  0.66667 wt:   0.00463 Temp:  500.000K
     -------------------------------------------------------------------
     lambda___(   1 )=       0.064103   gamma___=       0.002209 meV   omega=      3.4821 meV
     lambda_tr(   1 )=      -0.121547   gamma_tr=      -0.004188 meV   omega=      3.4821 meV
     lambda___(   2 )=       0.066547   gamma___=       0.002538 meV   omega=      3.6633 meV
     lambda_tr(   2 )=       0.303515   gamma_tr=       0.011575 meV   omega=      3.6633 meV
     lambda___(   3 )=       0.039287   gamma___=       0.002111 meV   omega=      4.3479 meV
     lambda_tr(   3 )=      -0.100322   gamma_tr=      -0.005390 meV   omega=      4.3479 meV
     lambda___( tot )=       0.169936
     lambda_tr( tot )=       0.081646
     -------------------------------------------------------------------


     Number of (k,k+q) pairs on the Fermi surface:      216 out of      216


     ismear =     1 iq =      12 coord.:   0.00000  0.16667  0.83333 wt:   0.00463 Temp:  500.000K
     -------------------------------------------------------------------
     lambda___(   1 )=       0.000000   gamma___=       0.000000 meV   omega=     -2.7557 meV
     lambda_tr(   1 )=       0.000000   gamma_tr=       0.000000 meV   omega=     -2.7557 meV
     lambda___(   2 )=      -2.124015   gamma___=      -0.033401 meV   omega=      2.3523 meV
     lambda_tr(   2 )=      -3.826651   gamma_tr=      -0.060177 meV   omega=      2.3523 meV
     lambda___(   3 )=      -0.037154   gamma___=      -0.000963 meV   omega=      3.0193 meV
     lambda_tr(   3 )=      -0.336429   gamma_tr=      -0.008716 meV   omega=      3.0193 meV
     lambda___( tot )=      -2.161169
     lambda_tr( tot )=      -4.163080
     -------------------------------------------------------------------


     Number of (k,k+q) pairs on the Fermi surface:      216 out of      216


     ismear =     1 iq =      13 coord.:   0.00000  0.33333  0.00000 wt:   0.00463 Temp:  500.000K
     -------------------------------------------------------------------
     lambda___(   1 )=       0.345300   gamma___=       0.005667 meV   omega=      2.4032 meV
     lambda_tr(   1 )=     -17.951423   gamma_tr=      -0.294627 meV   omega=      2.4032 meV
     lambda___(   2 )=       0.345300   gamma___=       0.005667 meV   omega=      2.4032 meV
     lambda_tr(   2 )=     -17.951423   gamma_tr=      -0.294627 meV   omega=      2.4032 meV
     lambda___(   3 )=       0.583580   gamma___=       0.018331 meV   omega=      3.3246 meV
     lambda_tr(   3 )=     -23.065102   gamma_tr=      -0.724489 meV   omega=      3.3246 meV
     lambda___( tot )=       1.274179
     lambda_tr( tot )=     -58.967949
     -------------------------------------------------------------------


     Number of (k,k+q) pairs on the Fermi surface:      216 out of      216


     ismear =     1 iq =      14 coord.:   0.00000  0.33333  0.16667 wt:   0.00463 Temp:  500.000K
     -------------------------------------------------------------------
     lambda___(   1 )=       0.000000   gamma___=       0.000000 meV   omega=     -3.0769 meV
     lambda_tr(   1 )=       0.000000   gamma_tr=       0.000000 meV   omega=     -3.0769 meV
     lambda___(   2 )=       0.000000   gamma___=       0.000000 meV   omega=     -2.8895 meV
     lambda_tr(   2 )=       0.000000   gamma_tr=       0.000000 meV   omega=     -2.8895 meV
     lambda___(   3 )=       0.010344   gamma___=       0.000860 meV   omega=      5.4074 meV
     lambda_tr(   3 )=      -0.075769   gamma_tr=      -0.006296 meV   omega=      5.4074 meV
     lambda___( tot )=       0.010344
     lambda_tr( tot )=      -0.075769
     -------------------------------------------------------------------


     Number of (k,k+q) pairs on the Fermi surface:      216 out of      216


     ismear =     1 iq =      15 coord.:   0.00000  0.33333  0.33333 wt:   0.00463 Temp:  500.000K
     -------------------------------------------------------------------
     lambda___(   1 )=       0.000000   gamma___=       0.000000 meV   omega=     -4.5024 meV
     lambda_tr(   1 )=       0.000000   gamma_tr=       0.000000 meV   omega=     -4.5024 meV
     lambda___(   2 )=       0.000000   gamma___=       0.000000 meV   omega=     -4.5024 meV
     lambda_tr(   2 )=       0.000000   gamma_tr=       0.000000 meV   omega=     -4.5024 meV
     lambda___(   3 )=       0.025756   gamma___=       0.003838 meV   omega=      7.2413 meV
     lambda_tr(   3 )=       0.021706   gamma_tr=       0.003235 meV   omega=      7.2413 meV
     lambda___( tot )=       0.025756
     lambda_tr( tot )=       0.021706
     -------------------------------------------------------------------


     Number of (k,k+q) pairs on the Fermi surface:      216 out of      216


     ismear =     1 iq =      16 coord.:   0.00000  0.33333  0.50000 wt:   0.00463 Temp:  500.000K
     -------------------------------------------------------------------
     lambda___(   1 )=       0.000000   gamma___=       0.000000 meV   omega=     -3.0271 meV
     lambda_tr(   1 )=       0.000000   gamma_tr=       0.000000 meV   omega=     -3.0271 meV
     lambda___(   2 )=       0.000000   gamma___=       0.000000 meV   omega=     -2.7907 meV
     lambda_tr(   2 )=       0.000000   gamma_tr=       0.000000 meV   omega=     -2.7907 meV
     lambda___(   3 )=       0.013551   gamma___=       0.002345 meV   omega=      7.8031 meV
     lambda_tr(   3 )=       0.001357   gamma_tr=       0.000235 meV   omega=      7.8031 meV
     lambda___( tot )=       0.013551
     lambda_tr( tot )=       0.001357
     -------------------------------------------------------------------


     Number of (k,k+q) pairs on the Fermi surface:      216 out of      216


     ismear =     1 iq =      17 coord.:   0.00000  0.33333  0.66667 wt:   0.00463 Temp:  500.000K
     -------------------------------------------------------------------
     lambda___(   1 )=       0.268276   gamma___=       0.007079 meV   omega=      3.0471 meV
     lambda_tr(   1 )=      11.187661   gamma_tr=       0.295209 meV   omega=      3.0471 meV
     lambda___(   2 )=       0.438433   gamma___=       0.016674 meV   omega=      3.6582 meV
     lambda_tr(   2 )=       1.803412   gamma_tr=       0.068585 meV   omega=      3.6582 meV
     lambda___(   3 )=       0.151774   gamma___=       0.018394 meV   omega=      6.5304 meV
     lambda_tr(   3 )=       2.309511   gamma_tr=       0.279901 meV   omega=      6.5304 meV
     lambda___( tot )=       0.858483
     lambda_tr( tot )=      15.300583
     -------------------------------------------------------------------


     Number of (k,k+q) pairs on the Fermi surface:      216 out of      216


     ismear =     1 iq =      18 coord.:   0.00000  0.33333  0.83333 wt:   0.00463 Temp:  500.000K
     -------------------------------------------------------------------
     lambda___(   1 )=       0.064104   gamma___=       0.002209 meV   omega=      3.4821 meV
     lambda_tr(   1 )=      -0.121547   gamma_tr=      -0.004188 meV   omega=      3.4821 meV
     lambda___(   2 )=       0.066546   gamma___=       0.002538 meV   omega=      3.6633 meV
     lambda_tr(   2 )=       0.303514   gamma_tr=       0.011575 meV   omega=      3.6633 meV
     lambda___(   3 )=       0.039287   gamma___=       0.002111 meV   omega=      4.3479 meV
     lambda_tr(   3 )=      -0.100322   gamma_tr=      -0.005390 meV   omega=      4.3479 meV
     lambda___( tot )=       0.169936
     lambda_tr( tot )=       0.081645
     -------------------------------------------------------------------


     Number of (k,k+q) pairs on the Fermi surface:      216 out of      216


     ismear =     1 iq =      19 coord.:   0.00000  0.50000  0.00000 wt:   0.00463 Temp:  500.000K
     -------------------------------------------------------------------
     lambda___(   1 )=       0.000000   gamma___=       0.000000 meV   omega=      3.8020 meV
     lambda_tr(   1 )=       0.000000   gamma_tr=       0.000000 meV   omega=      3.8020 meV
     lambda___(   2 )=       0.000000   gamma___=       0.000000 meV   omega=      3.8020 meV
     lambda_tr(   2 )=       0.000000   gamma_tr=       0.000000 meV   omega=      3.8020 meV
     lambda___(   3 )=       0.000000   gamma___=       0.000000 meV   omega=      4.6498 meV
     lambda_tr(   3 )=       0.000000   gamma_tr=       0.000000 meV   omega=      4.6498 meV
     lambda___( tot )=       0.000000
     lambda_tr( tot )=       0.000000
     -------------------------------------------------------------------


     Number of (k,k+q) pairs on the Fermi surface:      216 out of      216


     ismear =     1 iq =      20 coord.:   0.00000  0.50000  0.16667 wt:   0.00463 Temp:  500.000K
     -------------------------------------------------------------------
     lambda___(   1 )=       0.524260   gamma___=       0.011399 meV   omega=      2.7660 meV
     lambda_tr(   1 )=       0.405984   gamma_tr=       0.008827 meV   omega=      2.7660 meV
     lambda___(   2 )=      -0.189513   gamma___=      -0.005988 meV   omega=      3.3343 meV
     lambda_tr(   2 )=      -0.701151   gamma_tr=      -0.022153 meV   omega=      3.3343 meV
     lambda___(   3 )=       0.381217   gamma___=       0.035711 meV   omega=      5.7413 meV
     lambda_tr(   3 )=      -0.711860   gamma_tr=      -0.066685 meV   omega=      5.7413 meV
     lambda___( tot )=       0.715963
     lambda_tr( tot )=      -1.007027
     -------------------------------------------------------------------


     Number of (k,k+q) pairs on the Fermi surface:      216 out of      216


     ismear =     1 iq =      21 coord.:   0.00000  0.50000  0.33333 wt:   0.00463 Temp:  500.000K
     -------------------------------------------------------------------
     lambda___(   1 )=       0.000000   gamma___=       0.000000 meV   omega=     -3.0271 meV
     lambda_tr(   1 )=       0.000000   gamma_tr=       0.000000 meV   omega=     -3.0271 meV
     lambda___(   2 )=       0.000000   gamma___=       0.000000 meV   omega=     -2.7907 meV
     lambda_tr(   2 )=       0.000000   gamma_tr=       0.000000 meV   omega=     -2.7907 meV
     lambda___(   3 )=       0.013551   gamma___=       0.002345 meV   omega=      7.8031 meV
     lambda_tr(   3 )=       0.001349   gamma_tr=       0.000233 meV   omega=      7.8031 meV
     lambda___( tot )=       0.013551
     lambda_tr( tot )=       0.001349
     -------------------------------------------------------------------


     Number of (k,k+q) pairs on the Fermi surface:      216 out of      216


     ismear =     1 iq =      22 coord.:   0.00000  0.50000  0.50000 wt:   0.00463 Temp:  500.000K
     -------------------------------------------------------------------
     lambda___(   1 )=       0.000000   gamma___=       0.000000 meV   omega=     -4.3788 meV
     lambda_tr(   1 )=       0.000000   gamma_tr=       0.000000 meV   omega=     -4.3788 meV
     lambda___(   2 )=       0.000000   gamma___=       0.000000 meV   omega=     -4.3788 meV
     lambda_tr(   2 )=       0.000000   gamma_tr=       0.000000 meV   omega=     -4.3788 meV
     lambda___(   3 )=       0.580689   gamma___=       0.120944 meV   omega=      8.5608 meV
     lambda_tr(   3 )=       3.564591   gamma_tr=       0.742422 meV   omega=      8.5608 meV
     lambda___( tot )=       0.580689
     lambda_tr( tot )=       3.564591
     -------------------------------------------------------------------


     Number of (k,k+q) pairs on the Fermi surface:      216 out of      216


     ismear =     1 iq =      23 coord.:   0.00000  0.50000  0.66667 wt:   0.00463 Temp:  500.000K
     -------------------------------------------------------------------
     lambda___(   1 )=       0.000000   gamma___=       0.000000 meV   omega=     -3.0271 meV
     lambda_tr(   1 )=       0.000000   gamma_tr=       0.000000 meV   omega=     -3.0271 meV
     lambda___(   2 )=       0.000000   gamma___=       0.000000 meV   omega=     -2.7907 meV
     lambda_tr(   2 )=       0.000000   gamma_tr=       0.000000 meV   omega=     -2.7907 meV
     lambda___(   3 )=       0.013551   gamma___=       0.002345 meV   omega=      7.8031 meV
     lambda_tr(   3 )=       0.001349   gamma_tr=       0.000233 meV   omega=      7.8031 meV
     lambda___( tot )=       0.013551
     lambda_tr( tot )=       0.001349
     -------------------------------------------------------------------


     Number of (k,k+q) pairs on the Fermi surface:      216 out of      216


     ismear =     1 iq =      24 coord.:   0.00000  0.50000  0.83333 wt:   0.00463 Temp:  500.000K
     -------------------------------------------------------------------
     lambda___(   1 )=       0.524735   gamma___=       0.011409 meV   omega=      2.7660 meV
     lambda_tr(   1 )=       0.406542   gamma_tr=       0.008840 meV   omega=      2.7660 meV
     lambda___(   2 )=      -0.189667   gamma___=      -0.005993 meV   omega=      3.3343 meV
     lambda_tr(   2 )=      -0.701453   gamma_tr=      -0.022163 meV   omega=      3.3343 meV
     lambda___(   3 )=       0.381204   gamma___=       0.035710 meV   omega=      5.7413 meV
     lambda_tr(   3 )=      -0.711867   gamma_tr=      -0.066686 meV   omega=      5.7413 meV
     lambda___( tot )=       0.716272
     lambda_tr( tot )=      -1.006778
     -------------------------------------------------------------------


     Number of (k,k+q) pairs on the Fermi surface:      216 out of      216


     ismear =     1 iq =      25 coord.:   0.00000  0.66667  0.00000 wt:   0.00463 Temp:  500.000K
     -------------------------------------------------------------------
     lambda___(   1 )=       0.345332   gamma___=       0.005668 meV   omega=      2.4032 meV
     lambda_tr(   1 )=     -17.951635   gamma_tr=      -0.294630 meV   omega=      2.4032 meV
     lambda___(   2 )=       0.345332   gamma___=       0.005668 meV   omega=      2.4032 meV
     lambda_tr(   2 )=     -17.951635   gamma_tr=      -0.294630 meV   omega=      2.4032 meV
     lambda___(   3 )=       0.583845   gamma___=       0.018339 meV   omega=      3.3246 meV
     lambda_tr(   3 )=     -23.065224   gamma_tr=      -0.724493 meV   omega=      3.3246 meV
     lambda___( tot )=       1.274509
     lambda_tr( tot )=     -58.968494
     -------------------------------------------------------------------


     Number of (k,k+q) pairs on the Fermi surface:      216 out of      216


     ismear =     1 iq =      26 coord.:   0.00000  0.66667  0.16667 wt:   0.00463 Temp:  500.000K
     -------------------------------------------------------------------
     lambda___(   1 )=       0.064103   gamma___=       0.002209 meV   omega=      3.4821 meV
     lambda_tr(   1 )=      -0.121547   gamma_tr=      -0.004188 meV   omega=      3.4821 meV
     lambda___(   2 )=       0.066547   gamma___=       0.002538 meV   omega=      3.6633 meV
     lambda_tr(   2 )=       0.303515   gamma_tr=       0.011575 meV   omega=      3.6633 meV
     lambda___(   3 )=       0.039287   gamma___=       0.002111 meV   omega=      4.3479 meV
     lambda_tr(   3 )=      -0.100322   gamma_tr=      -0.005390 meV   omega=      4.3479 meV
     lambda___( tot )=       0.169936
     lambda_tr( tot )=       0.081646
     -------------------------------------------------------------------


     Number of (k,k+q) pairs on the Fermi surface:      216 out of      216


     ismear =     1 iq =      27 coord.:   0.00000  0.66667  0.33333 wt:   0.00463 Temp:  500.000K
     -------------------------------------------------------------------
     lambda___(   1 )=       0.268278   gamma___=       0.007079 meV   omega=      3.0471 meV
     lambda_tr(   1 )=      11.187663   gamma_tr=       0.295210 meV   omega=      3.0471 meV
     lambda___(   2 )=       0.438434   gamma___=       0.016674 meV   omega=      3.6582 meV
     lambda_tr(   2 )=       1.803409   gamma_tr=       0.068585 meV   omega=      3.6582 meV
     lambda___(   3 )=       0.151774   gamma___=       0.018394 meV   omega=      6.5304 meV
     lambda_tr(   3 )=       2.309511   gamma_tr=       0.279901 meV   omega=      6.5304 meV
     lambda___( tot )=       0.858485
     lambda_tr( tot )=      15.300583
     -------------------------------------------------------------------


     Number of (k,k+q) pairs on the Fermi surface:      216 out of      216


     ismear =     1 iq =      28 coord.:   0.00000  0.66667  0.50000 wt:   0.00463 Temp:  500.000K
     -------------------------------------------------------------------
     lambda___(   1 )=       0.000000   gamma___=       0.000000 meV   omega=     -3.0271 meV
     lambda_tr(   1 )=       0.000000   gamma_tr=       0.000000 meV   omega=     -3.0271 meV
     lambda___(   2 )=       0.000000   gamma___=       0.000000 meV   omega=     -2.7907 meV
     lambda_tr(   2 )=       0.000000   gamma_tr=       0.000000 meV   omega=     -2.7907 meV
     lambda___(   3 )=       0.013551   gamma___=       0.002345 meV   omega=      7.8031 meV
     lambda_tr(   3 )=       0.001357   gamma_tr=       0.000235 meV   omega=      7.8031 meV
     lambda___( tot )=       0.013551
     lambda_tr( tot )=       0.001357
     -------------------------------------------------------------------


     Number of (k,k+q) pairs on the Fermi surface:      216 out of      216


     ismear =     1 iq =      29 coord.:   0.00000  0.66667  0.66667 wt:   0.00463 Temp:  500.000K
     -------------------------------------------------------------------
     lambda___(   1 )=       0.000000   gamma___=       0.000000 meV   omega=     -4.5024 meV
     lambda_tr(   1 )=       0.000000   gamma_tr=       0.000000 meV   omega=     -4.5024 meV
     lambda___(   2 )=       0.000000   gamma___=       0.000000 meV   omega=     -4.5024 meV
     lambda_tr(   2 )=       0.000000   gamma_tr=       0.000000 meV   omega=     -4.5024 meV
     lambda___(   3 )=       0.025756   gamma___=       0.003838 meV   omega=      7.2413 meV
     lambda_tr(   3 )=       0.021706   gamma_tr=       0.003235 meV   omega=      7.2413 meV
     lambda___( tot )=       0.025756
     lambda_tr( tot )=       0.021706
     -------------------------------------------------------------------


     Number of (k,k+q) pairs on the Fermi surface:      216 out of      216


     ismear =     1 iq =      30 coord.:   0.00000  0.66667  0.83333 wt:   0.00463 Temp:  500.000K
     -------------------------------------------------------------------
     lambda___(   1 )=       0.000000   gamma___=       0.000000 meV   omega=     -3.0769 meV
     lambda_tr(   1 )=       0.000000   gamma_tr=       0.000000 meV   omega=     -3.0769 meV
     lambda___(   2 )=       0.000000   gamma___=       0.000000 meV   omega=     -2.8895 meV
     lambda_tr(   2 )=       0.000000   gamma_tr=       0.000000 meV   omega=     -2.8895 meV
     lambda___(   3 )=       0.010344   gamma___=       0.000860 meV   omega=      5.4074 meV
     lambda_tr(   3 )=      -0.075769   gamma_tr=      -0.006296 meV   omega=      5.4074 meV
     lambda___( tot )=       0.010344
     lambda_tr( tot )=      -0.075769
     -------------------------------------------------------------------


     Number of (k,k+q) pairs on the Fermi surface:      216 out of      216


     ismear =     1 iq =      31 coord.:   0.00000  0.83333  0.00000 wt:   0.00463 Temp:  500.000K
     -------------------------------------------------------------------
     lambda___(   1 )=       0.068879   gamma___=       0.000284 meV   omega=      1.2052 meV
     lambda_tr(   1 )=       0.067155   gamma_tr=       0.000277 meV   omega=      1.2052 meV
     lambda___(   2 )=       0.068879   gamma___=       0.000284 meV   omega=      1.2052 meV
     lambda_tr(   2 )=       0.067155   gamma_tr=       0.000277 meV   omega=      1.2052 meV
     lambda___(   3 )=       0.000000   gamma___=       0.000000 meV   omega=      0.4924 meV
     lambda_tr(   3 )=       0.000000   gamma_tr=       0.000000 meV   omega=      0.4924 meV
     lambda___( tot )=       0.137757
     lambda_tr( tot )=       0.134310
     -------------------------------------------------------------------


     Number of (k,k+q) pairs on the Fermi surface:      216 out of      216


     ismear =     1 iq =      32 coord.:   0.00000  0.83333  0.16667 wt:   0.00463 Temp:  500.000K
     -------------------------------------------------------------------
     lambda___(   1 )=       0.000000   gamma___=       0.000000 meV   omega=     -2.7557 meV
     lambda_tr(   1 )=       0.000000   gamma_tr=       0.000000 meV   omega=     -2.7557 meV
     lambda___(   2 )=      -2.124022   gamma___=      -0.033402 meV   omega=      2.3523 meV
     lambda_tr(   2 )=      -3.826657   gamma_tr=      -0.060177 meV   omega=      2.3523 meV
     lambda___(   3 )=      -0.037152   gamma___=      -0.000963 meV   omega=      3.0193 meV
     lambda_tr(   3 )=      -0.336426   gamma_tr=      -0.008716 meV   omega=      3.0193 meV
     lambda___( tot )=      -2.161175
     lambda_tr( tot )=      -4.163084
     -------------------------------------------------------------------


     Number of (k,k+q) pairs on the Fermi surface:      216 out of      216


     ismear =     1 iq =      33 coord.:   0.00000  0.83333  0.33333 wt:   0.00463 Temp:  500.000K
     -------------------------------------------------------------------
     lambda___(   1 )=       0.064103   gamma___=       0.002209 meV   omega=      3.4821 meV
     lambda_tr(   1 )=      -0.121547   gamma_tr=      -0.004188 meV   omega=      3.4821 meV
     lambda___(   2 )=       0.066546   gamma___=       0.002538 meV   omega=      3.6633 meV
     lambda_tr(   2 )=       0.303514   gamma_tr=       0.011575 meV   omega=      3.6633 meV
     lambda___(   3 )=       0.039287   gamma___=       0.002111 meV   omega=      4.3479 meV
     lambda_tr(   3 )=      -0.100322   gamma_tr=      -0.005390 meV   omega=      4.3479 meV
     lambda___( tot )=       0.169936
     lambda_tr( tot )=       0.081645
     -------------------------------------------------------------------


     Number of (k,k+q) pairs on the Fermi surface:      216 out of      216


     ismear =     1 iq =      34 coord.:   0.00000  0.83333  0.50000 wt:   0.00463 Temp:  500.000K
     -------------------------------------------------------------------
     lambda___(   1 )=       0.524764   gamma___=       0.011410 meV   omega=      2.7660 meV
     lambda_tr(   1 )=       0.406565   gamma_tr=       0.008840 meV   omega=      2.7660 meV
     lambda___(   2 )=      -0.189667   gamma___=      -0.005993 meV   omega=      3.3343 meV
     lambda_tr(   2 )=      -0.701453   gamma_tr=      -0.022163 meV   omega=      3.3343 meV
     lambda___(   3 )=       0.381203   gamma___=       0.035710 meV   omega=      5.7413 meV
     lambda_tr(   3 )=      -0.711868   gamma_tr=      -0.066686 meV   omega=      5.7413 meV
     lambda___( tot )=       0.716300
     lambda_tr( tot )=      -1.006756
     -------------------------------------------------------------------


     Number of (k,k+q) pairs on the Fermi surface:      216 out of      216


     ismear =     1 iq =      35 coord.:   0.00000  0.83333  0.66667 wt:   0.00463 Temp:  500.000K
     -------------------------------------------------------------------
     lambda___(   1 )=       0.000000   gamma___=       0.000000 meV   omega=     -3.0769 meV
     lambda_tr(   1 )=       0.000000   gamma_tr=       0.000000 meV   omega=     -3.0769 meV
     lambda___(   2 )=       0.000000   gamma___=       0.000000 meV   omega=     -2.8895 meV
     lambda_tr(   2 )=       0.000000   gamma_tr=       0.000000 meV   omega=     -2.8895 meV
     lambda___(   3 )=       0.010344   gamma___=       0.000860 meV   omega=      5.4074 meV
     lambda_tr(   3 )=      -0.074174   gamma_tr=      -0.006164 meV   omega=      5.4074 meV
     lambda___( tot )=       0.010344
     lambda_tr( tot )=      -0.074174
     -------------------------------------------------------------------


     Number of (k,k+q) pairs on the Fermi surface:      216 out of      216


     ismear =     1 iq =      36 coord.:   0.00000  0.83333  0.83333 wt:   0.00463 Temp:  500.000K
     -------------------------------------------------------------------
     lambda___(   1 )=       0.000000   gamma___=       0.000000 meV   omega=     -3.2687 meV
     lambda_tr(   1 )=       0.000000   gamma_tr=       0.000000 meV   omega=     -3.2687 meV
     lambda___(   2 )=       0.000000   gamma___=       0.000000 meV   omega=     -3.2687 meV
     lambda_tr(   2 )=       0.000000   gamma_tr=       0.000000 meV   omega=     -3.2687 meV
     lambda___(   3 )=       0.266141   gamma___=       0.011944 meV   omega=      3.9739 meV
     lambda_tr(   3 )=       0.083652   gamma_tr=       0.003754 meV   omega=      3.9739 meV
     lambda___( tot )=       0.266141
     lambda_tr( tot )=       0.083652
     -------------------------------------------------------------------


     Number of (k,k+q) pairs on the Fermi surface:      216 out of      216


     ismear =     1 iq =      37 coord.:   0.16667  0.00000  0.00000 wt:   0.00463 Temp:  500.000K
     -------------------------------------------------------------------
     lambda___(   1 )=       0.068878   gamma___=       0.000284 meV   omega=      1.2052 meV
     lambda_tr(   1 )=       0.069724   gamma_tr=       0.000288 meV   omega=      1.2052 meV
     lambda___(   2 )=       0.068878   gamma___=       0.000284 meV   omega=      1.2052 meV
     lambda_tr(   2 )=       0.069724   gamma_tr=       0.000288 meV   omega=      1.2052 meV
     lambda___(   3 )=       0.000000   gamma___=       0.000000 meV   omega=      0.4924 meV
     lambda_tr(   3 )=       0.000000   gamma_tr=       0.000000 meV   omega=      0.4924 meV
     lambda___( tot )=       0.137756
     lambda_tr( tot )=       0.139447
     -------------------------------------------------------------------


     Number of (k,k+q) pairs on the Fermi surface:      216 out of      216


     ismear =     1 iq =      38 coord.:   0.16667  0.00000  0.16667 wt:   0.00463 Temp:  500.000K
     -------------------------------------------------------------------
     lambda___(   1 )=       0.000000   gamma___=       0.000000 meV   omega=     -3.2687 meV
     lambda_tr(   1 )=       0.000000   gamma_tr=       0.000000 meV   omega=     -3.2687 meV
     lambda___(   2 )=       0.000000   gamma___=       0.000000 meV   omega=     -3.2687 meV
     lambda_tr(   2 )=       0.000000   gamma_tr=       0.000000 meV   omega=     -3.2687 meV
     lambda___(   3 )=       0.266142   gamma___=       0.011944 meV   omega=      3.9739 meV
     lambda_tr(   3 )=       0.083652   gamma_tr=       0.003754 meV   omega=      3.9739 meV
     lambda___( tot )=       0.266142
     lambda_tr( tot )=       0.083652
     -------------------------------------------------------------------


     Number of (k,k+q) pairs on the Fermi surface:      216 out of      216


     ismear =     1 iq =      39 coord.:   0.16667  0.00000  0.33333 wt:   0.00463 Temp:  500.000K
     -------------------------------------------------------------------
     lambda___(   1 )=       0.000000   gamma___=       0.000000 meV   omega=     -3.0769 meV
     lambda_tr(   1 )=       0.000000   gamma_tr=       0.000000 meV   omega=     -3.0769 meV
     lambda___(   2 )=       0.000000   gamma___=       0.000000 meV   omega=     -2.8895 meV
     lambda_tr(   2 )=       0.000000   gamma_tr=       0.000000 meV   omega=     -2.8895 meV
     lambda___(   3 )=       0.010344   gamma___=       0.000860 meV   omega=      5.4074 meV
     lambda_tr(   3 )=      -0.037466   gamma_tr=      -0.003113 meV   omega=      5.4074 meV
     lambda___( tot )=       0.010344
     lambda_tr( tot )=      -0.037466
     -------------------------------------------------------------------


     Number of (k,k+q) pairs on the Fermi surface:      216 out of      216


     ismear =     1 iq =      40 coord.:   0.16667  0.00000  0.50000 wt:   0.00463 Temp:  500.000K
     -------------------------------------------------------------------
     lambda___(   1 )=       0.524289   gamma___=       0.011400 meV   omega=      2.7660 meV
     lambda_tr(   1 )=       0.406004   gamma_tr=       0.008828 meV   omega=      2.7660 meV
     lambda___(   2 )=      -0.189512   gamma___=      -0.005988 meV   omega=      3.3343 meV
     lambda_tr(   2 )=      -0.701149   gamma_tr=      -0.022153 meV   omega=      3.3343 meV
     lambda___(   3 )=       0.381216   gamma___=       0.035711 meV   omega=      5.7413 meV
     lambda_tr(   3 )=      -0.711860   gamma_tr=      -0.066685 meV   omega=      5.7413 meV
     lambda___( tot )=       0.715993
     lambda_tr( tot )=      -1.007006
     -------------------------------------------------------------------


     Number of (k,k+q) pairs on the Fermi surface:      216 out of      216


     ismear =     1 iq =      41 coord.:   0.16667  0.00000  0.66667 wt:   0.00463 Temp:  500.000K
     -------------------------------------------------------------------
     lambda___(   1 )=       0.064103   gamma___=       0.002209 meV   omega=      3.4821 meV
     lambda_tr(   1 )=      -0.121547   gamma_tr=      -0.004188 meV   omega=      3.4821 meV
     lambda___(   2 )=       0.066547   gamma___=       0.002538 meV   omega=      3.6633 meV
     lambda_tr(   2 )=       0.303515   gamma_tr=       0.011575 meV   omega=      3.6633 meV
     lambda___(   3 )=       0.039287   gamma___=       0.002111 meV   omega=      4.3479 meV
     lambda_tr(   3 )=      -0.100322   gamma_tr=      -0.005390 meV   omega=      4.3479 meV
     lambda___( tot )=       0.169936
     lambda_tr( tot )=       0.081646
     -------------------------------------------------------------------


     Number of (k,k+q) pairs on the Fermi surface:      216 out of      216


     ismear =     1 iq =      42 coord.:   0.16667  0.00000  0.83333 wt:   0.00463 Temp:  500.000K
     -------------------------------------------------------------------
     lambda___(   1 )=       0.000000   gamma___=       0.000000 meV   omega=     -2.7557 meV
     lambda_tr(   1 )=       0.000000   gamma_tr=       0.000000 meV   omega=     -2.7557 meV
     lambda___(   2 )=      -2.124018   gamma___=      -0.033402 meV   omega=      2.3523 meV
     lambda_tr(   2 )=      -3.826658   gamma_tr=      -0.060177 meV   omega=      2.3523 meV
     lambda___(   3 )=      -0.037150   gamma___=      -0.000962 meV   omega=      3.0193 meV
     lambda_tr(   3 )=      -0.336425   gamma_tr=      -0.008716 meV   omega=      3.0193 meV
     lambda___( tot )=      -2.161169
     lambda_tr( tot )=      -4.163084
     -------------------------------------------------------------------


     Number of (k,k+q) pairs on the Fermi surface:      216 out of      216


     ismear =     1 iq =      43 coord.:   0.16667  0.16667  0.00000 wt:   0.00463 Temp:  500.000K
     -------------------------------------------------------------------
     lambda___(   1 )=       0.000000   gamma___=       0.000000 meV   omega=     -3.2687 meV
     lambda_tr(   1 )=       0.000000   gamma_tr=       0.000000 meV   omega=     -3.2687 meV
     lambda___(   2 )=       0.000000   gamma___=       0.000000 meV   omega=     -3.2687 meV
     lambda_tr(   2 )=       0.000000   gamma_tr=       0.000000 meV   omega=     -3.2687 meV
     lambda___(   3 )=       0.271286   gamma___=       0.012175 meV   omega=      3.9739 meV
     lambda_tr(   3 )=       0.083364   gamma_tr=       0.003741 meV   omega=      3.9739 meV
     lambda___( tot )=       0.271286
     lambda_tr( tot )=       0.083364
     -------------------------------------------------------------------


     Number of (k,k+q) pairs on the Fermi surface:      216 out of      216


     ismear =     1 iq =      44 coord.:   0.16667  0.16667  0.16667 wt:   0.00463 Temp:  500.000K
     -------------------------------------------------------------------
     lambda___(   1 )=       0.068879   gamma___=       0.000284 meV   omega=      1.2052 meV
     lambda_tr(   1 )=       0.067415   gamma_tr=       0.000278 meV   omega=      1.2052 meV
     lambda___(   2 )=       0.068879   gamma___=       0.000284 meV   omega=      1.2052 meV
     lambda_tr(   2 )=       0.067415   gamma_tr=       0.000278 meV   omega=      1.2052 meV
     lambda___(   3 )=       0.000000   gamma___=       0.000000 meV   omega=      0.4924 meV
     lambda_tr(   3 )=       0.000000   gamma_tr=       0.000000 meV   omega=      0.4924 meV
     lambda___( tot )=       0.137757
     lambda_tr( tot )=       0.134830
     -------------------------------------------------------------------


     Number of (k,k+q) pairs on the Fermi surface:      216 out of      216


     ismear =     1 iq =      45 coord.:   0.16667  0.16667  0.33333 wt:   0.00463 Temp:  500.000K
     -------------------------------------------------------------------
     lambda___(   1 )=       0.000000   gamma___=       0.000000 meV   omega=     -2.7557 meV
     lambda_tr(   1 )=       0.000000   gamma_tr=       0.000000 meV   omega=     -2.7557 meV
     lambda___(   2 )=      -2.137114   gamma___=      -0.033607 meV   omega=      2.3523 meV
     lambda_tr(   2 )=      -3.839592   gamma_tr=      -0.060380 meV   omega=      2.3523 meV
     lambda___(   3 )=      -0.026618   gamma___=      -0.000690 meV   omega=      3.0193 meV
     lambda_tr(   3 )=      -0.330648   gamma_tr=      -0.008566 meV   omega=      3.0193 meV
     lambda___( tot )=      -2.163732
     lambda_tr( tot )=      -4.170240
     -------------------------------------------------------------------


     Number of (k,k+q) pairs on the Fermi surface:      216 out of      216


     ismear =     1 iq =      46 coord.:   0.16667  0.16667  0.50000 wt:   0.00463 Temp:  500.000K
     -------------------------------------------------------------------
     lambda___(   1 )=       0.064518   gamma___=       0.002223 meV   omega=      3.4821 meV
     lambda_tr(   1 )=      -0.122987   gamma_tr=      -0.004238 meV   omega=      3.4821 meV
     lambda___(   2 )=       0.066944   gamma___=       0.002553 meV   omega=      3.6633 meV
     lambda_tr(   2 )=       0.305733   gamma_tr=       0.011660 meV   omega=      3.6633 meV
     lambda___(   3 )=       0.039559   gamma___=       0.002125 meV   omega=      4.3479 meV
     lambda_tr(   3 )=      -0.101421   gamma_tr=      -0.005449 meV   omega=      4.3479 meV
     lambda___( tot )=       0.171021
     lambda_tr( tot )=       0.081325
     -------------------------------------------------------------------


     Number of (k,k+q) pairs on the Fermi surface:      216 out of      216


     ismear =     1 iq =      47 coord.:   0.16667  0.16667  0.66667 wt:   0.00463 Temp:  500.000K
     -------------------------------------------------------------------
     lambda___(   1 )=       0.506839   gamma___=       0.011020 meV   omega=      2.7660 meV
     lambda_tr(   1 )=       0.363414   gamma_tr=       0.007902 meV   omega=      2.7660 meV
     lambda___(   2 )=      -0.196251   gamma___=      -0.006201 meV   omega=      3.3343 meV
     lambda_tr(   2 )=      -0.716492   gamma_tr=      -0.022638 meV   omega=      3.3343 meV
     lambda___(   3 )=       0.380203   gamma___=       0.035616 meV   omega=      5.7413 meV
     lambda_tr(   3 )=      -0.722545   gamma_tr=      -0.067686 meV   omega=      5.7413 meV
     lambda___( tot )=       0.690790
     lambda_tr( tot )=      -1.075623
     -------------------------------------------------------------------


     Number of (k,k+q) pairs on the Fermi surface:      216 out of      216


     ismear =     1 iq =      48 coord.:   0.16667  0.16667  0.83333 wt:   0.00463 Temp:  500.000K
     -------------------------------------------------------------------
     lambda___(   1 )=       0.000000   gamma___=       0.000000 meV   omega=     -3.0769 meV
     lambda_tr(   1 )=       0.000000   gamma_tr=       0.000000 meV   omega=     -3.0769 meV
     lambda___(   2 )=       0.000000   gamma___=       0.000000 meV   omega=     -2.8895 meV
     lambda_tr(   2 )=       0.000000   gamma_tr=       0.000000 meV   omega=     -2.8895 meV
     lambda___(   3 )=       0.010404   gamma___=       0.000865 meV   omega=      5.4074 meV
     lambda_tr(   3 )=      -0.035419   gamma_tr=      -0.002943 meV   omega=      5.4074 meV
     lambda___( tot )=       0.010404
     lambda_tr( tot )=      -0.035419
     -------------------------------------------------------------------


     Number of (k,k+q) pairs on the Fermi surface:      216 out of      216


     ismear =     1 iq =      49 coord.:   0.16667  0.33333  0.00000 wt:   0.00463 Temp:  500.000K
     -------------------------------------------------------------------
     lambda___(   1 )=       0.000000   gamma___=       0.000000 meV   omega=     -3.0769 meV
     lambda_tr(   1 )=       0.000000   gamma_tr=       0.000000 meV   omega=     -3.0769 meV
     lambda___(   2 )=       0.000000   gamma___=       0.000000 meV   omega=     -2.8895 meV
     lambda_tr(   2 )=       0.000000   gamma_tr=       0.000000 meV   omega=     -2.8895 meV
     lambda___(   3 )=       0.010404   gamma___=       0.000865 meV   omega=      5.4074 meV
     lambda_tr(   3 )=      -0.008169   gamma_tr=      -0.000679 meV   omega=      5.4074 meV
     lambda___( tot )=       0.010404
     lambda_tr( tot )=      -0.008169
     -------------------------------------------------------------------


     Number of (k,k+q) pairs on the Fermi surface:      216 out of      216


     ismear =     1 iq =      50 coord.:   0.16667  0.33333  0.16667 wt:   0.00463 Temp:  500.000K
     -------------------------------------------------------------------
     lambda___(   1 )=       0.000000   gamma___=       0.000000 meV   omega=     -2.7557 meV
     lambda_tr(   1 )=       0.000000   gamma_tr=       0.000000 meV   omega=     -2.7557 meV
     lambda___(   2 )=      -2.124025   gamma___=      -0.033402 meV   omega=      2.3523 meV
     lambda_tr(   2 )=      -3.826672   gamma_tr=      -0.060177 meV   omega=      2.3523 meV
     lambda___(   3 )=      -0.037154   gamma___=      -0.000963 meV   omega=      3.0193 meV
     lambda_tr(   3 )=      -0.336427   gamma_tr=      -0.008716 meV   omega=      3.0193 meV
     lambda___( tot )=      -2.161179
     lambda_tr( tot )=      -4.163099
     -------------------------------------------------------------------


     Number of (k,k+q) pairs on the Fermi surface:      216 out of      216


     ismear =     1 iq =      51 coord.:   0.16667  0.33333  0.33333 wt:   0.00463 Temp:  500.000K
     -------------------------------------------------------------------
     lambda___(   1 )=       0.000000   gamma___=       0.000000 meV   omega=     -3.0769 meV
     lambda_tr(   1 )=       0.000000   gamma_tr=       0.000000 meV   omega=     -3.0769 meV
     lambda___(   2 )=       0.000000   gamma___=       0.000000 meV   omega=     -2.8895 meV
     lambda_tr(   2 )=       0.000000   gamma_tr=       0.000000 meV   omega=     -2.8895 meV
     lambda___(   3 )=       0.010344   gamma___=       0.000860 meV   omega=      5.4074 meV
     lambda_tr(   3 )=      -0.043603   gamma_tr=      -0.003623 meV   omega=      5.4074 meV
     lambda___( tot )=       0.010344
     lambda_tr( tot )=      -0.043603
     -------------------------------------------------------------------


     Number of (k,k+q) pairs on the Fermi surface:      216 out of      216


     ismear =     1 iq =      52 coord.:   0.16667  0.33333  0.50000 wt:   0.00463 Temp:  500.000K
     -------------------------------------------------------------------
     lambda___(   1 )=       0.000000   gamma___=       0.000000 meV   omega=     -2.1690 meV
     lambda_tr(   1 )=       0.000000   gamma_tr=       0.000000 meV   omega=     -2.1690 meV
     lambda___(   2 )=       6.524516   gamma___=       0.066224 meV   omega=      1.8899 meV
     lambda_tr(   2 )=     -26.221613   gamma_tr=      -0.266151 meV   omega=      1.8899 meV
     lambda___(   3 )=       0.167259   gamma___=       0.019814 meV   omega=      6.4564 meV
     lambda_tr(   3 )=       0.887190   gamma_tr=       0.105101 meV   omega=      6.4564 meV
     lambda___( tot )=       6.691774
     lambda_tr( tot )=     -25.334424
     -------------------------------------------------------------------


     Number of (k,k+q) pairs on the Fermi surface:      216 out of      216


     ismear =     1 iq =      53 coord.:   0.16667  0.33333  0.66667 wt:   0.00463 Temp:  500.000K
     -------------------------------------------------------------------
     lambda___(   1 )=      -0.152054   gamma___=      -0.000340 meV   omega=      0.8871 meV
     lambda_tr(   1 )=      -1.927951   gamma_tr=      -0.004312 meV   omega=      0.8871 meV
     lambda___(   2 )=       0.006842   gamma___=       0.000615 meV   omega=      5.6224 meV
     lambda_tr(   2 )=      -0.003621   gamma_tr=      -0.000325 meV   omega=      5.6224 meV
     lambda___(   3 )=       0.033339   gamma___=       0.003119 meV   omega=      5.7371 meV
     lambda_tr(   3 )=       0.178428   gamma_tr=       0.016690 meV   omega=      5.7371 meV
     lambda___( tot )=      -0.111873
     lambda_tr( tot )=      -1.753144
     -------------------------------------------------------------------


     Number of (k,k+q) pairs on the Fermi surface:      216 out of      216


     ismear =     1 iq =      54 coord.:   0.16667  0.33333  0.83333 wt:   0.00463 Temp:  500.000K
     -------------------------------------------------------------------
     lambda___(   1 )=       0.000000   gamma___=       0.000000 meV   omega=     -2.1690 meV
     lambda_tr(   1 )=       0.000000   gamma_tr=       0.000000 meV   omega=     -2.1690 meV
     lambda___(   2 )=       6.591376   gamma___=       0.066903 meV   omega=      1.8899 meV
     lambda_tr(   2 )=     -25.867150   gamma_tr=      -0.262553 meV   omega=      1.8899 meV
     lambda___(   3 )=       0.164750   gamma___=       0.019517 meV   omega=      6.4564 meV
     lambda_tr(   3 )=       0.888961   gamma_tr=       0.105311 meV   omega=      6.4564 meV
     lambda___( tot )=       6.756127
     lambda_tr( tot )=     -24.978190
     -------------------------------------------------------------------


     Number of (k,k+q) pairs on the Fermi surface:      216 out of      216


     ismear =     1 iq =      55 coord.:   0.16667  0.50000  0.00000 wt:   0.00463 Temp:  500.000K
     -------------------------------------------------------------------
     lambda___(   1 )=       0.506110   gamma___=       0.011004 meV   omega=      2.7660 meV
     lambda_tr(   1 )=       0.362645   gamma_tr=       0.007885 meV   omega=      2.7660 meV
     lambda___(   2 )=      -0.196052   gamma___=      -0.006194 meV   omega=      3.3343 meV
     lambda_tr(   2 )=      -0.716091   gamma_tr=      -0.022625 meV   omega=      3.3343 meV
     lambda___(   3 )=       0.380235   gamma___=       0.035619 meV   omega=      5.7413 meV
     lambda_tr(   3 )=      -0.722505   gamma_tr=      -0.067682 meV   omega=      5.7413 meV
     lambda___( tot )=       0.690293
     lambda_tr( tot )=      -1.075950
     -------------------------------------------------------------------


     Number of (k,k+q) pairs on the Fermi surface:      216 out of      216


     ismear =     1 iq =      56 coord.:   0.16667  0.50000  0.16667 wt:   0.00463 Temp:  500.000K
     -------------------------------------------------------------------
     lambda___(   1 )=       0.064104   gamma___=       0.002209 meV   omega=      3.4821 meV
     lambda_tr(   1 )=      -0.121547   gamma_tr=      -0.004188 meV   omega=      3.4821 meV
     lambda___(   2 )=       0.066546   gamma___=       0.002538 meV   omega=      3.6633 meV
     lambda_tr(   2 )=       0.303514   gamma_tr=       0.011575 meV   omega=      3.6633 meV
     lambda___(   3 )=       0.039287   gamma___=       0.002111 meV   omega=      4.3479 meV
     lambda_tr(   3 )=      -0.100322   gamma_tr=      -0.005390 meV   omega=      4.3479 meV
     lambda___( tot )=       0.169936
     lambda_tr( tot )=       0.081645
     -------------------------------------------------------------------


     Number of (k,k+q) pairs on the Fermi surface:      216 out of      216


     ismear =     1 iq =      57 coord.:   0.16667  0.50000  0.33333 wt:   0.00463 Temp:  500.000K
     -------------------------------------------------------------------
     lambda___(   1 )=       0.000000   gamma___=       0.000000 meV   omega=     -2.1690 meV
     lambda_tr(   1 )=       0.000000   gamma_tr=       0.000000 meV   omega=     -2.1690 meV
     lambda___(   2 )=       6.521673   gamma___=       0.066195 meV   omega=      1.8899 meV
     lambda_tr(   2 )=     -25.974211   gamma_tr=      -0.263640 meV   omega=      1.8899 meV
     lambda___(   3 )=       0.168410   gamma___=       0.019951 meV   omega=      6.4564 meV
     lambda_tr(   3 )=       0.890848   gamma_tr=       0.105534 meV   omega=      6.4564 meV
     lambda___( tot )=       6.690083
     lambda_tr( tot )=     -25.083363
     -------------------------------------------------------------------


     Number of (k,k+q) pairs on the Fermi surface:      216 out of      216


     ismear =     1 iq =      58 coord.:   0.16667  0.50000  0.50000 wt:   0.00463 Temp:  500.000K
     -------------------------------------------------------------------
     lambda___(   1 )=       0.000000   gamma___=       0.000000 meV   omega=     -3.0271 meV
     lambda_tr(   1 )=       0.000000   gamma_tr=       0.000000 meV   omega=     -3.0271 meV
     lambda___(   2 )=       0.000000   gamma___=       0.000000 meV   omega=     -2.7907 meV
     lambda_tr(   2 )=       0.000000   gamma_tr=       0.000000 meV   omega=     -2.7907 meV
     lambda___(   3 )=       0.013551   gamma___=       0.002345 meV   omega=      7.8031 meV
     lambda_tr(   3 )=       0.001341   gamma_tr=       0.000232 meV   omega=      7.8031 meV
     lambda___( tot )=       0.013551
     lambda_tr( tot )=       0.001341
     -------------------------------------------------------------------


     Number of (k,k+q) pairs on the Fermi surface:      216 out of      216


     ismear =     1 iq =      59 coord.:   0.16667  0.50000  0.66667 wt:   0.00463 Temp:  500.000K
     -------------------------------------------------------------------
     lambda___(   1 )=       0.000000   gamma___=       0.000000 meV   omega=     -2.8475 meV
     lambda_tr(   1 )=       0.000000   gamma_tr=       0.000000 meV   omega=     -2.8475 meV
     lambda___(   2 )=       0.342549   gamma___=       0.011338 meV   omega=      3.4127 meV
     lambda_tr(   2 )=       0.327595   gamma_tr=       0.010843 meV   omega=      3.4127 meV
     lambda___(   3 )=       0.124143   gamma___=       0.020419 meV   omega=      7.6077 meV
     lambda_tr(   3 )=       0.136317   gamma_tr=       0.022421 meV   omega=      7.6077 meV
     lambda___( tot )=       0.466691
     lambda_tr( tot )=       0.463912
     -------------------------------------------------------------------


     Number of (k,k+q) pairs on the Fermi surface:      216 out of      216


     ismear =     1 iq =      60 coord.:   0.16667  0.50000  0.83333 wt:   0.00463 Temp:  500.000K
     -------------------------------------------------------------------
     lambda___(   1 )=      -0.152060   gamma___=      -0.000340 meV   omega=      0.8871 meV
     lambda_tr(   1 )=       1.114681   gamma_tr=       0.002493 meV   omega=      0.8871 meV
     lambda___(   2 )=       0.006842   gamma___=       0.000615 meV   omega=      5.6224 meV
     lambda_tr(   2 )=      -0.031408   gamma_tr=      -0.002822 meV   omega=      5.6224 meV
     lambda___(   3 )=       0.033339   gamma___=       0.003119 meV   omega=      5.7371 meV
     lambda_tr(   3 )=       0.172332   gamma_tr=       0.016120 meV   omega=      5.7371 meV
     lambda___( tot )=      -0.111878
     lambda_tr( tot )=       1.255605
     -------------------------------------------------------------------


     Number of (k,k+q) pairs on the Fermi surface:      216 out of      216


     ismear =     1 iq =      61 coord.:   0.16667  0.66667  0.00000 wt:   0.00463 Temp:  500.000K
     -------------------------------------------------------------------
     lambda___(   1 )=       0.064517   gamma___=       0.002223 meV   omega=      3.4821 meV
     lambda_tr(   1 )=      -0.122987   gamma_tr=      -0.004238 meV   omega=      3.4821 meV
     lambda___(   2 )=       0.066945   gamma___=       0.002553 meV   omega=      3.6633 meV
     lambda_tr(   2 )=       0.305735   gamma_tr=       0.011660 meV   omega=      3.6633 meV
     lambda___(   3 )=       0.039559   gamma___=       0.002125 meV   omega=      4.3479 meV
     lambda_tr(   3 )=      -0.101422   gamma_tr=      -0.005449 meV   omega=      4.3479 meV
     lambda___( tot )=       0.171021
     lambda_tr( tot )=       0.081326
     -------------------------------------------------------------------


     Number of (k,k+q) pairs on the Fermi surface:      216 out of      216


     ismear =     1 iq =      62 coord.:   0.16667  0.66667  0.16667 wt:   0.00463 Temp:  500.000K
     -------------------------------------------------------------------
     lambda___(   1 )=       0.524753   gamma___=       0.011410 meV   omega=      2.7660 meV
     lambda_tr(   1 )=       0.406556   gamma_tr=       0.008840 meV   omega=      2.7660 meV
     lambda___(   2 )=      -0.189665   gamma___=      -0.005993 meV   omega=      3.3343 meV
     lambda_tr(   2 )=      -0.701453   gamma_tr=      -0.022163 meV   omega=      3.3343 meV
     lambda___(   3 )=       0.381204   gamma___=       0.035710 meV   omega=      5.7413 meV
     lambda_tr(   3 )=      -0.711867   gamma_tr=      -0.066686 meV   omega=      5.7413 meV
     lambda___( tot )=       0.716291
     lambda_tr( tot )=      -1.006763
     -------------------------------------------------------------------


     Number of (k,k+q) pairs on the Fermi surface:      216 out of      216


     ismear =     1 iq =      63 coord.:   0.16667  0.66667  0.33333 wt:   0.00463 Temp:  500.000K
     -------------------------------------------------------------------
     lambda___(   1 )=      -0.150747   gamma___=      -0.000337 meV   omega=      0.8871 meV
     lambda_tr(   1 )=      -0.094072   gamma_tr=      -0.000210 meV   omega=      0.8871 meV
     lambda___(   2 )=       0.006904   gamma___=       0.000620 meV   omega=      5.6224 meV
     lambda_tr(   2 )=       0.017010   gamma_tr=       0.001528 meV   omega=      5.6224 meV
     lambda___(   3 )=       0.033653   gamma___=       0.003148 meV   omega=      5.7371 meV
     lambda_tr(   3 )=       0.175480   gamma_tr=       0.016414 meV   omega=      5.7371 meV
     lambda___( tot )=      -0.110191
     lambda_tr( tot )=       0.098418
[...]
      212        7      5.5884    519.9892    410.6509      3.2173     -0.6892
      213        7      4.6673    497.9120    269.1363      1.2762     -0.2164
      214        7      5.4585    367.1799    295.2636      1.5592     -0.3587
      215        7      6.8732    327.8762     81.7500      1.0585     -0.0553
      216        7      7.7957    266.8870     11.0470      0.9767      0.0238
  
        1        8      8.2862    216.9601      0.2245      0.9520      0.0504
        2        8      7.7982    266.4504     10.8921      0.9765      0.0241
        3        8      6.7126    414.6248     95.7720      1.0799     -0.0740
        4        8      6.1174    341.5193     21.7735      0.8636      0.1579
        5        8      6.7126    414.6248     95.7721      1.0799     -0.0740
        6        8      7.7982    266.4504     10.8922      0.9765      0.0241
        7        8      7.7982    266.4504     10.8921      0.9765      0.0241
        8        8      6.7129    321.4345    154.8421      1.2109     -0.1742
        9        8      5.5908    522.0603    414.9594      3.2870     -0.6958
       10        8      4.6703    499.6825    270.8426      1.2982     -0.2297
       11        8      5.4617    368.4809    296.8029      1.5787     -0.3666
       12        8      6.8817    326.6964     76.1522      1.0499     -0.0476
       13        8      6.7126    414.6248     95.7720      1.0799     -0.0740
       14        8      5.5908    522.0603    414.9594      3.2870     -0.6958
       15        8      3.4267    284.1740    176.3086      0.9531      0.0492
       16        8      2.3802      2.3953    549.0878      1.9897     -0.4974
       17        8      3.4954    689.6765    513.1072      1.8114     -0.4479
       18        8      5.4617    368.4812    296.8029      1.5787     -0.3666
       19        8      6.1174    341.5193     21.7735      0.8636      0.1579
       20        8      4.6703    499.6825    270.8426      1.2982     -0.2297
       21        8      2.3802      2.3953    549.0878      1.9897     -0.4974
       22        8      1.7131    392.8725     10.0225      0.7528      0.3284
       23        8      2.3802      2.3955    549.0882      1.9897     -0.4974
       24        8      4.6703    499.6828    270.8425      1.2982     -0.2297
       25        8      6.7126    414.6248     95.7721      1.0799     -0.0740
       26        8      5.4617    368.4809    296.8030      1.5787     -0.3666
       27        8      3.4954    689.6765    513.1072      1.8114     -0.4479
       28        8      2.3802      2.3955    549.0883      1.9897     -0.4974
       29        8      3.4267    284.1738    176.3087      0.9531      0.0492
       30        8      5.5908    522.0605    414.9600      3.2871     -0.6958
       31        8      7.7982    266.4504     10.8922      0.9765      0.0241
       32        8      6.8817    326.6965     76.1522      1.0499     -0.0476
       33        8      5.4617    368.4812    296.8029      1.5787     -0.3666
       34        8      4.6703    499.6828    270.8426      1.2982     -0.2297
       35        8      5.5908    522.0605    414.9600      3.2871     -0.6958
       36        8      6.7129    321.4345    154.8422      1.2109     -0.1742
       37        8      7.7982    266.4504     10.8921      0.9765      0.0241
       38        8      6.7129    321.4345    154.8421      1.2109     -0.1742
       39        8      5.5908    522.0604    414.9594      3.2871     -0.6958
       40        8      4.6703    499.6825    270.8427      1.2982     -0.2297
       41        8      5.4617    368.4809    296.8030      1.5787     -0.3666
       42        8      6.8817    326.6965     76.1522      1.0499     -0.0476
       43        8      6.7121    321.2222    154.3502      1.2088     -0.1727
       44        8      7.7982    266.4504     10.8923      0.9765      0.0241
       45        8      6.8827    326.7805     75.8286      1.0491     -0.0468
       46        8      5.4623    368.7819    297.3915      1.5847     -0.3690
       47        8      4.6689    498.9904    270.3714      1.2928     -0.2265
       48        8      5.5902    521.5797    415.4773      3.3078     -0.6977
       49        8      5.5902    521.5796    415.4768      3.3078     -0.6977
       50        8      6.8817    326.6964     76.1522      1.0499     -0.0476
       51        8      5.5908    522.0604    414.9596      3.2871     -0.6958
       52        8      4.0623    579.1020    945.1781     -2.1866     -1.4573
       53        8      2.9909    549.4405   1514.7276     -1.3706     -1.7296
       54        8      4.0608    576.7620    946.8230     -2.1592     -1.4631
       55        8      4.6689    498.9901    270.3714      1.2928     -0.2265
       56        8      5.4617    368.4811    296.8028      1.5787     -0.3666
       57        8      4.0621    578.3102    944.3084     -2.2073     -1.4531
       58        8      2.3802      2.3956    549.0881      1.9897     -0.4974
       59        8      1.4397    470.6735    364.6054      0.9500      0.0527
       60        8      2.9909    549.4400   1514.7289     -1.3705     -1.7296
       61        8      5.4623    368.7815    297.3913      1.5847     -0.3690
       62        8      4.6703    499.6828    270.8426      1.2982     -0.2297
       63        8      2.9903    548.9425   1515.8575     -1.3603     -1.7351
       64        8      1.4368    470.7877    367.5910      0.9564      0.0456
       65        8      2.3802      2.3952    549.0879      1.9897     -0.4974
       66        8      4.0623    579.1021    945.1784     -2.1866     -1.4573
       67        8      6.8827    326.7805     75.8287      1.0491     -0.0468
       68        8      5.5908    522.0605    414.9598      3.2871     -0.6958
       69        8      4.0621    578.3102    944.3085     -2.2073     -1.4531
       70        8      2.9903    548.9426   1515.8576     -1.3603     -1.7351
       71        8      4.0621    578.3104    944.3089     -2.2072     -1.4531
       72        8      5.5908    522.0604    414.9596      3.2871     -0.6958
       73        8      6.7126    414.6248     95.7720      1.0799     -0.0740
       74        8      5.5908    522.0604    414.9594      3.2870     -0.6958
       75        8      3.4267    284.1740    176.3086      0.9531      0.0492
       76        8      2.3802      2.3953    549.0878      1.9897     -0.4974
       77        8      3.4954    689.6766    513.1071      1.8114     -0.4479
       78        8      5.4617    368.4812    296.8029      1.5787     -0.3666
       79        8      5.5902    521.5796    415.4768      3.3078     -0.6977
       80        8      6.8817    326.6965     76.1522      1.0499     -0.0476
       81        8      5.5908    522.0604    414.9596      3.2871     -0.6958
       82        8      4.0623    579.1020    945.1781     -2.1866     -1.4573
       83        8      2.9909    549.4405   1514.7276     -1.3706     -1.7296
       84        8      4.0608    576.7621    946.8232     -2.1592     -1.4631
       85        8      3.4267    284.1613    176.3274      0.9532      0.0491
       86        8      5.5902    521.5796    415.4772      3.3078     -0.6977
       87        8      6.7126    414.6249     95.7720      1.0799     -0.0740
       88        8      5.4623    368.7816    297.3912      1.5847     -0.3690
       89        8      3.4954    689.6494    513.0972      1.8112     -0.4479
       90        8      2.3795     -0.0964    547.0865      1.9695     -0.4923
       91        8      2.3795     -0.0962    547.0863      1.9695     -0.4923
       92        8      4.0608    576.7620    946.8231     -2.1592     -1.4631
       93        8      5.4617    368.4810    296.8029      1.5787     -0.3666
       94        8      4.6703    499.6827    270.8425      1.2982     -0.2297
       95        8      2.9909    549.4401   1514.7291     -1.3705     -1.7296
       96        8      1.4395    470.6556    364.6874      0.9494      0.0533
       97        8      3.4954    689.6492    513.0973      1.8112     -0.4479
       98        8      2.9909    549.4401   1514.7290     -1.3705     -1.7296
       99        8      3.4954    689.6766    513.1071      1.8114     -0.4479
      100        8      2.9903    548.9425   1515.8575     -1.3603     -1.7351
      101        8      3.4954    689.6765    513.1072      1.8114     -0.4479
      102        8      2.9909    549.4405   1514.7278     -1.3706     -1.7296
      103        8      5.4623    368.7819    297.3915      1.5847     -0.3690
      104        8      4.0623    579.1020    945.1782     -2.1866     -1.4573
      105        8      2.3802      2.3955    549.0883      1.9897     -0.4974
      106        8      1.4368    470.7878    367.5910      0.9564      0.0456
      107        8      2.9903    548.9424   1515.8577     -1.3603     -1.7351
      108        8      4.6703    499.6826    270.8427      1.2982     -0.2297
      109        8      6.1174    341.5193     21.7735      0.8636      0.1579
      110        8      4.6703    499.6825    270.8427      1.2982     -0.2297
      111        8      2.3802      2.3952    549.0878      1.9897     -0.4974
      112        8      1.7131    392.8725     10.0225      0.7528      0.3284
      113        8      2.3802      2.3954    549.0884      1.9897     -0.4974
      114        8      4.6703    499.6828    270.8425      1.2982     -0.2297
      115        8      4.6689    498.9902    270.3714      1.2928     -0.2265
      116        8      5.4617    368.4812    296.8028      1.5787     -0.3666
      117        8      4.0621    578.3102    944.3085     -2.2073     -1.4531
      118        8      2.3802      2.3956    549.0881      1.9897     -0.4974
      119        8      1.4397    470.6735    364.6053      0.9500      0.0527
      120        8      2.9909    549.4401   1514.7292     -1.3705     -1.7296
      121        8      2.3795     -0.0962    547.0863      1.9695     -0.4923
      122        8      4.0608    576.7621    946.8231     -2.1592     -1.4631
      123        8      5.4617    368.4810    296.8028      1.5787     -0.3666
      124        8      4.6703    499.6827    270.8425      1.2982     -0.2297
      125        8      2.9909    549.4401   1514.7289     -1.3705     -1.7296
      126        8      1.4395    470.6557    364.6874      0.9494      0.0533
      127        8      1.7143    392.4573      9.8207      0.7528      0.3283
      128        8      2.3795     -0.0964    547.0864      1.9695     -0.4923
      129        8      4.6689    498.9904    270.3713      1.2928     -0.2265
      130        8      6.1174    341.5193     21.7735      0.8636      0.1579
      131        8      4.6689    498.9902    270.3715      1.2928     -0.2265
      132        8      2.3795     -0.0963    547.0864      1.9695     -0.4923
      133        8      2.3795     -0.0964    547.0864      1.9695     -0.4923
      134        8      1.4395    470.6556    364.6874      0.9494      0.0533
      135        8      2.9909    549.4405   1514.7276     -1.3706     -1.7296
      136        8      4.6703    499.6825    270.8427      1.2982     -0.2297
      137        8      5.4617    368.4811    296.8029      1.5787     -0.3666
      138        8      4.0608    576.7622    946.8233     -2.1592     -1.4631
      139        8      4.6689    498.9905    270.3714      1.2928     -0.2265
      140        8      2.9909    549.4405   1514.7280     -1.3706     -1.7296
      141        8      1.4397    470.6736    364.6054      0.9500      0.0527
      142        8      2.3802      2.3953    549.0878      1.9897     -0.4974
      143        8      4.0621    578.3103    944.3087     -2.2072     -1.4531
      144        8      5.4617    368.4810    296.8030      1.5787     -0.3666
      145        8      6.7126    414.6248     95.7721      1.0799     -0.0740
      146        8      5.4617    368.4810    296.8030      1.5787     -0.3666
      147        8      3.4954    689.6766    513.1072      1.8114     -0.4479
      148        8      2.3802      2.3954    549.0884      1.9897     -0.4974
      149        8      3.4267    284.1739    176.3086      0.9531      0.0492
      150        8      5.5908    522.0605    414.9599      3.2871     -0.6958
      151        8      5.4623    368.7816    297.3912      1.5847     -0.3690
      152        8      4.6703    499.6828    270.8426      1.2982     -0.2297
      153        8      2.9903    548.9426   1515.8577     -1.3603     -1.7351
      154        8      1.4368    470.7877    367.5910      0.9564      0.0456
      155        8      2.3802      2.3953    549.0878      1.9897     -0.4974
      156        8      4.0623    579.1022    945.1782     -2.1866     -1.4573
      157        8      3.4954    689.6493    513.0973      1.8112     -0.4479
      158        8      2.9909    549.4401   1514.7291     -1.3705     -1.7296
      159        8      3.4954    689.6766    513.1071      1.8114     -0.4479
      160        8      2.9903    548.9424   1515.8574     -1.3603     -1.7351
      161        8      3.4954    689.6765    513.1071      1.8114     -0.4479
      162        8      2.9909    549.4405   1514.7278     -1.3706     -1.7296
      163        8      2.3795     -0.0964    547.0864      1.9695     -0.4923
      164        8      1.4395    470.6556    364.6874      0.9494      0.0533
      165        8      2.9909    549.4405   1514.7276     -1.3706     -1.7296
      166        8      4.6703    499.6825    270.8427      1.2982     -0.2297
      167        8      5.4617    368.4810    296.8029      1.5787     -0.3666
      168        8      4.0608    576.7620    946.8232     -2.1592     -1.4631
      169        8      3.4267    284.1612    176.3275      0.9532      0.0491
      170        8      2.3795     -0.0964    547.0865      1.9695     -0.4923
      171        8      3.4954    689.6493    513.0973      1.8112     -0.4479
      172        8      5.4623    368.7817    297.3918      1.5847     -0.3690
      173        8      6.7126    414.6247     95.7721      1.0799     -0.0740
      174        8      5.5902    521.5797    415.4770      3.3078     -0.6977
      175        8      5.5902    521.5798    415.4775      3.3078     -0.6977
      176        8      4.0608    576.7623    946.8236     -2.1592     -1.4631
      177        8      2.9909    549.4400   1514.7293     -1.3705     -1.7296
      178        8      4.0623    579.1020    945.1786     -2.1866     -1.4573
      179        8      5.5908    522.0604    414.9597      3.2871     -0.6958
      180        8      6.8817    326.6965     76.1522      1.0499     -0.0476
      181        8      7.7982    266.4504     10.8923      0.9765      0.0241
      182        8      6.8817    326.6965     76.1523      1.0499     -0.0476
      183        8      5.4617    368.4811    296.8029      1.5787     -0.3666
      184        8      4.6703    499.6828    270.8426      1.2982     -0.2297
      185        8      5.5908    522.0605    414.9599      3.2871     -0.6958
      186        8      6.7129    321.4345    154.8422      1.2109     -0.1742
      187        8      6.8827    326.7805     75.8286      1.0491     -0.0468
      188        8      5.5908    522.0605    414.9598      3.2871     -0.6958
      189        8      4.0621    578.3102    944.3086     -2.2073     -1.4531
      190        8      2.9903    548.9426   1515.8576     -1.3603     -1.7351
      191        8      4.0621    578.3104    944.3086     -2.2073     -1.4531
      192        8      5.5908    522.0604    414.9596      3.2871     -0.6958
      193        8      5.4623    368.7819    297.3915      1.5847     -0.3690
      194        8      4.0623    579.1020    945.1782     -2.1866     -1.4573
      195        8      2.3802      2.3955    549.0883      1.9897     -0.4974
      196        8      1.4368    470.7877    367.5910      0.9564      0.0456
      197        8      2.9903    548.9425   1515.8578     -1.3603     -1.7351
      198        8      4.6703    499.6826    270.8427      1.2982     -0.2297
      199        8      4.6689    498.9905    270.3714      1.2928     -0.2265
      200        8      2.9909    549.4404   1514.7277     -1.3706     -1.7296
      201        8      1.4397    470.6736    364.6054      0.9500      0.0527
      202        8      2.3802      2.3952    549.0879      1.9897     -0.4974
      203        8      4.0621    578.3103    944.3087     -2.2072     -1.4531
      204        8      5.4617    368.4810    296.8031      1.5787     -0.3666
      205        8      5.5902    521.5797    415.4775      3.3078     -0.6977
      206        8      4.0608    576.7622    946.8234     -2.1592     -1.4631
      207        8      2.9909    549.4400   1514.7293     -1.3705     -1.7296
      208        8      4.0623    579.1022    945.1786     -2.1866     -1.4573
      209        8      5.5908    522.0605    414.9597      3.2871     -0.6958
      210        8      6.8817    326.6965     76.1522      1.0499     -0.0476
      211        8      6.7121    321.2222    154.3503      1.2088     -0.1727
      212        8      5.5902    521.5798    415.4770      3.3078     -0.6977
      213        8      4.6689    498.9902    270.3715      1.2928     -0.2265
      214        8      5.4623    368.7816    297.3914      1.5847     -0.3690
      215        8      6.8827    326.7806     75.8287      1.0491     -0.0468
      216        8      7.7982    266.4504     10.8921      0.9765      0.0241
  
     ===================================================================
     Memory usage:  VmHWM =        58Mb
                   VmPeak =       396Mb
     ===================================================================


     ===================================================================
     Eliashberg Spectral Function in the Migdal Approximation
     ===================================================================

     lambda :    1.0134734
     lambda_tr :    1.3238116
 
     Estimated Allen-Dynes Tc
 
     logavg =    0.0001692 l_a2f =    1.0146296
     mu =   0.10 Tc =         1.901875745020 K
     mu =   0.12 Tc =         1.724599754169 K
     mu =   0.14 Tc =         1.551222462087 K
     mu =   0.16 Tc =         1.382557031230 K
     mu =   0.18 Tc =         1.219484833364 K
     mu =   0.20 Tc =         1.062951267235 K
     a2F          :      0.15s CPU      0.15s WALL (       1 calls)

     Unfolding on the coarse grid
     elphon_wrap  :     34.42s CPU     35.53s WALL (       1 calls)

     INITIALIZATION: 

     init_vloc    :      0.00s CPU      0.00s WALL (       1 calls)
     init_us_1    :      0.10s CPU      0.10s WALL (       2 calls)



     Electron-Phonon interpolation
     ephwann      :      2.44s CPU      2.52s WALL (       1 calls)
     ep-interp    :      2.00s CPU      2.05s WALL (     216 calls)
     PH SELF-ENER :      0.21s CPU      0.21s WALL (     216 calls)

     Ham: step 1  :      0.00s CPU      0.00s WALL (       1 calls)
     Ham: step 2  :      0.00s CPU      0.00s WALL (       1 calls)
     ep: step 1   :      0.00s CPU      0.00s WALL (      81 calls)
     ep: step 2   :      2.28s CPU      2.36s WALL (       1 calls)
     DynW2B       :      0.00s CPU      0.00s WALL (     216 calls)
     HamW2B       :      0.57s CPU      0.59s WALL (   23490 calls)
     ephW2Bp      :      0.08s CPU      0.08s WALL (     216 calls)
     ephW2B       :      0.19s CPU      0.19s WALL (   11664 calls)


     Total program execution
     EPW          :     41.88s CPU     43.09s WALL

     ===============================================================================
     The functionality-dependent EPW.bib file was created with suggested citations. 
     Please consider citing the papers listed in EPW.bib.                           
     ===============================================================================
                                                                                    
