                                                                                      
                                       ``:oss/                                        
                           `.+s+.     .+ys--yh+     `./ss+.                           
                          -sh//yy+`   +yy   +yy    -+h+-oyy                           
                          -yh- .oyy/.-sh.   .syo-.:sy-  /yh                           
                 `.-.`    `yh+   -oyyyo.     `/syys:    oys      `.`                  
               `/+ssys+-` `sh+      `                   oys`   .:osyo`                
               -yh- ./syyooyo`                          .sys+/oyo--yh/                
               `yy+    .-:-.                             `-/+/:`  -sh-                
                /yh.                                              oys                 
          ``..---hho---------`   .---------..`      `.-----.`    -hd+---.             
       `./osmNMMMMMMMMMMMMMMMs. +NNMMMMMMMMNNmh+.   yNMMMMMNm-  oNMMMMMNmo++:`        
       +sy--/sdMMMhyyyyyyyNMMh- .oyNMMmyyyyyhNMMm+` -yMMMdyyo:` .oyyNMMNhs+syy`       
       -yy/   /MMM+.`-+/``mMMy-   `mMMh:`````.dMMN:` `MMMy-`-dhhy```mMMy:``+hs        
        -yy+` /MMMo:-mMM+`-oo/.    mMMh:     `dMMN/`  dMMm:`dMMMMy..MMMo-.+yo`        
         .sys`/MMMMNNMMMs-         mMMmyooooymMMNo:   oMMM/sMMMMMM++MMN//oh:          
          `sh+/MMMhyyMMMs- `-`     mMMMMMMMMMNmy+-`   -MMMhMMMsmMMmdMMd/yy+           
    `-/+++oyy-/MMM+.`/hh/.`mNm:`   mMMd+/////:-.`      NMMMMMd/:NMMMMMy:/yyo/:.`      
   +os+//:-..-oMMMo:--:::-/MMMo. .-mMMd+---`           hMMMMN+. oMMMMMo. `-+osyso:`   
   syo     `mNMMMMMNNNNNNNNMMMo.oNNMMMMMNNNN:`         +MMMMs:`  dMMMN/`     ``:syo   
   /yh`     :syyyyyyyyyyyyyyyy+.`+syyyyyyyyo:`         .oyys:`   .oyys:`        +yh   
   -yh-        ````````````````    `````````              ``        ``          oys   
   -+h/------------------------::::::::://////++++++++++++++++++++++///////::::/yd:   
   shdddddddddddddddddddddddddddddhhhhhhhhyyyyyssssssssssssssssyyyyyyyhhhhhhhddddh`   
                                                                                      
  S. Ponce, E. R. Margine, C. Verdi, and F. Giustino,                                 
                                                Comput. Phys. Commun. 209, 116 (2016) 
                                                                                      

     Program EPW v.5.2.0 starts on 22Apr2020 at 18: 0:13 

     This program is part of the open-source Quantum ESPRESSO suite
     for quantum simulation of materials; please cite
         "P. Giannozzi et al., J. Phys.:Condens. Matter 21 395502 (2009);
         "P. Giannozzi et al., J. Phys.:Condens. Matter 29 465901 (2017);
          URL http://www.quantum-espresso.org", 
     in publications or presentations arising from this work. More details at
     http://www.quantum-espresso.org/quote

     Parallel version (MPI), running on     4 processors

     MPI processes distributed on     1 nodes
     K-points division:     npool     =       4
     Fft bands division:     nmany     =       1

     Reading xml data from directory:

     ./pb.save/

     IMPORTANT: XC functional enforced from input :
     Exchange-correlation= PZ
                           (   1   1   0   0   0   0   0)
     Any further DFT definition will be discarded
     Please, verify this is what you really want

 
     G-vector sticks info
     --------------------
     sticks:   dense  smooth     PW     G-vecs:    dense   smooth      PW
     Sum         703     703    211                12387    12387    2109
 
     Reading collected, re-writing distributed wavefunctions

     --                                                                         

     bravais-lattice index     =            2
     lattice parameter (a_0)   =       9.2700  a.u.
     unit-cell volume          =     199.1495 (a.u.)^3
     number of atoms/cell      =            1
     number of atomic types    =            1
     kinetic-energy cut-off    =      60.0000  Ry
     charge density cut-off    =     240.0000  Ry
     Exchange-correlation= PZ
                           (   1   1   0   0   0   0   0)
     Non magnetic calculation with spin-orbit

     celldm(1)=    9.27000  celldm(2)=    0.00000  celldm(3)=    0.00000
     celldm(4)=    0.00000  celldm(5)=    0.00000  celldm(6)=    0.00000

     crystal axes: (cart. coord. in units of a_0)
               a(1) = ( -0.5000  0.0000  0.5000 )  
               a(2) = (  0.0000  0.5000  0.5000 )  
               a(3) = ( -0.5000  0.5000  0.0000 )  

     reciprocal axes: (cart. coord. in units 2 pi/a_0)
               b(1) = ( -1.0000 -1.0000  1.0000 )  
               b(2) = (  1.0000  1.0000  1.0000 )  
               b(3) = ( -1.0000  1.0000 -1.0000 )  


     Atoms inside the unit cell: 

   Cartesian axes

     site n.  atom      mass           positions (a_0 units)
        1        Pb 207.2000   tau( 1) = (    0.00000    0.00000    0.00000  )
 
     49 Sym.Ops. (with q -> -q+G )


     G cutoff =  522.4094  (  12387 G-vectors)     FFT grid: ( 36, 36, 36)
     number of k points=   27  gaussian broad. (Ry)=  0.0200     ngauss =   1
                       cart. coord. in units 2pi/a_0
        k(    1) = (   0.0000000   0.0000000   0.0000000), wk =   0.0370370
        k(    2) = (  -0.3333333   0.3333333  -0.3333333), wk =   0.0370370
        k(    3) = (  -0.6666667   0.6666667  -0.6666667), wk =   0.0370370
        k(    4) = (   0.3333333   0.3333333   0.3333333), wk =   0.0370370
        k(    5) = (   0.0000000   0.6666667   0.0000000), wk =   0.0370370
        k(    6) = (  -0.3333333   1.0000000  -0.3333333), wk =   0.0370370
        k(    7) = (   0.6666667   0.6666667   0.6666667), wk =   0.0370370
        k(    8) = (   0.3333333   1.0000000   0.3333333), wk =   0.0370370
        k(    9) = (   0.0000000   1.3333333   0.0000000), wk =   0.0370370
        k(   10) = (  -0.3333333  -0.3333333   0.3333333), wk =   0.0370370
        k(   11) = (  -0.6666667   0.0000000   0.0000000), wk =   0.0370370
        k(   12) = (  -1.0000000   0.3333333  -0.3333333), wk =   0.0370370
        k(   13) = (   0.0000000   0.0000000   0.6666667), wk =   0.0370370
        k(   14) = (  -0.3333333   0.3333333   0.3333333), wk =   0.0370370
        k(   15) = (  -0.6666667   0.6666667  -0.0000000), wk =   0.0370370
        k(   16) = (   0.3333333   0.3333333   1.0000000), wk =   0.0370370
        k(   17) = (   0.0000000   0.6666667   0.6666667), wk =   0.0370370
        k(   18) = (  -0.3333333   1.0000000   0.3333333), wk =   0.0370370
        k(   19) = (  -0.6666667  -0.6666667   0.6666667), wk =   0.0370370
        k(   20) = (  -1.0000000  -0.3333333   0.3333333), wk =   0.0370370
        k(   21) = (  -1.3333333   0.0000000   0.0000000), wk =   0.0370370
        k(   22) = (  -0.3333333  -0.3333333   1.0000000), wk =   0.0370370
        k(   23) = (  -0.6666667  -0.0000000   0.6666667), wk =   0.0370370
        k(   24) = (  -1.0000000   0.3333333   0.3333333), wk =   0.0370370
        k(   25) = (   0.0000000   0.0000000   1.3333333), wk =   0.0370370
        k(   26) = (  -0.3333333   0.3333333   1.0000000), wk =   0.0370370
        k(   27) = (  -0.6666667   0.6666667   0.6666667), wk =   0.0370370

     PseudoPot. # 1 for Pb read from file:
     ../../pseudo/pb_s.UPF
     MD5 check sum: 7774f596943a2055f0d8d19eea6f2ae8
     Pseudo is Norm-conserving, Zval = 14.0
     Generated using "atomic" code by A. Dal Corso (Quantum ESPRESSO distribution)
     Using radial grid of 1281 points,  4 beta functions with: 
                l(1) =   2
                l(2) =   2
                l(3) =   1
                l(4) =   1
     EPW          :      0.27s CPU      0.30s WALL

     EPW          :      0.32s CPU      0.35s WALL

     -------------------------------------------------------------------
     Wannierization on  3 x  3 x  3 electronic grid
     -------------------------------------------------------------------
 
     Spin CASE ( non-collinear )
 
     Initializing Wannier90
 
 
     Initial Wannier projections
 
     (   0.00000   0.00000   0.00000) :  l =  -3 mr =   1
     (   0.00000   0.00000   0.00000) :  l =  -3 mr =   1
     (   0.00000   0.00000   0.00000) :  l =  -3 mr =   2
     (   0.00000   0.00000   0.00000) :  l =  -3 mr =   2
     (   0.00000   0.00000   0.00000) :  l =  -3 mr =   3
     (   0.00000   0.00000   0.00000) :  l =  -3 mr =   3
     (   0.00000   0.00000   0.00000) :  l =  -3 mr =   4
     (   0.00000   0.00000   0.00000) :  l =  -3 mr =   4

      - Number of bands is ( 12)
      - Number of total bands is ( 22)
      - Number of excluded bands is ( 10)
      - Number of wannier functions is (  8)
      - All guiding functions are given 
 
  Reading data about k-point neighbours 
 
      - All neighbours are found 
 
     AMN
      k points =    27 in    4 pools
            1 of    7 on ionode
            2 of    7 on ionode
            3 of    7 on ionode
            4 of    7 on ionode
            5 of    7 on ionode
            6 of    7 on ionode
            7 of    7 on ionode
 
     AMN calculated
 
     MMN
      k points =    27 in    4 pools
            1 of    7 on ionode
            2 of    7 on ionode
            3 of    7 on ionode
            4 of    7 on ionode
            5 of    7 on ionode
            6 of    7 on ionode
            7 of    7 on ionode
     MMN calculated
 
     Running Wannier90
 
     Wannier Function centers (cartesian, alat) and spreads (ang):
 
     (   0.08272   0.08272   0.08272) :   1.60664
     (   0.08272   0.08272   0.08272) :   1.60664
     (   0.08272  -0.08272  -0.08272) :   1.60664
     (   0.08272  -0.08272  -0.08272) :   1.60664
     (  -0.08272   0.08272  -0.08272) :   1.60664
     (  -0.08272   0.08272  -0.08272) :   1.60664
     (  -0.08272  -0.08272   0.08272) :   1.60664
     (  -0.08272  -0.08272   0.08272) :   1.60664
 
     -------------------------------------------------------------------
     WANNIER      :      2.19s CPU      2.43s WALL (       1 calls)
     -------------------------------------------------------------------

     Dipole matrix elements calculated
 

     Calculating kgmap

     Progress kgmap: ########################################
     kmaps        :      0.02s CPU      0.14s WALL (       1 calls)

     Reading interatomic force constants

     IFC last    0.0004688
     Norm of the difference between old and new effective charges:    0.0000000
     Norm of the difference between old and new force-constants:    0.0011483
     Imposed crystal ASR

     Finished reading ifcs

     Symmetries of Bravais lattice:  48
     Symmetries of crystal:          48


     ===================================================================
     irreducible q point #    1
     ===================================================================

     Symmetries of small group of q: 48
          in addition sym. q -> -q+G:
 
     Number of q in the star =    1
     List of q in the star:
          1   0.000000000   0.000000000   0.000000000
     Imposing acoustic sum rule on the dynamical matrix
     Dyn mat calculated from ifcs
 
        q(    1 ) = (   0.0000000   0.0000000   0.0000000 )


     ===================================================================
     irreducible q point #    2
     ===================================================================

     Symmetries of small group of q:  6
 
     Number of q in the star =    8
     List of q in the star:
          1  -0.333333333   0.333333333  -0.333333333
          2   0.333333333   0.333333333  -0.333333333
          3   0.333333333   0.333333333   0.333333333
          4  -0.333333333   0.333333333   0.333333333
          5   0.333333333  -0.333333333   0.333333333
          6  -0.333333333  -0.333333333  -0.333333333
          7   0.333333333  -0.333333333  -0.333333333
          8  -0.333333333  -0.333333333   0.333333333
     Dyn mat calculated from ifcs
 
        q(    2 ) = (  -0.3333333   0.3333333  -0.3333333 )
        q(    3 ) = (   0.3333333   0.3333333  -0.3333333 )
        q(    4 ) = (   0.3333333   0.3333333   0.3333333 )
        q(    5 ) = (  -0.3333333   0.3333333   0.3333333 )
        q(    6 ) = (   0.3333333  -0.3333333   0.3333333 )
        q(    7 ) = (  -0.3333333  -0.3333333  -0.3333333 )
        q(    8 ) = (   0.3333333  -0.3333333  -0.3333333 )
        q(    9 ) = (  -0.3333333  -0.3333333   0.3333333 )


     ===================================================================
     irreducible q point #    3
     ===================================================================

     Symmetries of small group of q:  8
 
     Number of q in the star =    6
     List of q in the star:
          1   0.000000000   0.666666667   0.000000000
          2  -0.666666667   0.000000000   0.000000000
          3   0.000000000  -0.666666667   0.000000000
          4   0.000000000   0.000000000   0.666666667
          5   0.000000000   0.000000000  -0.666666667
          6   0.666666667   0.000000000   0.000000000
     Dyn mat calculated from ifcs
 
        q(   10 ) = (   0.0000000   0.6666667   0.0000000 )
        q(   11 ) = (  -0.6666667   0.0000000   0.0000000 )
        q(   12 ) = (   0.0000000  -0.6666667   0.0000000 )
        q(   13 ) = (   0.0000000   0.0000000   0.6666667 )
        q(   14 ) = (   0.0000000   0.0000000  -0.6666667 )
        q(   15 ) = (   0.6666667   0.0000000   0.0000000 )


     ===================================================================
     irreducible q point #    4
     ===================================================================

     Symmetries of small group of q:  4
 
     Number of q in the star =   12
     List of q in the star:
          1   0.666666667   0.000000000   0.666666667
          2   0.666666667   0.000000000  -0.666666667
          3  -0.666666667   0.000000000  -0.666666667
          4  -0.666666667   0.000000000   0.666666667
          5   0.000000000  -0.666666667   0.666666667
          6  -0.666666667   0.666666667   0.000000000
          7  -0.666666667  -0.666666667   0.000000000
          8   0.666666667   0.666666667   0.000000000
          9   0.666666667  -0.666666667   0.000000000
         10   0.000000000   0.666666667   0.666666667
         11   0.000000000   0.666666667  -0.666666667
         12   0.000000000  -0.666666667  -0.666666667
     Dyn mat calculated from ifcs
 
        q(   16 ) = (   0.6666667   0.0000000   0.6666667 )
        q(   17 ) = (   0.6666667   0.0000000  -0.6666667 )
        q(   18 ) = (  -0.6666667   0.0000000  -0.6666667 )
        q(   19 ) = (  -0.6666667   0.0000000   0.6666667 )
        q(   20 ) = (   0.0000000  -0.6666667   0.6666667 )
        q(   21 ) = (  -0.6666667   0.6666667   0.0000000 )
        q(   22 ) = (  -0.6666667  -0.6666667   0.0000000 )
        q(   23 ) = (   0.6666667   0.6666667   0.0000000 )
        q(   24 ) = (   0.6666667  -0.6666667   0.0000000 )
        q(   25 ) = (   0.0000000   0.6666667   0.6666667 )
        q(   26 ) = (   0.0000000   0.6666667  -0.6666667 )
        q(   27 ) = (   0.0000000  -0.6666667  -0.6666667 )

     Writing epmatq on .epb files


     The .epb files have been correctly written


     Band disentanglement is used: nbndsub =    8
     Use zone-centred Wigner-Seitz cells 
     Number of WS vectors for electrons       43
     Number of WS vectors for phonons       43
     Number of WS vectors for electron-phonon       43
     Maximum number of cores for efficient parallelization      129
     Results may improve by using use_ws == .TRUE. 

     Writing Hamiltonian, Dynamical matrix and EP vertex in Wann rep to file

     ===================================================================
     Memory usage:  VmHWM =       202Mb
                   VmPeak =      2753Mb
     ===================================================================
     
     Using uniform q-mesh:    6   6   6
     Size of q point mesh for interpolation:        216
     Using uniform k-mesh:    6   6   6
     Size of k point mesh for interpolation:        432
     Max number of k points per pool:              108

     Fermi energy coarse grid =  10.121988 eV

     Skipping the first   10 bands:

     The Fermi level will be determined with   4.00000 electrons

     Fermi energy is calculated from the fine k-mesh: Ef =  11.622355 eV

     Warning: check if difference with Fermi level fine grid makes sense

     ===================================================================

              ibndmin =     1  ebndmin =    -0.040
              ibndmax =     8  ebndmax =     1.463


     Number of ep-matrix elements per pool :        10368 ~=   81.00 Kb (@ 8 bytes/ DP)
      
     A selecq.fmt file was found but re-created because selecqread == .FALSE. 
     Number selected, total            100            100
     Number selected, total            200            200
     We only need to compute      216 q-points
      

     ===================================================================
     Phonon (Imaginary) Self-Energy in the Migdal Approximation
     ===================================================================


     Fermi Surface thickness =  20.000000 eV

     Golden Rule strictly enforced with T =   0.043087 eV
     Gaussian Broadening:   0.200000 eV, ngauss=   1
     DOS =  0.904604 states/spin/eV/Unit Cell at Ef= 11.622355 eV

     ismear =     1 iq =       1 coord.:   0.00000  0.00000  0.00000 wt:   0.00463
     -------------------------------------------------------------------
     lambda___(   1 )=       0.000000   gamma___=       0.000000 meV   omega=      0.0000 meV
     lambda_tr(   1 )=       0.000000   gamma_tr=       0.000000 meV   omega=      0.0000 meV
     lambda___(   2 )=       0.000000   gamma___=       0.000000 meV   omega=      0.0000 meV
     lambda_tr(   2 )=       0.000000   gamma_tr=       0.000000 meV   omega=      0.0000 meV
     lambda___(   3 )=       0.000000   gamma___=       0.000000 meV   omega=      0.0000 meV
     lambda_tr(   3 )=       0.000000   gamma_tr=       0.000000 meV   omega=      0.0000 meV
     lambda___( tot )=       0.000000
     lambda_tr( tot )=       0.000000
     -------------------------------------------------------------------


     Number of (k,k+q) pairs on the Fermi surface:      216 out of      216


     ===================================================================
     Electron (Imaginary) Self-Energy in the Migdal Approximation
     ===================================================================


     Fermi Surface thickness =  20.000000 eV

     Golden Rule strictly enforced with T =   0.043087 eV
     Gaussian Broadening:   0.200000 eV, ngauss=   1
 

     ismear =     1 iq =       2 coord.:   0.00000  0.00000  0.16667 wt:   0.00463
     -------------------------------------------------------------------
     lambda___(   1 )=       0.026709   gamma___=       0.000242 meV   omega=      1.7871 meV
     lambda_tr(   1 )=       0.026747   gamma_tr=       0.000243 meV   omega=      1.7871 meV
     lambda___(   2 )=       0.026709   gamma___=       0.000242 meV   omega=      1.7871 meV
     lambda_tr(   2 )=       0.026747   gamma_tr=       0.000243 meV   omega=      1.7871 meV
     lambda___(   3 )=       0.025473   gamma___=       0.001312 meV   omega=      4.2564 meV
     lambda_tr(   3 )=       0.025328   gamma_tr=       0.001304 meV   omega=      4.2564 meV
     lambda___( tot )=       0.078891
     lambda_tr( tot )=       0.078822
     -------------------------------------------------------------------


     Number of (k,k+q) pairs on the Fermi surface:      216 out of      216


     ismear =     1 iq =       3 coord.:   0.00000  0.00000  0.33333 wt:   0.00463
     -------------------------------------------------------------------
     lambda___(   1 )=       0.165087   gamma___=       0.005384 meV   omega=      3.3875 meV
     lambda_tr(   1 )=      -7.022214   gamma_tr=      -0.229001 meV   omega=      3.3875 meV
     lambda___(   2 )=       0.165087   gamma___=       0.005384 meV   omega=      3.3875 meV
     lambda_tr(   2 )=      -7.022214   gamma_tr=      -0.229001 meV   omega=      3.3875 meV
     lambda___(   3 )=       0.112828   gamma___=       0.018143 meV   omega=      7.5222 meV
     lambda_tr(   3 )=      -2.173542   gamma_tr=      -0.349514 meV   omega=      7.5222 meV
     lambda___( tot )=       0.443001
     lambda_tr( tot )=     -16.217969
     -------------------------------------------------------------------


     Number of (k,k+q) pairs on the Fermi surface:      216 out of      216


     ismear =     1 iq =       4 coord.:   0.00000  0.00000  0.50000 wt:   0.00463
     -------------------------------------------------------------------
     lambda___(   1 )=       0.000000   gamma___=       0.000000 meV   omega=      4.0697 meV
     lambda_tr(   1 )=       0.000000   gamma_tr=       0.000000 meV   omega=      4.0697 meV
     lambda___(   2 )=       0.000000   gamma___=       0.000000 meV   omega=      4.0697 meV
     lambda_tr(   2 )=       0.000000   gamma_tr=       0.000000 meV   omega=      4.0697 meV
     lambda___(   3 )=       0.000000   gamma___=       0.000000 meV   omega=      8.7711 meV
     lambda_tr(   3 )=       0.000000   gamma_tr=       0.000000 meV   omega=      8.7711 meV
     lambda___( tot )=       0.000000
     lambda_tr( tot )=       0.000000
     -------------------------------------------------------------------


     Number of (k,k+q) pairs on the Fermi surface:      216 out of      216


     ismear =     1 iq =       5 coord.:   0.00000  0.00000  0.66667 wt:   0.00463
     -------------------------------------------------------------------
     lambda___(   1 )=       0.165075   gamma___=       0.005383 meV   omega=      3.3875 meV
     lambda_tr(   1 )=      -7.022137   gamma_tr=      -0.228998 meV   omega=      3.3875 meV
     lambda___(   2 )=       0.165075   gamma___=       0.005383 meV   omega=      3.3875 meV
     lambda_tr(   2 )=      -7.022137   gamma_tr=      -0.228998 meV   omega=      3.3875 meV
     lambda___(   3 )=       0.112807   gamma___=       0.018140 meV   omega=      7.5222 meV
     lambda_tr(   3 )=      -2.173532   gamma_tr=      -0.349512 meV   omega=      7.5222 meV
     lambda___( tot )=       0.442956
     lambda_tr( tot )=     -16.217805
     -------------------------------------------------------------------


     Number of (k,k+q) pairs on the Fermi surface:      216 out of      216


     ismear =     1 iq =       6 coord.:   0.00000  0.00000  0.83333 wt:   0.00463
     -------------------------------------------------------------------
     lambda___(   1 )=       0.026709   gamma___=       0.000242 meV   omega=      1.7871 meV
     lambda_tr(   1 )=       0.026746   gamma_tr=       0.000243 meV   omega=      1.7871 meV
     lambda___(   2 )=       0.026709   gamma___=       0.000242 meV   omega=      1.7871 meV
     lambda_tr(   2 )=       0.026746   gamma_tr=       0.000243 meV   omega=      1.7871 meV
     lambda___(   3 )=       0.025473   gamma___=       0.001312 meV   omega=      4.2564 meV
     lambda_tr(   3 )=       0.025328   gamma_tr=       0.001304 meV   omega=      4.2564 meV
     lambda___( tot )=       0.078891
     lambda_tr( tot )=       0.078821
     -------------------------------------------------------------------


     Number of (k,k+q) pairs on the Fermi surface:      216 out of      216


     ismear =     1 iq =       7 coord.:   0.00000  0.16667  0.00000 wt:   0.00463
     -------------------------------------------------------------------
     lambda___(   1 )=       0.026709   gamma___=       0.000242 meV   omega=      1.7871 meV
     lambda_tr(   1 )=       0.026747   gamma_tr=       0.000243 meV   omega=      1.7871 meV
     lambda___(   2 )=       0.026709   gamma___=       0.000242 meV   omega=      1.7871 meV
     lambda_tr(   2 )=       0.026747   gamma_tr=       0.000243 meV   omega=      1.7871 meV
     lambda___(   3 )=       0.025473   gamma___=       0.001312 meV   omega=      4.2564 meV
     lambda_tr(   3 )=       0.025328   gamma_tr=       0.001304 meV   omega=      4.2564 meV
     lambda___( tot )=       0.078891
     lambda_tr( tot )=       0.078822
     -------------------------------------------------------------------


     Number of (k,k+q) pairs on the Fermi surface:      216 out of      216


     ismear =     1 iq =       8 coord.:   0.00000  0.16667  0.16667 wt:   0.00463
     -------------------------------------------------------------------
     lambda___(   1 )=       0.067310   gamma___=       0.000645 meV   omega=      1.8366 meV
     lambda_tr(   1 )=       0.166677   gamma_tr=       0.001598 meV   omega=      1.8366 meV
     lambda___(   2 )=       0.067310   gamma___=       0.000645 meV   omega=      1.8366 meV
     lambda_tr(   2 )=       0.166677   gamma_tr=       0.001598 meV   omega=      1.8366 meV
     lambda___(   3 )=       0.162147   gamma___=       0.011762 meV   omega=      5.0522 meV
     lambda_tr(   3 )=       0.067045   gamma_tr=       0.004863 meV   omega=      5.0522 meV
     lambda___( tot )=       0.296768
     lambda_tr( tot )=       0.400398
     -------------------------------------------------------------------


     Number of (k,k+q) pairs on the Fermi surface:      216 out of      216


     ismear =     1 iq =       9 coord.:   0.00000  0.16667  0.33333 wt:   0.00463
     -------------------------------------------------------------------
     lambda___(   1 )=       0.012397   gamma___=       0.000374 meV   omega=      3.2582 meV
     lambda_tr(   1 )=       0.063748   gamma_tr=       0.001923 meV   omega=      3.2582 meV
     lambda___(   2 )=       0.028866   gamma___=       0.001173 meV   omega=      3.7812 meV
     lambda_tr(   2 )=       0.145855   gamma_tr=       0.005927 meV   omega=      3.7812 meV
     lambda___(   3 )=       0.007055   gamma___=       0.001051 meV   omega=      7.2397 meV
     lambda_tr(   3 )=      -0.014526   gamma_tr=      -0.002164 meV   omega=      7.2397 meV
     lambda___( tot )=       0.048319
     lambda_tr( tot )=       0.195077
     -------------------------------------------------------------------


     Number of (k,k+q) pairs on the Fermi surface:      216 out of      216


     ismear =     1 iq =      10 coord.:   0.00000  0.16667  0.50000 wt:   0.00463
     -------------------------------------------------------------------
     lambda___(   1 )=       0.237113   gamma___=       0.012663 meV   omega=      4.3349 meV
     lambda_tr(   1 )=       0.209156   gamma_tr=       0.011170 meV   omega=      4.3349 meV
     lambda___(   2 )=       0.062171   gamma___=       0.005033 meV   omega=      5.3373 meV
     lambda_tr(   2 )=      -0.095210   gamma_tr=      -0.007708 meV   omega=      5.3373 meV
     lambda___(   3 )=       0.119582   gamma___=       0.024248 meV   omega=      8.4470 meV
     lambda_tr(   3 )=      -0.245923   gamma_tr=      -0.049866 meV   omega=      8.4470 meV
     lambda___( tot )=       0.418867
     lambda_tr( tot )=      -0.131976
     -------------------------------------------------------------------


     Number of (k,k+q) pairs on the Fermi surface:      216 out of      216


     ismear =     1 iq =      11 coord.:   0.00000  0.16667  0.66667 wt:   0.00463
     -------------------------------------------------------------------
     lambda___(   1 )=       0.048100   gamma___=       0.002437 meV   omega=      4.2226 meV
     lambda_tr(   1 )=       0.227251   gamma_tr=       0.011515 meV   omega=      4.2226 meV
     lambda___(   2 )=       0.035221   gamma___=       0.002625 meV   omega=      5.1214 meV
     lambda_tr(   2 )=      -0.056617   gamma_tr=      -0.004220 meV   omega=      5.1214 meV
     lambda___(   3 )=       0.008819   gamma___=       0.001624 meV   omega=      8.0496 meV
     lambda_tr(   3 )=      -0.011505   gamma_tr=      -0.002119 meV   omega=      8.0496 meV
     lambda___( tot )=       0.092140
     lambda_tr( tot )=       0.159128
     -------------------------------------------------------------------


     Number of (k,k+q) pairs on the Fermi surface:      216 out of      216


     ismear =     1 iq =      12 coord.:   0.00000  0.16667  0.83333 wt:   0.00463
     -------------------------------------------------------------------
     lambda___(   1 )=      -0.846970   gamma___=      -0.022807 meV   omega=      3.0782 meV
     lambda_tr(   1 )=      -1.707176   gamma_tr=      -0.045970 meV   omega=      3.0782 meV
     lambda___(   2 )=       0.566605   gamma___=       0.017150 meV   omega=      3.2635 meV
     lambda_tr(   2 )=      -0.426542   gamma_tr=      -0.012911 meV   omega=      3.2635 meV
     lambda___(   3 )=       0.039580   gamma___=       0.004461 meV   omega=      6.2976 meV
     lambda_tr(   3 )=       0.005895   gamma_tr=       0.000664 meV   omega=      6.2976 meV
     lambda___( tot )=      -0.240785
     lambda_tr( tot )=      -2.127824
     -------------------------------------------------------------------


     Number of (k,k+q) pairs on the Fermi surface:      216 out of      216


     ismear =     1 iq =      13 coord.:   0.00000  0.33333  0.00000 wt:   0.00463
     -------------------------------------------------------------------
     lambda___(   1 )=       0.165086   gamma___=       0.005384 meV   omega=      3.3875 meV
     lambda_tr(   1 )=      -7.022212   gamma_tr=      -0.229001 meV   omega=      3.3875 meV
     lambda___(   2 )=       0.165086   gamma___=       0.005384 meV   omega=      3.3875 meV
     lambda_tr(   2 )=      -7.022212   gamma_tr=      -0.229001 meV   omega=      3.3875 meV
     lambda___(   3 )=       0.112828   gamma___=       0.018143 meV   omega=      7.5222 meV
     lambda_tr(   3 )=      -2.173542   gamma_tr=      -0.349514 meV   omega=      7.5222 meV
     lambda___( tot )=       0.443000
     lambda_tr( tot )=     -16.217967
     -------------------------------------------------------------------


     Number of (k,k+q) pairs on the Fermi surface:      216 out of      216


     ismear =     1 iq =      14 coord.:   0.00000  0.33333  0.16667 wt:   0.00463
     -------------------------------------------------------------------
     lambda___(   1 )=       0.012397   gamma___=       0.000374 meV   omega=      3.2582 meV
     lambda_tr(   1 )=       0.063749   gamma_tr=       0.001923 meV   omega=      3.2582 meV
     lambda___(   2 )=       0.028866   gamma___=       0.001173 meV   omega=      3.7812 meV
     lambda_tr(   2 )=       0.145854   gamma_tr=       0.005926 meV   omega=      3.7812 meV
     lambda___(   3 )=       0.007055   gamma___=       0.001051 meV   omega=      7.2397 meV
     lambda_tr(   3 )=      -0.014526   gamma_tr=      -0.002164 meV   omega=      7.2397 meV
     lambda___( tot )=       0.048319
     lambda_tr( tot )=       0.195077
     -------------------------------------------------------------------


     Number of (k,k+q) pairs on the Fermi surface:      216 out of      216


     ismear =     1 iq =      15 coord.:   0.00000  0.33333  0.33333 wt:   0.00463
     -------------------------------------------------------------------
     lambda___(   1 )=       0.473121   gamma___=       0.021220 meV   omega=      3.9727 meV
     lambda_tr(   1 )=       0.477272   gamma_tr=       0.021406 meV   omega=      3.9727 meV
     lambda___(   2 )=       0.473121   gamma___=       0.021220 meV   omega=      3.9727 meV
     lambda_tr(   2 )=       0.477272   gamma_tr=       0.021406 meV   omega=      3.9727 meV
     lambda___(   3 )=       0.018252   gamma___=       0.003676 meV   omega=      8.4186 meV
     lambda_tr(   3 )=       0.015068   gamma_tr=       0.003035 meV   omega=      8.4186 meV
     lambda___( tot )=       0.964494
     lambda_tr( tot )=       0.969612
     -------------------------------------------------------------------


     Number of (k,k+q) pairs on the Fermi surface:      216 out of      216


     ismear =     1 iq =      16 coord.:   0.00000  0.33333  0.50000 wt:   0.00463
     -------------------------------------------------------------------
     lambda___(   1 )=       0.033783   gamma___=       0.002200 meV   omega=      4.7874 meV
     lambda_tr(   1 )=       0.135824   gamma_tr=       0.008847 meV   omega=      4.7874 meV
     lambda___(   2 )=       0.014557   gamma___=       0.001331 meV   omega=      5.6726 meV
     lambda_tr(   2 )=      -0.003238   gamma_tr=      -0.000296 meV   omega=      5.6726 meV
     lambda___(   3 )=       0.009446   gamma___=       0.002112 meV   omega=      8.8695 meV
     lambda_tr(   3 )=      -0.001794   gamma_tr=      -0.000401 meV   omega=      8.8695 meV
     lambda___( tot )=       0.057786
     lambda_tr( tot )=       0.130792
     -------------------------------------------------------------------


     Number of (k,k+q) pairs on the Fermi surface:      216 out of      216


     ismear =     1 iq =      17 coord.:   0.00000  0.33333  0.66667 wt:   0.00463
     -------------------------------------------------------------------
     lambda___(   1 )=       0.098748   gamma___=       0.006766 meV   omega=      4.9101 meV
     lambda_tr(   1 )=       2.986228   gamma_tr=       0.204600 meV   omega=      4.9101 meV
     lambda___(   2 )=       0.106643   gamma___=       0.016728 meV   omega=      7.4294 meV
     lambda_tr(   2 )=       0.303984   gamma_tr=       0.047684 meV   omega=      7.4294 meV
     lambda___(   3 )=       0.111378   gamma___=       0.018572 meV   omega=      7.6599 meV
     lambda_tr(   3 )=       1.581079   gamma_tr=       0.263638 meV   omega=      7.6599 meV
     lambda___( tot )=       0.316769
     lambda_tr( tot )=       4.871291
     -------------------------------------------------------------------


     Number of (k,k+q) pairs on the Fermi surface:      216 out of      216


     ismear =     1 iq =      18 coord.:   0.00000  0.33333  0.83333 wt:   0.00463
     -------------------------------------------------------------------
     lambda___(   1 )=       0.048101   gamma___=       0.002437 meV   omega=      4.2226 meV
     lambda_tr(   1 )=       0.227251   gamma_tr=       0.011515 meV   omega=      4.2226 meV
     lambda___(   2 )=       0.035221   gamma___=       0.002625 meV   omega=      5.1214 meV
     lambda_tr(   2 )=      -0.056618   gamma_tr=      -0.004220 meV   omega=      5.1214 meV
     lambda___(   3 )=       0.008819   gamma___=       0.001624 meV   omega=      8.0496 meV
     lambda_tr(   3 )=      -0.011505   gamma_tr=      -0.002119 meV   omega=      8.0496 meV
     lambda___( tot )=       0.092140
     lambda_tr( tot )=       0.159128
     -------------------------------------------------------------------


     Number of (k,k+q) pairs on the Fermi surface:      216 out of      216


     ismear =     1 iq =      19 coord.:   0.00000  0.50000  0.00000 wt:   0.00463
     -------------------------------------------------------------------
     lambda___(   1 )=       0.000000   gamma___=       0.000000 meV   omega=      4.0697 meV
     lambda_tr(   1 )=       0.000000   gamma_tr=       0.000000 meV   omega=      4.0697 meV
     lambda___(   2 )=       0.000000   gamma___=       0.000000 meV   omega=      4.0697 meV
     lambda_tr(   2 )=       0.000000   gamma_tr=       0.000000 meV   omega=      4.0697 meV
     lambda___(   3 )=       0.000000   gamma___=       0.000000 meV   omega=      8.7711 meV
     lambda_tr(   3 )=       0.000000   gamma_tr=       0.000000 meV   omega=      8.7711 meV
     lambda___( tot )=       0.000000
     lambda_tr( tot )=       0.000000
     -------------------------------------------------------------------


     Number of (k,k+q) pairs on the Fermi surface:      216 out of      216


     ismear =     1 iq =      20 coord.:   0.00000  0.50000  0.16667 wt:   0.00463
     -------------------------------------------------------------------
     lambda___(   1 )=       0.237114   gamma___=       0.012663 meV   omega=      4.3349 meV
     lambda_tr(   1 )=       0.209157   gamma_tr=       0.011170 meV   omega=      4.3349 meV
     lambda___(   2 )=       0.062171   gamma___=       0.005033 meV   omega=      5.3373 meV
     lambda_tr(   2 )=      -0.095210   gamma_tr=      -0.007708 meV   omega=      5.3373 meV
     lambda___(   3 )=       0.119582   gamma___=       0.024248 meV   omega=      8.4470 meV
     lambda_tr(   3 )=      -0.245923   gamma_tr=      -0.049866 meV   omega=      8.4470 meV
     lambda___( tot )=       0.418868
     lambda_tr( tot )=      -0.131976
     -------------------------------------------------------------------


     Number of (k,k+q) pairs on the Fermi surface:      216 out of      216


     ismear =     1 iq =      21 coord.:   0.00000  0.50000  0.33333 wt:   0.00463
     -------------------------------------------------------------------
     lambda___(   1 )=       0.033783   gamma___=       0.002200 meV   omega=      4.7874 meV
     lambda_tr(   1 )=       0.135824   gamma_tr=       0.008847 meV   omega=      4.7874 meV
     lambda___(   2 )=       0.014557   gamma___=       0.001331 meV   omega=      5.6726 meV
     lambda_tr(   2 )=      -0.003238   gamma_tr=      -0.000296 meV   omega=      5.6726 meV
     lambda___(   3 )=       0.009446   gamma___=       0.002112 meV   omega=      8.8695 meV
     lambda_tr(   3 )=      -0.001794   gamma_tr=      -0.000401 meV   omega=      8.8695 meV
     lambda___( tot )=       0.057786
     lambda_tr( tot )=       0.130792
     -------------------------------------------------------------------


     Number of (k,k+q) pairs on the Fermi surface:      216 out of      216


     ismear =     1 iq =      22 coord.:   0.00000  0.50000  0.50000 wt:   0.00463
     -------------------------------------------------------------------
     lambda___(   1 )=       1.008792   gamma___=       0.071150 meV   omega=      4.9818 meV
     lambda_tr(   1 )=       7.202017   gamma_tr=       0.507959 meV   omega=      4.9818 meV
     lambda___(   2 )=       1.008792   gamma___=       0.071150 meV   omega=      4.9818 meV
     lambda_tr(   2 )=       7.202017   gamma_tr=       0.507959 meV   omega=      4.9818 meV
     lambda___(   3 )=       0.435686   gamma___=       0.112297 meV   omega=      9.5234 meV
     lambda_tr(   3 )=       2.787602   gamma_tr=       0.718495 meV   omega=      9.5234 meV
     lambda___( tot )=       2.453271
     lambda_tr( tot )=      17.191636
     -------------------------------------------------------------------


     Number of (k,k+q) pairs on the Fermi surface:      216 out of      216


     ismear =     1 iq =      23 coord.:   0.00000  0.50000  0.66667 wt:   0.00463
     -------------------------------------------------------------------
     lambda___(   1 )=       0.033783   gamma___=       0.002200 meV   omega=      4.7874 meV
     lambda_tr(   1 )=       0.135825   gamma_tr=       0.008847 meV   omega=      4.7874 meV
     lambda___(   2 )=       0.014557   gamma___=       0.001331 meV   omega=      5.6726 meV
     lambda_tr(   2 )=      -0.003238   gamma_tr=      -0.000296 meV   omega=      5.6726 meV
     lambda___(   3 )=       0.009446   gamma___=       0.002112 meV   omega=      8.8695 meV
     lambda_tr(   3 )=      -0.001794   gamma_tr=      -0.000401 meV   omega=      8.8695 meV
     lambda___( tot )=       0.057786
     lambda_tr( tot )=       0.130793
     -------------------------------------------------------------------


     Number of (k,k+q) pairs on the Fermi surface:      216 out of      216


     ismear =     1 iq =      24 coord.:   0.00000  0.50000  0.83333 wt:   0.00463
     -------------------------------------------------------------------
     lambda___(   1 )=       0.237017   gamma___=       0.012658 meV   omega=      4.3349 meV
     lambda_tr(   1 )=       0.209032   gamma_tr=       0.011163 meV   omega=      4.3349 meV
     lambda___(   2 )=       0.062167   gamma___=       0.005033 meV   omega=      5.3373 meV
     lambda_tr(   2 )=      -0.095201   gamma_tr=      -0.007707 meV   omega=      5.3373 meV
     lambda___(   3 )=       0.119600   gamma___=       0.024252 meV   omega=      8.4470 meV
     lambda_tr(   3 )=      -0.245896   gamma_tr=      -0.049861 meV   omega=      8.4470 meV
     lambda___( tot )=       0.418783
     lambda_tr( tot )=      -0.132065
     -------------------------------------------------------------------


     Number of (k,k+q) pairs on the Fermi surface:      216 out of      216


     ismear =     1 iq =      25 coord.:   0.00000  0.66667  0.00000 wt:   0.00463
     -------------------------------------------------------------------
     lambda___(   1 )=       0.165075   gamma___=       0.005383 meV   omega=      3.3875 meV
     lambda_tr(   1 )=      -7.022136   gamma_tr=      -0.228998 meV   omega=      3.3875 meV
     lambda___(   2 )=       0.165075   gamma___=       0.005383 meV   omega=      3.3875 meV
     lambda_tr(   2 )=      -7.022136   gamma_tr=      -0.228998 meV   omega=      3.3875 meV
     lambda___(   3 )=       0.112807   gamma___=       0.018140 meV   omega=      7.5222 meV
     lambda_tr(   3 )=      -2.173532   gamma_tr=      -0.349512 meV   omega=      7.5222 meV
     lambda___( tot )=       0.442957
     lambda_tr( tot )=     -16.217804
     -------------------------------------------------------------------


     Number of (k,k+q) pairs on the Fermi surface:      216 out of      216


     ismear =     1 iq =      26 coord.:   0.00000  0.66667  0.16667 wt:   0.00463
     -------------------------------------------------------------------
     lambda___(   1 )=       0.048100   gamma___=       0.002437 meV   omega=      4.2226 meV
     lambda_tr(   1 )=       0.227251   gamma_tr=       0.011515 meV   omega=      4.2226 meV
     lambda___(   2 )=       0.035221   gamma___=       0.002625 meV   omega=      5.1214 meV
     lambda_tr(   2 )=      -0.056617   gamma_tr=      -0.004220 meV   omega=      5.1214 meV
     lambda___(   3 )=       0.008819   gamma___=       0.001624 meV   omega=      8.0496 meV
     lambda_tr(   3 )=      -0.011505   gamma_tr=      -0.002119 meV   omega=      8.0496 meV
     lambda___( tot )=       0.092140
     lambda_tr( tot )=       0.159128
     -------------------------------------------------------------------


     Number of (k,k+q) pairs on the Fermi surface:      216 out of      216


     ismear =     1 iq =      27 coord.:   0.00000  0.66667  0.33333 wt:   0.00463
     -------------------------------------------------------------------
     lambda___(   1 )=       0.098748   gamma___=       0.006766 meV   omega=      4.9101 meV
     lambda_tr(   1 )=       2.986228   gamma_tr=       0.204600 meV   omega=      4.9101 meV
     lambda___(   2 )=       0.106643   gamma___=       0.016728 meV   omega=      7.4294 meV
     lambda_tr(   2 )=       0.303985   gamma_tr=       0.047684 meV   omega=      7.4294 meV
     lambda___(   3 )=       0.111379   gamma___=       0.018572 meV   omega=      7.6599 meV
     lambda_tr(   3 )=       1.581079   gamma_tr=       0.263638 meV   omega=      7.6599 meV
     lambda___( tot )=       0.316770
     lambda_tr( tot )=       4.871292
     -------------------------------------------------------------------


     Number of (k,k+q) pairs on the Fermi surface:      216 out of      216


     ismear =     1 iq =      28 coord.:   0.00000  0.66667  0.50000 wt:   0.00463
     -------------------------------------------------------------------
     lambda___(   1 )=       0.033783   gamma___=       0.002200 meV   omega=      4.7874 meV
     lambda_tr(   1 )=       0.135825   gamma_tr=       0.008847 meV   omega=      4.7874 meV
     lambda___(   2 )=       0.014557   gamma___=       0.001331 meV   omega=      5.6726 meV
     lambda_tr(   2 )=      -0.003238   gamma_tr=      -0.000296 meV   omega=      5.6726 meV
     lambda___(   3 )=       0.009446   gamma___=       0.002112 meV   omega=      8.8695 meV
     lambda_tr(   3 )=      -0.001794   gamma_tr=      -0.000401 meV   omega=      8.8695 meV
     lambda___( tot )=       0.057786
     lambda_tr( tot )=       0.130793
     -------------------------------------------------------------------


     Number of (k,k+q) pairs on the Fermi surface:      216 out of      216


     ismear =     1 iq =      29 coord.:   0.00000  0.66667  0.66667 wt:   0.00463
     -------------------------------------------------------------------
     lambda___(   1 )=       0.473122   gamma___=       0.021220 meV   omega=      3.9727 meV
     lambda_tr(   1 )=       0.477273   gamma_tr=       0.021406 meV   omega=      3.9727 meV
     lambda___(   2 )=       0.473122   gamma___=       0.021220 meV   omega=      3.9727 meV
     lambda_tr(   2 )=       0.477273   gamma_tr=       0.021406 meV   omega=      3.9727 meV
     lambda___(   3 )=       0.018252   gamma___=       0.003676 meV   omega=      8.4186 meV
     lambda_tr(   3 )=       0.015068   gamma_tr=       0.003035 meV   omega=      8.4186 meV
     lambda___( tot )=       0.964496
     lambda_tr( tot )=       0.969614
     -------------------------------------------------------------------


     Number of (k,k+q) pairs on the Fermi surface:      216 out of      216


     ismear =     1 iq =      30 coord.:   0.00000  0.66667  0.83333 wt:   0.00463
     -------------------------------------------------------------------
     lambda___(   1 )=       0.012398   gamma___=       0.000374 meV   omega=      3.2582 meV
     lambda_tr(   1 )=       0.063749   gamma_tr=       0.001923 meV   omega=      3.2582 meV
     lambda___(   2 )=       0.028866   gamma___=       0.001173 meV   omega=      3.7812 meV
     lambda_tr(   2 )=       0.145854   gamma_tr=       0.005926 meV   omega=      3.7812 meV
     lambda___(   3 )=       0.007056   gamma___=       0.001051 meV   omega=      7.2397 meV
     lambda_tr(   3 )=      -0.014526   gamma_tr=      -0.002164 meV   omega=      7.2397 meV
     lambda___( tot )=       0.048319
     lambda_tr( tot )=       0.195077
     -------------------------------------------------------------------


     Number of (k,k+q) pairs on the Fermi surface:      216 out of      216


     ismear =     1 iq =      31 coord.:   0.00000  0.83333  0.00000 wt:   0.00463
     -------------------------------------------------------------------
     lambda___(   1 )=       0.026709   gamma___=       0.000242 meV   omega=      1.7871 meV
     lambda_tr(   1 )=       0.026747   gamma_tr=       0.000243 meV   omega=      1.7871 meV
     lambda___(   2 )=       0.026709   gamma___=       0.000242 meV   omega=      1.7871 meV
     lambda_tr(   2 )=       0.026747   gamma_tr=       0.000243 meV   omega=      1.7871 meV
     lambda___(   3 )=       0.025473   gamma___=       0.001312 meV   omega=      4.2564 meV
     lambda_tr(   3 )=       0.025328   gamma_tr=       0.001304 meV   omega=      4.2564 meV
     lambda___( tot )=       0.078891
     lambda_tr( tot )=       0.078822
     -------------------------------------------------------------------


     Number of (k,k+q) pairs on the Fermi surface:      216 out of      216


     ismear =     1 iq =      32 coord.:   0.00000  0.83333  0.16667 wt:   0.00463
     -------------------------------------------------------------------
     lambda___(   1 )=      -0.846968   gamma___=      -0.022807 meV   omega=      3.0782 meV
     lambda_tr(   1 )=      -1.707174   gamma_tr=      -0.045970 meV   omega=      3.0782 meV
     lambda___(   2 )=       0.566605   gamma___=       0.017150 meV   omega=      3.2635 meV
     lambda_tr(   2 )=      -0.426543   gamma_tr=      -0.012911 meV   omega=      3.2635 meV
     lambda___(   3 )=       0.039579   gamma___=       0.004461 meV   omega=      6.2976 meV
     lambda_tr(   3 )=       0.005894   gamma_tr=       0.000664 meV   omega=      6.2976 meV
     lambda___( tot )=      -0.240784
     lambda_tr( tot )=      -2.127823
     -------------------------------------------------------------------


     Number of (k,k+q) pairs on the Fermi surface:      216 out of      216


     ismear =     1 iq =      33 coord.:   0.00000  0.83333  0.33333 wt:   0.00463
     -------------------------------------------------------------------
     lambda___(   1 )=       0.048101   gamma___=       0.002437 meV   omega=      4.2226 meV
     lambda_tr(   1 )=       0.227251   gamma_tr=       0.011515 meV   omega=      4.2226 meV
     lambda___(   2 )=       0.035221   gamma___=       0.002625 meV   omega=      5.1214 meV
     lambda_tr(   2 )=      -0.056618   gamma_tr=      -0.004220 meV   omega=      5.1214 meV
     lambda___(   3 )=       0.008819   gamma___=       0.001624 meV   omega=      8.0496 meV
     lambda_tr(   3 )=      -0.011505   gamma_tr=      -0.002119 meV   omega=      8.0496 meV
     lambda___( tot )=       0.092140
     lambda_tr( tot )=       0.159128
     -------------------------------------------------------------------


     Number of (k,k+q) pairs on the Fermi surface:      216 out of      216


     ismear =     1 iq =      34 coord.:   0.00000  0.83333  0.50000 wt:   0.00463
     -------------------------------------------------------------------
     lambda___(   1 )=       0.237017   gamma___=       0.012658 meV   omega=      4.3349 meV
     lambda_tr(   1 )=       0.209032   gamma_tr=       0.011163 meV   omega=      4.3349 meV
     lambda___(   2 )=       0.062167   gamma___=       0.005033 meV   omega=      5.3373 meV
     lambda_tr(   2 )=      -0.095201   gamma_tr=      -0.007707 meV   omega=      5.3373 meV
     lambda___(   3 )=       0.119600   gamma___=       0.024252 meV   omega=      8.4470 meV
     lambda_tr(   3 )=      -0.245896   gamma_tr=      -0.049861 meV   omega=      8.4470 meV
     lambda___( tot )=       0.418783
     lambda_tr( tot )=      -0.132065
     -------------------------------------------------------------------


     Number of (k,k+q) pairs on the Fermi surface:      216 out of      216


     ismear =     1 iq =      35 coord.:   0.00000  0.83333  0.66667 wt:   0.00463
     -------------------------------------------------------------------
     lambda___(   1 )=       0.012398   gamma___=       0.000374 meV   omega=      3.2582 meV
     lambda_tr(   1 )=       0.063748   gamma_tr=       0.001923 meV   omega=      3.2582 meV
     lambda___(   2 )=       0.028866   gamma___=       0.001173 meV   omega=      3.7812 meV
     lambda_tr(   2 )=       0.145855   gamma_tr=       0.005927 meV   omega=      3.7812 meV
     lambda___(   3 )=       0.007056   gamma___=       0.001051 meV   omega=      7.2397 meV
     lambda_tr(   3 )=      -0.014526   gamma_tr=      -0.002164 meV   omega=      7.2397 meV
     lambda___( tot )=       0.048319
     lambda_tr( tot )=       0.195077
     -------------------------------------------------------------------


     Number of (k,k+q) pairs on the Fermi surface:      216 out of      216


     ismear =     1 iq =      36 coord.:   0.00000  0.83333  0.83333 wt:   0.00463
     -------------------------------------------------------------------
     lambda___(   1 )=       0.067310   gamma___=       0.000645 meV   omega=      1.8366 meV
     lambda_tr(   1 )=       0.166677   gamma_tr=       0.001598 meV   omega=      1.8366 meV
     lambda___(   2 )=       0.067310   gamma___=       0.000645 meV   omega=      1.8366 meV
     lambda_tr(   2 )=       0.166677   gamma_tr=       0.001598 meV   omega=      1.8366 meV
     lambda___(   3 )=       0.162146   gamma___=       0.011762 meV   omega=      5.0522 meV
     lambda_tr(   3 )=       0.067045   gamma_tr=       0.004863 meV   omega=      5.0522 meV
     lambda___( tot )=       0.296767
     lambda_tr( tot )=       0.400398
     -------------------------------------------------------------------


     Number of (k,k+q) pairs on the Fermi surface:      216 out of      216


     ismear =     1 iq =      37 coord.:   0.16667  0.00000  0.00000 wt:   0.00463
     -------------------------------------------------------------------
     lambda___(   1 )=       0.026709   gamma___=       0.000242 meV   omega=      1.7871 meV
     lambda_tr(   1 )=       0.026747   gamma_tr=       0.000243 meV   omega=      1.7871 meV
     lambda___(   2 )=       0.026709   gamma___=       0.000242 meV   omega=      1.7871 meV
     lambda_tr(   2 )=       0.026747   gamma_tr=       0.000243 meV   omega=      1.7871 meV
     lambda___(   3 )=       0.025473   gamma___=       0.001312 meV   omega=      4.2564 meV
     lambda_tr(   3 )=       0.025328   gamma_tr=       0.001304 meV   omega=      4.2564 meV
     lambda___( tot )=       0.078891
     lambda_tr( tot )=       0.078822
     -------------------------------------------------------------------


     Number of (k,k+q) pairs on the Fermi surface:      216 out of      216


     ismear =     1 iq =      38 coord.:   0.16667  0.00000  0.16667 wt:   0.00463
     -------------------------------------------------------------------
     lambda___(   1 )=       0.067310   gamma___=       0.000645 meV   omega=      1.8366 meV
     lambda_tr(   1 )=       0.166677   gamma_tr=       0.001598 meV   omega=      1.8366 meV
     lambda___(   2 )=       0.067310   gamma___=       0.000645 meV   omega=      1.8366 meV
     lambda_tr(   2 )=       0.166677   gamma_tr=       0.001598 meV   omega=      1.8366 meV
     lambda___(   3 )=       0.162147   gamma___=       0.011762 meV   omega=      5.0522 meV
     lambda_tr(   3 )=       0.067045   gamma_tr=       0.004863 meV   omega=      5.0522 meV
     lambda___( tot )=       0.296768
     lambda_tr( tot )=       0.400398
     -------------------------------------------------------------------


     Number of (k,k+q) pairs on the Fermi surface:      216 out of      216


     ismear =     1 iq =      39 coord.:   0.16667  0.00000  0.33333 wt:   0.00463
     -------------------------------------------------------------------
     lambda___(   1 )=       0.012397   gamma___=       0.000374 meV   omega=      3.2582 meV
     lambda_tr(   1 )=       0.063749   gamma_tr=       0.001923 meV   omega=      3.2582 meV
     lambda___(   2 )=       0.028866   gamma___=       0.001173 meV   omega=      3.7812 meV
     lambda_tr(   2 )=       0.145855   gamma_tr=       0.005927 meV   omega=      3.7812 meV
     lambda___(   3 )=       0.007055   gamma___=       0.001051 meV   omega=      7.2397 meV
     lambda_tr(   3 )=      -0.014526   gamma_tr=      -0.002164 meV   omega=      7.2397 meV
     lambda___( tot )=       0.048319
     lambda_tr( tot )=       0.195077
     -------------------------------------------------------------------


     Number of (k,k+q) pairs on the Fermi surface:      216 out of      216


     ismear =     1 iq =      40 coord.:   0.16667  0.00000  0.50000 wt:   0.00463
     -------------------------------------------------------------------
     lambda___(   1 )=       0.237114   gamma___=       0.012663 meV   omega=      4.3349 meV
     lambda_tr(   1 )=       0.209157   gamma_tr=       0.011170 meV   omega=      4.3349 meV
     lambda___(   2 )=       0.062171   gamma___=       0.005033 meV   omega=      5.3373 meV
     lambda_tr(   2 )=      -0.095210   gamma_tr=      -0.007708 meV   omega=      5.3373 meV
     lambda___(   3 )=       0.119582   gamma___=       0.024248 meV   omega=      8.4470 meV
     lambda_tr(   3 )=      -0.245923   gamma_tr=      -0.049866 meV   omega=      8.4470 meV
     lambda___( tot )=       0.418868
     lambda_tr( tot )=      -0.131975
     -------------------------------------------------------------------


     Number of (k,k+q) pairs on the Fermi surface:      216 out of      216


     ismear =     1 iq =      41 coord.:   0.16667  0.00000  0.66667 wt:   0.00463
     -------------------------------------------------------------------
     lambda___(   1 )=       0.048100   gamma___=       0.002437 meV   omega=      4.2226 meV
     lambda_tr(   1 )=       0.227251   gamma_tr=       0.011515 meV   omega=      4.2226 meV
     lambda___(   2 )=       0.035221   gamma___=       0.002625 meV   omega=      5.1214 meV
     lambda_tr(   2 )=      -0.056617   gamma_tr=      -0.004220 meV   omega=      5.1214 meV
     lambda___(   3 )=       0.008819   gamma___=       0.001624 meV   omega=      8.0496 meV
     lambda_tr(   3 )=      -0.011505   gamma_tr=      -0.002119 meV   omega=      8.0496 meV
     lambda___( tot )=       0.092140
     lambda_tr( tot )=       0.159128
     -------------------------------------------------------------------


     Number of (k,k+q) pairs on the Fermi surface:      216 out of      216


     ismear =     1 iq =      42 coord.:   0.16667  0.00000  0.83333 wt:   0.00463
     -------------------------------------------------------------------
     lambda___(   1 )=      -0.846970   gamma___=      -0.022807 meV   omega=      3.0782 meV
     lambda_tr(   1 )=      -1.707176   gamma_tr=      -0.045970 meV   omega=      3.0782 meV
     lambda___(   2 )=       0.566604   gamma___=       0.017150 meV   omega=      3.2635 meV
     lambda_tr(   2 )=      -0.426544   gamma_tr=      -0.012911 meV   omega=      3.2635 meV
     lambda___(   3 )=       0.039580   gamma___=       0.004461 meV   omega=      6.2976 meV
     lambda_tr(   3 )=       0.005895   gamma_tr=       0.000664 meV   omega=      6.2976 meV
     lambda___( tot )=      -0.240786
     lambda_tr( tot )=      -2.127825
     -------------------------------------------------------------------


     Number of (k,k+q) pairs on the Fermi surface:      216 out of      216


     ismear =     1 iq =      43 coord.:   0.16667  0.16667  0.00000 wt:   0.00463
     -------------------------------------------------------------------
     lambda___(   1 )=       0.073100   gamma___=       0.000701 meV   omega=      1.8366 meV
     lambda_tr(   1 )=       0.170106   gamma_tr=       0.001631 meV   omega=      1.8366 meV
     lambda___(   2 )=       0.073100   gamma___=       0.000701 meV   omega=      1.8366 meV
     lambda_tr(   2 )=       0.170106   gamma_tr=       0.001631 meV   omega=      1.8366 meV
     lambda___(   3 )=       0.165707   gamma___=       0.012020 meV   omega=      5.0522 meV
     lambda_tr(   3 )=       0.067610   gamma_tr=       0.004904 meV   omega=      5.0522 meV
     lambda___( tot )=       0.311907
     lambda_tr( tot )=       0.407821
     -------------------------------------------------------------------


     Number of (k,k+q) pairs on the Fermi surface:      216 out of      216


     ismear =     1 iq =      44 coord.:   0.16667  0.16667  0.16667 wt:   0.00463
     -------------------------------------------------------------------
     lambda___(   1 )=       0.026709   gamma___=       0.000242 meV   omega=      1.7871 meV
     lambda_tr(   1 )=       0.026747   gamma_tr=       0.000243 meV   omega=      1.7871 meV
     lambda___(   2 )=       0.026709   gamma___=       0.000242 meV   omega=      1.7871 meV
     lambda_tr(   2 )=       0.026747   gamma_tr=       0.000243 meV   omega=      1.7871 meV
     lambda___(   3 )=       0.025473   gamma___=       0.001312 meV   omega=      4.2564 meV
     lambda_tr(   3 )=       0.025328   gamma_tr=       0.001304 meV   omega=      4.2564 meV
     lambda___( tot )=       0.078891
     lambda_tr( tot )=       0.078822
     -------------------------------------------------------------------


     Number of (k,k+q) pairs on the Fermi surface:      216 out of      216


     ismear =     1 iq =      45 coord.:   0.16667  0.16667  0.33333 wt:   0.00463
     -------------------------------------------------------------------
     lambda___(   1 )=      -0.853783   gamma___=      -0.022990 meV   omega=      3.0782 meV
     lambda_tr(   1 )=      -1.713518   gamma_tr=      -0.046141 meV   omega=      3.0782 meV
     lambda___(   2 )=       0.576744   gamma___=       0.017457 meV   omega=      3.2635 meV
     lambda_tr(   2 )=      -0.410906   gamma_tr=      -0.012437 meV   omega=      3.2635 meV
     lambda___(   3 )=       0.040606   gamma___=       0.004577 meV   omega=      6.2976 meV
     lambda_tr(   3 )=       0.006884   gamma_tr=       0.000776 meV   omega=      6.2976 meV
     lambda___( tot )=      -0.236433
     lambda_tr( tot )=      -2.117540
     -------------------------------------------------------------------


     Number of (k,k+q) pairs on the Fermi surface:      216 out of      216


     ismear =     1 iq =      46 coord.:   0.16667  0.16667  0.50000 wt:   0.00463
     -------------------------------------------------------------------
     lambda___(   1 )=       0.048392   gamma___=       0.002452 meV   omega=      4.2226 meV
     lambda_tr(   1 )=       0.228923   gamma_tr=       0.011600 meV   omega=      4.2226 meV
     lambda___(   2 )=       0.035453   gamma___=       0.002643 meV   omega=      5.1214 meV
     lambda_tr(   2 )=      -0.057297   gamma_tr=      -0.004271 meV   omega=      5.1214 meV
     lambda___(   3 )=       0.008886   gamma___=       0.001636 meV   omega=      8.0496 meV
     lambda_tr(   3 )=      -0.011633   gamma_tr=      -0.002142 meV   omega=      8.0496 meV
     lambda___( tot )=       0.092731
     lambda_tr( tot )=       0.159993
     -------------------------------------------------------------------


     Number of (k,k+q) pairs on the Fermi surface:      216 out of      216


     ismear =     1 iq =      47 coord.:   0.16667  0.16667  0.66667 wt:   0.00463
     -------------------------------------------------------------------
     lambda___(   1 )=       0.233573   gamma___=       0.012474 meV   omega=      4.3349 meV
     lambda_tr(   1 )=       0.198219   gamma_tr=       0.010586 meV   omega=      4.3349 meV
     lambda___(   2 )=       0.062967   gamma___=       0.005098 meV   omega=      5.3373 meV
     lambda_tr(   2 )=      -0.096669   gamma_tr=      -0.007826 meV   omega=      5.3373 meV
     lambda___(   3 )=       0.118564   gamma___=       0.024041 meV   omega=      8.4470 meV
     lambda_tr(   3 )=      -0.250196   gamma_tr=      -0.050733 meV   omega=      8.4470 meV
     lambda___( tot )=       0.415104
     lambda_tr( tot )=      -0.148646
     -------------------------------------------------------------------


     Number of (k,k+q) pairs on the Fermi surface:      216 out of      216


     ismear =     1 iq =      48 coord.:   0.16667  0.16667  0.83333 wt:   0.00463
     -------------------------------------------------------------------
     lambda___(   1 )=       0.012434   gamma___=       0.000375 meV   omega=      3.2582 meV
     lambda_tr(   1 )=       0.063841   gamma_tr=       0.001926 meV   omega=      3.2582 meV
     lambda___(   2 )=       0.029001   gamma___=       0.001178 meV   omega=      3.7812 meV
     lambda_tr(   2 )=       0.146197   gamma_tr=       0.005940 meV   omega=      3.7812 meV
     lambda___(   3 )=       0.007097   gamma___=       0.001057 meV   omega=      7.2397 meV
     lambda_tr(   3 )=      -0.014662   gamma_tr=      -0.002184 meV   omega=      7.2397 meV
     lambda___( tot )=       0.048532
     lambda_tr( tot )=       0.195377
     -------------------------------------------------------------------


     Number of (k,k+q) pairs on the Fermi surface:      216 out of      216


     ismear =     1 iq =      49 coord.:   0.16667  0.33333  0.00000 wt:   0.00463
     -------------------------------------------------------------------
     lambda___(   1 )=       0.012434   gamma___=       0.000375 meV   omega=      3.2582 meV
     lambda_tr(   1 )=       0.063844   gamma_tr=       0.001926 meV   omega=      3.2582 meV
     lambda___(   2 )=       0.029001   gamma___=       0.001178 meV   omega=      3.7812 meV
     lambda_tr(   2 )=       0.146199   gamma_tr=       0.005940 meV   omega=      3.7812 meV
     lambda___(   3 )=       0.007097   gamma___=       0.001057 meV   omega=      7.2397 meV
     lambda_tr(   3 )=      -0.014662   gamma_tr=      -0.002184 meV   omega=      7.2397 meV
     lambda___( tot )=       0.048532
     lambda_tr( tot )=       0.195381
     -------------------------------------------------------------------


     Number of (k,k+q) pairs on the Fermi surface:      216 out of      216


     ismear =     1 iq =      50 coord.:   0.16667  0.33333  0.16667 wt:   0.00463
     -------------------------------------------------------------------
     lambda___(   1 )=      -0.846970   gamma___=      -0.022807 meV   omega=      3.0782 meV
     lambda_tr(   1 )=      -1.707176   gamma_tr=      -0.045970 meV   omega=      3.0782 meV
     lambda___(   2 )=       0.566604   gamma___=       0.017150 meV   omega=      3.2635 meV
     lambda_tr(   2 )=      -0.426544   gamma_tr=      -0.012911 meV   omega=      3.2635 meV
     lambda___(   3 )=       0.039579   gamma___=       0.004461 meV   omega=      6.2976 meV
     lambda_tr(   3 )=       0.005894   gamma_tr=       0.000664 meV   omega=      6.2976 meV
     lambda___( tot )=      -0.240786
     lambda_tr( tot )=      -2.127826
     -------------------------------------------------------------------


     Number of (k,k+q) pairs on the Fermi surface:      216 out of      216


     ismear =     1 iq =      51 coord.:   0.16667  0.33333  0.33333 wt:   0.00463
     -------------------------------------------------------------------
     lambda___(   1 )=       0.012398   gamma___=       0.000374 meV   omega=      3.2582 meV
     lambda_tr(   1 )=       0.063751   gamma_tr=       0.001923 meV   omega=      3.2582 meV
     lambda___(   2 )=       0.028866   gamma___=       0.001173 meV   omega=      3.7812 meV
     lambda_tr(   2 )=       0.145858   gamma_tr=       0.005927 meV   omega=      3.7812 meV
     lambda___(   3 )=       0.007056   gamma___=       0.001051 meV   omega=      7.2397 meV
     lambda_tr(   3 )=      -0.014526   gamma_tr=      -0.002164 meV   omega=      7.2397 meV
     lambda___( tot )=       0.048320
     lambda_tr( tot )=       0.195083
     -------------------------------------------------------------------


     Number of (k,k+q) pairs on the Fermi surface:      216 out of      216


     ismear =     1 iq =      52 coord.:   0.16667  0.33333  0.50000 wt:   0.00463
     -------------------------------------------------------------------
     lambda___(   1 )=      -0.182842   gamma___=      -0.010889 meV   omega=      4.5777 meV
     lambda_tr(   1 )=      -0.289719   gamma_tr=      -0.017253 meV   omega=      4.5777 meV
     lambda___(   2 )=       0.416989   gamma___=       0.034994 meV   omega=      5.4341 meV
     lambda_tr(   2 )=      -1.129336   gamma_tr=      -0.094775 meV   omega=      5.4341 meV
     lambda___(   3 )=       0.138753   gamma___=       0.026001 meV   omega=      8.1203 meV
     lambda_tr(   3 )=       0.555457   gamma_tr=       0.104088 meV   omega=      8.1203 meV
     lambda___( tot )=       0.372900
     lambda_tr( tot )=      -0.863598
     -------------------------------------------------------------------


     Number of (k,k+q) pairs on the Fermi surface:      216 out of      216


     ismear =     1 iq =      53 coord.:   0.16667  0.33333  0.66667 wt:   0.00463
     -------------------------------------------------------------------
     lambda___(   1 )=       0.006016   gamma___=       0.000452 meV   omega=      5.1442 meV
     lambda_tr(   1 )=       0.016846   gamma_tr=       0.001267 meV   omega=      5.1442 meV
     lambda___(   2 )=       0.004797   gamma___=       0.000645 meV   omega=      6.8777 meV
     lambda_tr(   2 )=      -0.002343   gamma_tr=      -0.000315 meV   omega=      6.8777 meV
     lambda___(   3 )=       0.017295   gamma___=       0.003156 meV   omega=      8.0133 meV
     lambda_tr(   3 )=       0.079640   gamma_tr=       0.014533 meV   omega=      8.0133 meV
     lambda___( tot )=       0.028109
     lambda_tr( tot )=       0.094143
     -------------------------------------------------------------------


     Number of (k,k+q) pairs on the Fermi surface:      216 out of      216


     ismear =     1 iq =      54 coord.:   0.16667  0.33333  0.83333 wt:   0.00463
     -------------------------------------------------------------------
     lambda___(   1 )=      -0.185006   gamma___=      -0.011018 meV   omega=      4.5777 meV
     lambda_tr(   1 )=      -0.289933   gamma_tr=      -0.017266 meV   omega=      4.5777 meV
     lambda___(   2 )=       0.419070   gamma___=       0.035169 meV   omega=      5.4341 meV
     lambda_tr(   2 )=      -1.113886   gamma_tr=      -0.093478 meV   omega=      5.4341 meV
     lambda___(   3 )=       0.137819   gamma___=       0.025826 meV   omega=      8.1203 meV
     lambda_tr(   3 )=       0.557471   gamma_tr=       0.104465 meV   omega=      8.1203 meV
     lambda___( tot )=       0.371884
     lambda_tr( tot )=      -0.846348
     -------------------------------------------------------------------


     Number of (k,k+q) pairs on the Fermi surface:      216 out of      216


     ismear =     1 iq =      55 coord.:   0.16667  0.50000  0.00000 wt:   0.00463
     -------------------------------------------------------------------
     lambda___(   1 )=       0.233721   gamma___=       0.012482 meV   omega=      4.3349 meV
     lambda_tr(   1 )=       0.198387   gamma_tr=       0.010595 meV   omega=      4.3349 meV
     lambda___(   2 )=       0.062959   gamma___=       0.005097 meV   omega=      5.3373 meV
     lambda_tr(   2 )=      -0.096697   gamma_tr=      -0.007828 meV   omega=      5.3373 meV
     lambda___(   3 )=       0.118541   gamma___=       0.024037 meV   omega=      8.4470 meV
     lambda_tr(   3 )=      -0.250233   gamma_tr=      -0.050740 meV   omega=      8.4470 meV
     lambda___( tot )=       0.415221
     lambda_tr( tot )=      -0.148543
     -------------------------------------------------------------------


     Number of (k,k+q) pairs on the Fermi surface:      216 out of      216


     ismear =     1 iq =      56 coord.:   0.16667  0.50000  0.16667 wt:   0.00463
     -------------------------------------------------------------------
     lambda___(   1 )=       0.048101   gamma___=       0.002437 meV   omega=      4.2226 meV
     lambda_tr(   1 )=       0.227251   gamma_tr=       0.011515 meV   omega=      4.2226 meV
     lambda___(   2 )=       0.035221   gamma___=       0.002625 meV   omega=      5.1214 meV
     lambda_tr(   2 )=      -0.056618   gamma_tr=      -0.004220 meV   omega=      5.1214 meV
     lambda___(   3 )=       0.008819   gamma___=       0.001624 meV   omega=      8.0496 meV
     lambda_tr(   3 )=      -0.011505   gamma_tr=      -0.002119 meV   omega=      8.0496 meV
     lambda___( tot )=       0.092140
     lambda_tr( tot )=       0.159128
     -------------------------------------------------------------------


     Number of (k,k+q) pairs on the Fermi surface:      216 out of      216


     ismear =     1 iq =      57 coord.:   0.16667  0.50000  0.33333 wt:   0.00463
     -------------------------------------------------------------------
     lambda___(   1 )=      -0.181879   gamma___=      -0.010831 meV   omega=      4.5777 meV
     lambda_tr(   1 )=      -0.292884   gamma_tr=      -0.017442 meV   omega=      4.5777 meV
     lambda___(   2 )=       0.416222   gamma___=       0.034930 meV   omega=      5.4341 meV
     lambda_tr(   2 )=      -1.117640   gamma_tr=      -0.093793 meV   omega=      5.4341 meV
     lambda___(   3 )=       0.139624   gamma___=       0.026164 meV   omega=      8.1203 meV
     lambda_tr(   3 )=       0.558638   gamma_tr=       0.104684 meV   omega=      8.1203 meV
     lambda___( tot )=       0.373967
     lambda_tr( tot )=      -0.851886
     -------------------------------------------------------------------


     Number of (k,k+q) pairs on the Fermi surface:      216 out of      216


     ismear =     1 iq =      58 coord.:   0.16667  0.50000  0.50000 wt:   0.00463
     -------------------------------------------------------------------
     lambda___(   1 )=       0.033783   gamma___=       0.002200 meV   omega=      4.7874 meV
     lambda_tr(   1 )=       0.135825   gamma_tr=       0.008847 meV   omega=      4.7874 meV
     lambda___(   2 )=       0.014557   gamma___=       0.001331 meV   omega=      5.6726 meV
     lambda_tr(   2 )=      -0.003238   gamma_tr=      -0.000296 meV   omega=      5.6726 meV
     lambda___(   3 )=       0.009446   gamma___=       0.002112 meV   omega=      8.8695 meV
     lambda_tr(   3 )=      -0.001794   gamma_tr=      -0.000401 meV   omega=      8.8695 meV
     lambda___( tot )=       0.057786
     lambda_tr( tot )=       0.130793
     -------------------------------------------------------------------


     Number of (k,k+q) pairs on the Fermi surface:      216 out of      216


     ismear =     1 iq =      59 coord.:   0.16667  0.50000  0.66667 wt:   0.00463
     -------------------------------------------------------------------
     lambda___(   1 )=       0.034486   gamma___=       0.002974 meV   omega=      5.5086 meV
     lambda_tr(   1 )=       0.037720   gamma_tr=       0.003253 meV   omega=      5.5086 meV
     lambda___(   2 )=       0.061398   gamma___=       0.007177 meV   omega=      6.4134 meV
     lambda_tr(   2 )=       0.059353   gamma_tr=       0.006938 meV   omega=      6.4134 meV
     lambda___(   3 )=       0.092343   gamma___=       0.019438 meV   omega=      8.6064 meV
     lambda_tr(   3 )=       0.101035   gamma_tr=       0.021268 meV   omega=      8.6064 meV
     lambda___( tot )=       0.188227
     lambda_tr( tot )=       0.198108
     -------------------------------------------------------------------


     Number of (k,k+q) pairs on the Fermi surface:      216 out of      216


     ismear =     1 iq =      60 coord.:   0.16667  0.50000  0.83333 wt:   0.00463
     -------------------------------------------------------------------
     lambda___(   1 )=       0.006016   gamma___=       0.000452 meV   omega=      5.1442 meV
     lambda_tr(   1 )=       0.016844   gamma_tr=       0.001267 meV   omega=      5.1442 meV
     lambda___(   2 )=       0.004797   gamma___=       0.000645 meV   omega=      6.8777 meV
     lambda_tr(   2 )=      -0.002343   gamma_tr=      -0.000315 meV   omega=      6.8777 meV
     lambda___(   3 )=       0.017296   gamma___=       0.003156 meV   omega=      8.0133 meV
     lambda_tr(   3 )=       0.079640   gamma_tr=       0.014533 meV   omega=      8.0133 meV
     lambda___( tot )=       0.028109
     lambda_tr( tot )=       0.094142
     -------------------------------------------------------------------


     Number of (k,k+q) pairs on the Fermi surface:      216 out of      216


     ismear =     1 iq =      61 coord.:   0.16667  0.66667  0.00000 wt:   0.00463
     -------------------------------------------------------------------
     lambda___(   1 )=       0.048391   gamma___=       0.002452 meV   omega=      4.2226 meV
     lambda_tr(   1 )=       0.228922   gamma_tr=       0.011600 meV   omega=      4.2226 meV
     lambda___(   2 )=       0.035453   gamma___=       0.002643 meV   omega=      5.1214 meV
     lambda_tr(   2 )=      -0.057297   gamma_tr=      -0.004271 meV   omega=      5.1214 meV
     lambda___(   3 )=       0.008886   gamma___=       0.001636 meV   omega=      8.0496 meV
     lambda_tr(   3 )=      -0.011633   gamma_tr=      -0.002142 meV   omega=      8.0496 meV
     lambda___( tot )=       0.092731
     lambda_tr( tot )=       0.159992
     -------------------------------------------------------------------


     Number of (k,k+q) pairs on the Fermi surface:      216 out of      216


     ismear =     1 iq =      62 coord.:   0.16667  0.66667  0.16667 wt:   0.00463
     -------------------------------------------------------------------
     lambda___(   1 )=       0.237016   gamma___=       0.012658 meV   omega=      4.3349 meV
     lambda_tr(   1 )=       0.209032   gamma_tr=       0.011163 meV   omega=      4.3349 meV
     lambda___(   2 )=       0.062167   gamma___=       0.005033 meV   omega=      5.3373 meV
     lambda_tr(   2 )=      -0.095201   gamma_tr=      -0.007707 meV   omega=      5.3373 meV
     lambda___(   3 )=       0.119600   gamma___=       0.024252 meV   omega=      8.4470 meV
     lambda_tr(   3 )=      -0.245896   gamma_tr=      -0.049861 meV   omega=      8.4470 meV
     lambda___( tot )=       0.418782
     lambda_tr( tot )=      -0.132065
     -------------------------------------------------------------------


     Number of (k,k+q) pairs on the Fermi surface:      216 out of      216


     ismear =     1 iq =      63 coord.:   0.16667  0.66667  0.33333 wt:   0.00463
     -------------------------------------------------------------------
     lambda___(   1 )=       0.006086   gamma___=       0.000458 meV   omega=      5.1442 meV
     lambda_tr(   1 )=       0.017262   gamma_tr=       0.001298 meV   omega=      5.1442 meV
     lambda___(   2 )=       0.004838   gamma___=       0.000650 meV   omega=      6.8777 meV
     lambda_tr(   2 )=      -0.002277   gamma_tr=      -0.000306 meV   omega=      6.8777 meV
     lambda___(   3 )=       0.017455   gamma___=       0.003185 meV   omega=      8.0133 meV
     lambda_tr(   3 )=       0.080606   gamma_tr=       0.014710 meV   omega=      8.0133 meV
     lambda___( tot )=       0.028379
     lambda_tr( tot )=       0.095592
     -------------------------------------------------------------------


     Number of (k,k+q) pairs on the Fermi surface:      216 out of      216


     ismear =     1 iq =      64 coord.:   0.16667  0.66667  0.50000 wt:   0.00463
     -------------------------------------------------------------------
     lambda___(   1 )=       0.034768   gamma___=       0.002998 meV   omega=      5.5086 meV
     lambda_tr(   1 )=       0.038293   gamma_tr=       0.003302 meV   omega=      5.5086 meV
     lambda___(   2 )=       0.061051   gamma___=       0.007136 meV   omega=      6.4134 meV
     lambda_tr(   2 )=       0.059107   gamma_tr=       0.006909 meV   omega=      6.4134 meV
     lambda___(   3 )=       0.090462   gamma___=       0.019042 meV   omega=      8.6064 meV
     lambda_tr(   3 )=       0.099118   gamma_tr=       0.020864 meV   omega=      8.6064 meV
     lambda___( tot )=       0.186281
     lambda_tr( tot )=       0.196517
     -------------------------------------------------------------------


     Number of (k,k+q) pairs on the Fermi surface:      216 out of      216


     ismear =     1 iq =      65 coord.:   0.16667  0.66667  0.66667 wt:   0.00463
     -------------------------------------------------------------------
     lambda___(   1 )=       0.033783   gamma___=       0.002200 meV   omega=      4.7874 meV
     lambda_tr(   1 )=       0.135824   gamma_tr=       0.008847 meV   omega=      4.7874 meV
     lambda___(   2 )=       0.014557   gamma___=       0.001331 meV   omega=      5.6726 meV
     lambda_tr(   2 )=      -0.003238   gamma_tr=      -0.000296 meV   omega=      5.6726 meV
     lambda___(   3 )=       0.009446   gamma___=       0.002112 meV   omega=      8.8695 meV
     lambda_tr(   3 )=      -0.001794   gamma_tr=      -0.000401 meV   omega=      8.8695 meV
     lambda___( tot )=       0.057786
     lambda_tr( tot )=       0.130792
     -------------------------------------------------------------------


     Number of (k,k+q) pairs on the Fermi surface:      216 out of      216


     ismear =     1 iq =      66 coord.:   0.16667  0.66667  0.83333 wt:   0.00463
     -------------------------------------------------------------------
     lambda___(   1 )=      -0.182842   gamma___=      -0.010889 meV   omega=      4.5777 meV
     lambda_tr(   1 )=      -0.289719   gamma_tr=      -0.017253 meV   omega=      4.5777 meV
     lambda___(   2 )=       0.416989   gamma___=       0.034994 meV   omega=      5.4341 meV
[...]
      211        7      6.7121    141.3957    110.3615      1.1605     -0.1383
      212        7      5.5884    203.3621    177.8938      1.4030     -0.2873
      213        7      4.6673    195.3596    166.8224      1.3564     -0.2627
      214        7      5.4585    143.0771    153.0834      1.2942     -0.2274
      215        7      6.8732    157.7383     60.0225      1.0390     -0.0375
      216        7      7.7957    128.1184     32.7684      1.0601     -0.0567
  
        1        8      8.2862     99.8479      0.1016      0.9726      0.0282
        2        8      7.7982    127.7909     32.7220      1.0603     -0.0569
        3        8      6.7126    174.1942     84.4698      1.0751     -0.0699
        4        8      6.1174    163.6047      8.1332      0.9223      0.0842
        5        8      6.7126    174.1942     84.4698      1.0751     -0.0699
        6        8      7.7982    127.7909     32.7219      1.0603     -0.0569
        7        8      7.7982    127.7909     32.7220      1.0603     -0.0569
        8        8      6.7129    141.5363    110.5976      1.1615     -0.1391
        9        8      5.5908    204.4714    177.9792      1.3965     -0.2839
       10        8      4.6703    196.1395    166.9527      1.3628     -0.2662
       11        8      5.4617    143.3794    154.2698      1.3037     -0.2330
       12        8      6.8817    158.3726     58.1312      1.0329     -0.0319
       13        8      6.7126    174.1942     84.4698      1.0751     -0.0699
       14        8      5.5908    204.4714    177.9792      1.3965     -0.2839
       15        8      3.4267    140.3442    123.3264      1.1159     -0.1039
       16        8      2.3802     73.0563    223.1180      1.2980     -0.2296
       17        8      3.4954    180.1303    171.0580      1.1822     -0.1541
       18        8      5.4617    143.3794    154.2697      1.3037     -0.2330
       19        8      6.1174    163.6047      8.1332      0.9223      0.0842
       20        8      4.6703    196.1395    166.9527      1.3628     -0.2662
       21        8      2.3802     73.0563    223.1180      1.2980     -0.2296
       22        8      1.7131    186.4926     15.1494      0.8510      0.1751
       23        8      2.3802     73.0562    223.1179      1.2980     -0.2296
       24        8      4.6703    196.1395    166.9524      1.3628     -0.2662
       25        8      6.7126    174.1942     84.4698      1.0751     -0.0699
       26        8      5.4617    143.3794    154.2698      1.3037     -0.2330
       27        8      3.4954    180.1303    171.0580      1.1822     -0.1541
       28        8      2.3802     73.0562    223.1179      1.2980     -0.2296
       29        8      3.4267    140.3442    123.3264      1.1159     -0.1039
       30        8      5.5908    204.4715    177.9794      1.3965     -0.2839
       31        8      7.7982    127.7909     32.7219      1.0603     -0.0569
       32        8      6.8817    158.3725     58.1312      1.0329     -0.0319
       33        8      5.4617    143.3793    154.2697      1.3037     -0.2330
       34        8      4.6703    196.1395    166.9524      1.3628     -0.2662
       35        8      5.5908    204.4715    177.9794      1.3965     -0.2839
       36        8      6.7129    141.5363    110.5976      1.1615     -0.1391
       37        8      7.7982    127.7909     32.7220      1.0603     -0.0569
       38        8      6.7129    141.5363    110.5976      1.1615     -0.1391
       39        8      5.5908    204.4714    177.9792      1.3965     -0.2839
       40        8      4.6703    196.1395    166.9527      1.3628     -0.2662
       41        8      5.4617    143.3794    154.2698      1.3037     -0.2330
       42        8      6.8817    158.3726     58.1312      1.0329     -0.0319
       43        8      6.7121    141.3957    110.3615      1.1605     -0.1383
       44        8      7.7982    127.7909     32.7219      1.0603     -0.0569
       45        8      6.8827    158.4495     57.8545      1.0322     -0.0312
       46        8      5.4623    143.5447    154.4855      1.3051     -0.2338
       47        8      4.6689    195.6154    166.7221      1.3601     -0.2648
       48        8      5.5902    204.3424    178.1857      1.3981     -0.2847
       49        8      5.5902    204.3423    178.1856      1.3980     -0.2847
       50        8      6.8817    158.3726     58.1312      1.0329     -0.0319
       51        8      5.5908    204.4715    177.9794      1.3965     -0.2839
       52        8      4.0623    210.7598    306.5313      1.7570     -0.4308
       53        8      2.9909    221.5602    393.5114      2.0415     -0.5102
       54        8      4.0608    210.0652    307.2511      1.7653     -0.4335
       55        8      4.6689    195.6155    166.7223      1.3601     -0.2648
       56        8      5.4617    143.3794    154.2697      1.3037     -0.2330
       57        8      4.0621    210.5608    306.5880      1.7566     -0.4307
       58        8      2.3802     73.0562    223.1179      1.2980     -0.2296
       59        8      1.4397    203.9264    157.4914      0.9877      0.0124
       60        8      2.9909    221.5603    393.5112      2.0415     -0.5102
       61        8      5.4623    143.5449    154.4856      1.3051     -0.2338
       62        8      4.6703    196.1395    166.9524      1.3628     -0.2662
       63        8      2.9903    221.0255    394.3587      2.0583     -0.5142
       64        8      1.4368    204.0046    158.9653      0.9918      0.0083
       65        8      2.3802     73.0563    223.1180      1.2980     -0.2296
       66        8      4.0623    210.7598    306.5313      1.7570     -0.4308
       67        8      6.8827    158.4495     57.8545      1.0322     -0.0312
       68        8      5.5908    204.4715    177.9794      1.3965     -0.2839
       69        8      4.0621    210.5608    306.5880      1.7566     -0.4307
       70        8      2.9903    221.0255    394.3587      2.0583     -0.5142
       71        8      4.0621    210.5608    306.5880      1.7566     -0.4307
       72        8      5.5908    204.4714    177.9792      1.3965     -0.2839
       73        8      6.7126    174.1942     84.4698      1.0751     -0.0699
       74        8      5.5908    204.4714    177.9792      1.3965     -0.2839
       75        8      3.4267    140.3442    123.3264      1.1159     -0.1039
       76        8      2.3802     73.0563    223.1180      1.2980     -0.2296
       77        8      3.4954    180.1303    171.0580      1.1822     -0.1541
       78        8      5.4617    143.3794    154.2697      1.3037     -0.2330
       79        8      5.5902    204.3423    178.1856      1.3980     -0.2847
       80        8      6.8817    158.3726     58.1312      1.0329     -0.0319
       81        8      5.5908    204.4715    177.9794      1.3965     -0.2839
       82        8      4.0623    210.7598    306.5313      1.7570     -0.4308
       83        8      2.9909    221.5602    393.5114      2.0415     -0.5102
       84        8      4.0608    210.0652    307.2510      1.7653     -0.4335
       85        8      3.4267    140.3242    123.3116      1.1158     -0.1037
       86        8      5.5902    204.3424    178.1857      1.3981     -0.2847
       87        8      6.7126    174.1942     84.4698      1.0751     -0.0699
       88        8      5.4623    143.5449    154.4856      1.3051     -0.2338
       89        8      3.4954    180.1193    171.0543      1.1822     -0.1541
       90        8      2.3795     73.0410    221.3407      1.2877     -0.2234
       91        8      2.3795     73.0409    221.3408      1.2877     -0.2234
       92        8      4.0608    210.0652    307.2510      1.7653     -0.4335
       93        8      5.4617    143.3794    154.2698      1.3037     -0.2330
       94        8      4.6703    196.1395    166.9525      1.3628     -0.2662
       95        8      2.9909    221.5603    393.5113      2.0415     -0.5102
       96        8      1.4395    203.9544    157.5673      0.9878      0.0124
       97        8      3.4954    180.1193    171.0543      1.1822     -0.1541
       98        8      2.9909    221.5603    393.5112      2.0415     -0.5102
       99        8      3.4954    180.1303    171.0580      1.1822     -0.1541
      100        8      2.9903    221.0255    394.3587      2.0583     -0.5142
      101        8      3.4954    180.1303    171.0580      1.1822     -0.1541
      102        8      2.9909    221.5602    393.5114      2.0415     -0.5102
      103        8      5.4623    143.5447    154.4855      1.3051     -0.2338
      104        8      4.0623    210.7598    306.5313      1.7570     -0.4308
      105        8      2.3802     73.0562    223.1179      1.2980     -0.2296
      106        8      1.4368    204.0046    158.9653      0.9918      0.0083
      107        8      2.9903    221.0255    394.3588      2.0583     -0.5142
      108        8      4.6703    196.1395    166.9527      1.3628     -0.2662
      109        8      6.1174    163.6047      8.1332      0.9223      0.0842
      110        8      4.6703    196.1395    166.9527      1.3628     -0.2662
      111        8      2.3802     73.0563    223.1180      1.2980     -0.2296
      112        8      1.7131    186.4926     15.1494      0.8510      0.1751
      113        8      2.3802     73.0562    223.1179      1.2980     -0.2296
      114        8      4.6703    196.1395    166.9524      1.3628     -0.2662
      115        8      4.6689    195.6155    166.7223      1.3601     -0.2648
      116        8      5.4617    143.3794    154.2697      1.3037     -0.2330
      117        8      4.0621    210.5608    306.5880      1.7566     -0.4307
      118        8      2.3802     73.0562    223.1179      1.2980     -0.2296
      119        8      1.4397    203.9264    157.4914      0.9877      0.0124
      120        8      2.9909    221.5602    393.5112      2.0415     -0.5102
      121        8      2.3795     73.0409    221.3407      1.2877     -0.2234
      122        8      4.0608    210.0652    307.2511      1.7653     -0.4335
      123        8      5.4617    143.3794    154.2698      1.3037     -0.2330
      124        8      4.6703    196.1395    166.9524      1.3628     -0.2662
      125        8      2.9909    221.5603    393.5113      2.0415     -0.5102
      126        8      1.4395    203.9544    157.5673      0.9878      0.0124
      127        8      1.7142    186.3131     14.9052      0.8509      0.1752
      128        8      2.3795     73.0410    221.3406      1.2877     -0.2234
      129        8      4.6689    195.6154    166.7221      1.3601     -0.2648
      130        8      6.1174    163.6047      8.1332      0.9223      0.0842
      131        8      4.6689    195.6155    166.7223      1.3601     -0.2648
      132        8      2.3795     73.0409    221.3408      1.2877     -0.2234
      133        8      2.3795     73.0410    221.3407      1.2877     -0.2234
      134        8      1.4395    203.9544    157.5673      0.9878      0.0124
      135        8      2.9909    221.5602    393.5114      2.0415     -0.5102
      136        8      4.6703    196.1395    166.9527      1.3628     -0.2662
      137        8      5.4617    143.3794    154.2697      1.3037     -0.2330
      138        8      4.0608    210.0652    307.2511      1.7653     -0.4335
      139        8      4.6689    195.6154    166.7221      1.3601     -0.2648
      140        8      2.9909    221.5602    393.5114      2.0415     -0.5102
      141        8      1.4397    203.9264    157.4914      0.9877      0.0124
      142        8      2.3802     73.0562    223.1180      1.2980     -0.2296
      143        8      4.0621    210.5608    306.5880      1.7566     -0.4307
      144        8      5.4617    143.3794    154.2698      1.3037     -0.2330
      145        8      6.7126    174.1942     84.4698      1.0751     -0.0699
      146        8      5.4617    143.3794    154.2698      1.3037     -0.2330
      147        8      3.4954    180.1303    171.0580      1.1822     -0.1541
      148        8      2.3802     73.0562    223.1179      1.2980     -0.2296
      149        8      3.4267    140.3442    123.3264      1.1159     -0.1039
      150        8      5.5908    204.4715    177.9794      1.3965     -0.2839
      151        8      5.4623    143.5449    154.4856      1.3051     -0.2338
      152        8      4.6703    196.1395    166.9525      1.3628     -0.2662
      153        8      2.9903    221.0255    394.3587      2.0583     -0.5142
      154        8      1.4368    204.0046    158.9653      0.9918      0.0083
      155        8      2.3802     73.0562    223.1180      1.2980     -0.2296
      156        8      4.0623    210.7598    306.5313      1.7570     -0.4308
      157        8      3.4954    180.1193    171.0543      1.1822     -0.1541
      158        8      2.9909    221.5603    393.5113      2.0415     -0.5102
      159        8      3.4954    180.1303    171.0580      1.1822     -0.1541
      160        8      2.9903    221.0255    394.3588      2.0583     -0.5142
      161        8      3.4954    180.1303    171.0580      1.1822     -0.1541
      162        8      2.9909    221.5602    393.5114      2.0415     -0.5102
      163        8      2.3795     73.0410    221.3406      1.2877     -0.2234
      164        8      1.4395    203.9544    157.5673      0.9878      0.0124
      165        8      2.9909    221.5602    393.5114      2.0415     -0.5102
      166        8      4.6703    196.1395    166.9527      1.3628     -0.2662
      167        8      5.4617    143.3794    154.2697      1.3037     -0.2330
      168        8      4.0608    210.0652    307.2511      1.7653     -0.4335
      169        8      3.4267    140.3242    123.3116      1.1158     -0.1037
      170        8      2.3795     73.0409    221.3407      1.2877     -0.2234
      171        8      3.4954    180.1193    171.0543      1.1822     -0.1541
      172        8      5.4623    143.5447    154.4855      1.3051     -0.2338
      173        8      6.7126    174.1942     84.4698      1.0751     -0.0699
      174        8      5.5902    204.3423    178.1856      1.3980     -0.2847
      175        8      5.5902    204.3424    178.1857      1.3981     -0.2847
      176        8      4.0608    210.0652    307.2511      1.7653     -0.4335
      177        8      2.9909    221.5603    393.5112      2.0415     -0.5102
      178        8      4.0623    210.7598    306.5313      1.7570     -0.4308
      179        8      5.5908    204.4714    177.9792      1.3965     -0.2839
      180        8      6.8817    158.3726     58.1312      1.0329     -0.0319
      181        8      7.7982    127.7909     32.7219      1.0603     -0.0569
      182        8      6.8817    158.3726     58.1312      1.0329     -0.0319
      183        8      5.4617    143.3794    154.2697      1.3037     -0.2330
      184        8      4.6703    196.1395    166.9525      1.3628     -0.2662
      185        8      5.5908    204.4715    177.9794      1.3965     -0.2839
      186        8      6.7129    141.5363    110.5976      1.1615     -0.1391
      187        8      6.8827    158.4495     57.8545      1.0322     -0.0312
      188        8      5.5908    204.4715    177.9794      1.3965     -0.2839
      189        8      4.0621    210.5608    306.5880      1.7566     -0.4307
      190        8      2.9903    221.0255    394.3587      2.0583     -0.5142
      191        8      4.0621    210.5608    306.5880      1.7566     -0.4307
      192        8      5.5908    204.4714    177.9792      1.3965     -0.2839
      193        8      5.4623    143.5447    154.4855      1.3051     -0.2338
      194        8      4.0623    210.7598    306.5313      1.7570     -0.4308
      195        8      2.3802     73.0562    223.1179      1.2980     -0.2296
      196        8      1.4368    204.0046    158.9653      0.9918      0.0083
      197        8      2.9903    221.0255    394.3587      2.0583     -0.5142
      198        8      4.6703    196.1395    166.9527      1.3628     -0.2662
      199        8      4.6689    195.6154    166.7221      1.3601     -0.2648
      200        8      2.9909    221.5602    393.5114      2.0415     -0.5102
      201        8      1.4397    203.9264    157.4914      0.9877      0.0124
      202        8      2.3802     73.0563    223.1180      1.2980     -0.2296
      203        8      4.0621    210.5608    306.5880      1.7566     -0.4307
      204        8      5.4617    143.3794    154.2698      1.3037     -0.2330
      205        8      5.5902    204.3424    178.1857      1.3981     -0.2847
      206        8      4.0608    210.0652    307.2510      1.7653     -0.4335
      207        8      2.9909    221.5603    393.5112      2.0415     -0.5102
      208        8      4.0623    210.7598    306.5313      1.7570     -0.4308
      209        8      5.5908    204.4714    177.9792      1.3965     -0.2839
      210        8      6.8817    158.3726     58.1312      1.0329     -0.0319
      211        8      6.7121    141.3957    110.3615      1.1605     -0.1383
      212        8      5.5902    204.3423    178.1856      1.3980     -0.2847
      213        8      4.6689    195.6155    166.7223      1.3601     -0.2648
      214        8      5.4623    143.5448    154.4856      1.3051     -0.2338
      215        8      6.8827    158.4495     57.8545      1.0322     -0.0312
      216        8      7.7982    127.7909     32.7220      1.0603     -0.0569
  
     ===================================================================
     Memory usage:  VmHWM =       203Mb
                   VmPeak =      2771Mb
     ===================================================================


     ===================================================================
     Eliashberg Spectral Function in the Migdal Approximation
     ===================================================================

     lambda :    0.2836345
     lambda_tr :    0.7202076
 
     Estimated Allen-Dynes Tc
 
     logavg =    0.0003671 l_a2f =    0.2837068
     mu =   0.10 Tc =         0.015617226454 K
     mu =   0.12 Tc =         0.004149171170 K
     mu =   0.14 Tc =         0.000653048085 K
     mu =   0.16 Tc =         0.000041370055 K
     mu =   0.18 Tc =         0.000000432635 K
     mu =   0.20 Tc =         0.000000000054 K
     a2F          :      0.07s CPU      0.08s WALL (       1 calls)

     Unfolding on the coarse grid
     elphon_wrap  :     19.19s CPU     19.95s WALL (       1 calls)

     INITIALIZATION: 

     init_vloc    :      0.00s CPU      0.00s WALL (       1 calls)
     init_us_1    :      0.07s CPU      0.07s WALL (       2 calls)



     Electron-Phonon interpolation
     ephwann      :      1.43s CPU      1.67s WALL (       1 calls)
     ep-interp    :      1.20s CPU      1.28s WALL (     216 calls)
     PH SELF-ENER :      0.14s CPU      0.14s WALL (     216 calls)

     Ham: step 1  :      0.00s CPU      0.00s WALL (       1 calls)
     Ham: step 2  :      0.00s CPU      0.00s WALL (       1 calls)
     ep: step 1   :      0.00s CPU      0.00s WALL (      81 calls)
     ep: step 2   :      0.02s CPU      0.06s WALL (      81 calls)
     DynW2B       :      0.00s CPU      0.00s WALL (     216 calls)
     HamW2B       :      0.45s CPU      0.48s WALL (   23490 calls)
     ephW2Bp      :      0.06s CPU      0.07s WALL (     216 calls)
     ephW2B       :      0.10s CPU      0.10s WALL (   11664 calls)


     Total program execution
     EPW          :     23.13s CPU     24.41s WALL

                                                                                          
 Please consider citing:                                                                  
 S. Ponce, E. R. Margine, C. Verdi and F. Giustino, Comput. Phys. Commun. 209, 116 (2016) 
                                                                                          
