                                                                                      
                                       ``:oss/                                        
                           `.+s+.     .+ys--yh+     `./ss+.                           
                          -sh//yy+`   +yy   +yy    -+h+-oyy                           
                          -yh- .oyy/.-sh.   .syo-.:sy-  /yh                           
                 `.-.`    `yh+   -oyyyo.     `/syys:    oys      `.`                  
               `/+ssys+-` `sh+      `                   oys`   .:osyo`                
               -yh- ./syyooyo`                          .sys+/oyo--yh/                
               `yy+    .-:-.                             `-/+/:`  -sh-                
                /yh.                                              oys                 
          ``..---hho---------`   .---------..`      `.-----.`    -hd+---.             
       `./osmNMMMMMMMMMMMMMMMs. +NNMMMMMMMMNNmh+.   yNMMMMMNm-  oNMMMMMNmo++:`        
       +sy--/sdMMMhyyyyyyyNMMh- .oyNMMmyyyyyhNMMm+` -yMMMdyyo:` .oyyNMMNhs+syy`       
       -yy/   /MMM+.`-+/``mMMy-   `mMMh:`````.dMMN:` `MMMy-`-dhhy```mMMy:``+hs        
        -yy+` /MMMo:-mMM+`-oo/.    mMMh:     `dMMN/`  dMMm:`dMMMMy..MMMo-.+yo`        
         .sys`/MMMMNNMMMs-         mMMmyooooymMMNo:   oMMM/sMMMMMM++MMN//oh:          
          `sh+/MMMhyyMMMs- `-`     mMMMMMMMMMNmy+-`   -MMMhMMMsmMMmdMMd/yy+           
    `-/+++oyy-/MMM+.`/hh/.`mNm:`   mMMd+/////:-.`      NMMMMMd/:NMMMMMy:/yyo/:.`      
   +os+//:-..-oMMMo:--:::-/MMMo. .-mMMd+---`           hMMMMN+. oMMMMMo. `-+osyso:`   
   syo     `mNMMMMMNNNNNNNNMMMo.oNNMMMMMNNNN:`         +MMMMs:`  dMMMN/`     ``:syo   
   /yh`     :syyyyyyyyyyyyyyyy+.`+syyyyyyyyo:`         .oyys:`   .oyys:`        +yh   
   -yh-        ````````````````    `````````              ``        ``          oys   
   -+h/------------------------::::::::://////++++++++++++++++++++++///////::::/yd:   
   shdddddddddddddddddddddddddddddhhhhhhhhyyyyyssssssssssssssssyyyyyyyhhhhhhhddddh`   
                                                                                      
  S. Ponce, E. R. Margine, C. Verdi, and F. Giustino,                                 
                                                Comput. Phys. Commun. 209, 116 (2016) 
                                                                                      

     Program EPW v.4.2.0 (svn rev. 13615) starts on 25Jul2017 at 10: 2:41 

     This program is part of the open-source Quantum ESPRESSO suite
     for quantum simulation of materials; please cite
         "P. Giannozzi et al., J. Phys.:Condens. Matter 21 395502 (2009);
          URL http://www.quantum-espresso.org", 
     in publications or presentations arising from this work. More details at
     http://www.quantum-espresso.org/quote

     Parallel version (MPI), running on     4 processors
     K-points division:     npool     =       4

     Reading data from directory:
     ./pb.save/

   Info: using nr1, nr2, nr3 values from input

   Info: using nr1, nr2, nr3 values from input

     IMPORTANT: XC functional enforced from input :
     Exchange-correlation      = PZ ( 1  1  0  0 0 0)
     Any further DFT definition will be discarded
     Please, verify this is what you really want


     G-vector sticks info
     --------------------
     sticks:   dense  smooth     PW     G-vecs:    dense   smooth      PW
     Sum         703     703    211                12387    12387    2109


     --                                                                         

     bravais-lattice index     =            2
     lattice parameter (a_0)   =       9.2700  a.u.
     unit-cell volume          =     199.1495 (a.u.)^3
     number of atoms/cell      =            1
     number of atomic types    =            1
     kinetic-energy cut-off    =      60.0000  Ry
     charge density cut-off    =     240.0000  Ry
     convergence threshold     =      0.0E+00
     beta                      =       0.0000
     number of iterations used =            0
     Exchange-correlation      = PZ ( 1  1  0  0 0 0)


     celldm(1)=    9.27000  celldm(2)=    0.00000  celldm(3)=    0.00000
     celldm(4)=    0.00000  celldm(5)=    0.00000  celldm(6)=    0.00000

     crystal axes: (cart. coord. in units of a_0)
               a(1) = ( -0.5000  0.0000  0.5000 )  
               a(2) = (  0.0000  0.5000  0.5000 )  
               a(3) = ( -0.5000  0.5000  0.0000 )  

     reciprocal axes: (cart. coord. in units 2 pi/a_0)
               b(1) = ( -1.0000 -1.0000  1.0000 )  
               b(2) = (  1.0000  1.0000  1.0000 )  
               b(3) = ( -1.0000  1.0000 -1.0000 )  


     Atoms inside the unit cell: 

   Cartesian axes

     site n.  atom      mass           positions (a_0 units)
        1        Pb 207.2175   tau( 1) = (    0.00000    0.00000    0.00000  )

     49 Sym.Ops. (with q -> -q+G )


     G cutoff =  522.4094  (  12387 G-vectors)     FFT grid: ( 36, 36, 36)
     number of k points=   27  gaussian broad. (Ry)=  0.0200     ngauss =   1
                       cart. coord. in units 2pi/a_0
        k(    1) = (   0.0000000   0.0000000   0.0000000), wk =   0.0370370
        k(    2) = (  -0.3333333   0.3333333  -0.3333333), wk =   0.0370370
        k(    3) = (  -0.6666667   0.6666667  -0.6666667), wk =   0.0370370
        k(    4) = (   0.3333333   0.3333333   0.3333333), wk =   0.0370370
        k(    5) = (   0.0000000   0.6666667   0.0000000), wk =   0.0370370
        k(    6) = (  -0.3333333   1.0000000  -0.3333333), wk =   0.0370370
        k(    7) = (   0.6666667   0.6666667   0.6666667), wk =   0.0370370
        k(    8) = (   0.3333333   1.0000000   0.3333333), wk =   0.0370370
        k(    9) = (   0.0000000   1.3333333   0.0000000), wk =   0.0370370
        k(   10) = (  -0.3333333  -0.3333333   0.3333333), wk =   0.0370370
        k(   11) = (  -0.6666667   0.0000000   0.0000000), wk =   0.0370370
        k(   12) = (  -1.0000000   0.3333333  -0.3333333), wk =   0.0370370
        k(   13) = (   0.0000000   0.0000000   0.6666667), wk =   0.0370370
        k(   14) = (  -0.3333333   0.3333333   0.3333333), wk =   0.0370370
        k(   15) = (  -0.6666667   0.6666667  -0.0000000), wk =   0.0370370
        k(   16) = (   0.3333333   0.3333333   1.0000000), wk =   0.0370370
        k(   17) = (   0.0000000   0.6666667   0.6666667), wk =   0.0370370
        k(   18) = (  -0.3333333   1.0000000   0.3333333), wk =   0.0370370
        k(   19) = (  -0.6666667  -0.6666667   0.6666667), wk =   0.0370370
        k(   20) = (  -1.0000000  -0.3333333   0.3333333), wk =   0.0370370
        k(   21) = (  -1.3333333   0.0000000   0.0000000), wk =   0.0370370
        k(   22) = (  -0.3333333  -0.3333333   1.0000000), wk =   0.0370370
        k(   23) = (  -0.6666667  -0.0000000   0.6666667), wk =   0.0370370
        k(   24) = (  -1.0000000   0.3333333   0.3333333), wk =   0.0370370
        k(   25) = (   0.0000000   0.0000000   1.3333333), wk =   0.0370370
        k(   26) = (  -0.3333333   0.3333333   1.0000000), wk =   0.0370370
        k(   27) = (  -0.6666667   0.6666667   0.6666667), wk =   0.0370370

     PseudoPot. # 1 for Pb read from file:
     ./pb_s.UPF
     MD5 check sum: 7774f596943a2055f0d8d19eea6f2ae8
     Pseudo is Norm-conserving, Zval = 14.0
     Generated using "atomic" code by A. Dal Corso  (Quantum ESPRESSO distribution)
     Using radial grid of 1281 points,  4 beta functions with: 
                l(1) =   2
                l(2) =   2
                l(3) =   1
                l(4) =   1
     EPW          :     0.24s CPU         0.26s WALL

     EPW          :     0.54s CPU         0.57s WALL

     No wavefunction gauge setting applied
     -------------------------------------------------------------------
     Wannierization on  3 x  3 x  3 electronic grid
     -------------------------------------------------------------------

     Spin CASE ( non-collinear )

     Initializing Wannier90


     Initial Wannier projections

     (   0.00000   0.00000   0.00000) :  l =  -3 mr =   1
     (   0.00000   0.00000   0.00000) :  l =  -3 mr =   1
     (   0.00000   0.00000   0.00000) :  l =  -3 mr =   2
     (   0.00000   0.00000   0.00000) :  l =  -3 mr =   2
     (   0.00000   0.00000   0.00000) :  l =  -3 mr =   3
     (   0.00000   0.00000   0.00000) :  l =  -3 mr =   3
     (   0.00000   0.00000   0.00000) :  l =  -3 mr =   4
     (   0.00000   0.00000   0.00000) :  l =  -3 mr =   4

      - Number of bands is ( 22)
      - Number of wannier functions is (  8)
      - All guiding functions are given 

  Reading data about k-point neighbours 

      - All neighbours are found 

     AMN
      k points =    27 in    4 pools
            1 of    7 on ionode
            2 of    7 on ionode
            3 of    7 on ionode
            4 of    7 on ionode
            5 of    7 on ionode
            6 of    7 on ionode
            7 of    7 on ionode

     AMN calculated

     MMN
      k points =    27 in    4 pools
            1 of    7 on ionode
            2 of    7 on ionode
            3 of    7 on ionode
            4 of    7 on ionode
            5 of    7 on ionode
            6 of    7 on ionode
            7 of    7 on ionode
     MMN calculated

     Running Wannier90

     Wannier Function centers (cartesian, alat) and spreads (ang):

     (   0.08272   0.08272   0.08272) :   1.60664
     (   0.08272   0.08272   0.08272) :   1.60664
     (   0.08272  -0.08272  -0.08272) :   1.60664
     (   0.08272  -0.08272  -0.08272) :   1.60664
     (  -0.08272   0.08272  -0.08272) :   1.60664
     (  -0.08272   0.08272  -0.08272) :   1.60664
     (  -0.08272  -0.08272   0.08272) :   1.60664
     (  -0.08272  -0.08272   0.08272) :   1.60664

     -------------------------------------------------------------------
     WANNIER      :      7.96s CPU      8.02s WALL (       1 calls)
     -------------------------------------------------------------------

     Dipole matrix elements calculated


     Calculating kmap and kgmap
     Progress  kmap: ###########################
     Progress kgmap: ########################################
     kmaps        :      2.11s CPU      2.12s WALL (       1 calls)

     Reading interatomic force constants

  IFC last    4.6880744108606721E-004
Norm of the difference between old and new effective charges:    0.00000000000000000000
Norm of the difference between old and new force-constants:   0.00114826885903262111
  Imposed crystal ASR

     Finished reading ifcs

  IFC    3.6608706740595624E-002   3.4122201230466490E-004
     Symmetries of bravais lattice:  48
     Symmetries of crystal:          48


     ===================================================================
     irreducible q point #    1
     ===================================================================

     Symmetries of small group of q: 48
          in addition sym. q -> -q+G:

     Number of q in the star =    1
     List of q in the star:
          1   0.000000000   0.000000000   0.000000000
        Imposing acoustic sum rule on the dynamical matrix
  Dyn mat calculated from ifcs

        q(    1 ) = (   0.0000000   0.0000000   0.0000000 )


     ===================================================================
     irreducible q point #    2
     ===================================================================

     Symmetries of small group of q:  6

     Number of q in the star =    8
     List of q in the star:
          1  -0.333333333   0.333333333  -0.333333333
          2   0.333333333   0.333333333  -0.333333333
          3   0.333333333   0.333333333   0.333333333
          4  -0.333333333   0.333333333   0.333333333
          5   0.333333333  -0.333333333   0.333333333
          6  -0.333333333  -0.333333333  -0.333333333
          7   0.333333333  -0.333333333  -0.333333333
          8  -0.333333333  -0.333333333   0.333333333
  Dyn mat calculated from ifcs

        q(    2 ) = (  -0.3333333   0.3333333  -0.3333333 )
        q(    3 ) = (   0.3333333   0.3333333  -0.3333333 )
        q(    4 ) = (   0.3333333   0.3333333   0.3333333 )
        q(    5 ) = (  -0.3333333   0.3333333   0.3333333 )
        q(    6 ) = (   0.3333333  -0.3333333   0.3333333 )
        q(    7 ) = (  -0.3333333  -0.3333333  -0.3333333 )
        q(    8 ) = (   0.3333333  -0.3333333  -0.3333333 )
        q(    9 ) = (  -0.3333333  -0.3333333   0.3333333 )


     ===================================================================
     irreducible q point #    3
     ===================================================================

     Symmetries of small group of q:  8

     Number of q in the star =    6
     List of q in the star:
          1   0.000000000   0.666666667   0.000000000
          2  -0.666666667   0.000000000   0.000000000
          3   0.000000000  -0.666666667   0.000000000
          4   0.000000000   0.000000000   0.666666667
          5   0.000000000   0.000000000  -0.666666667
          6   0.666666667   0.000000000   0.000000000
  Dyn mat calculated from ifcs

        q(   10 ) = (   0.0000000   0.6666667   0.0000000 )
        q(   11 ) = (  -0.6666667   0.0000000   0.0000000 )
        q(   12 ) = (   0.0000000  -0.6666667   0.0000000 )
        q(   13 ) = (   0.0000000   0.0000000   0.6666667 )
        q(   14 ) = (   0.0000000   0.0000000  -0.6666667 )
        q(   15 ) = (   0.6666667   0.0000000   0.0000000 )


     ===================================================================
     irreducible q point #    4
     ===================================================================

     Symmetries of small group of q:  4

     Number of q in the star =   12
     List of q in the star:
          1   0.666666667   0.000000000   0.666666667
          2   0.666666667   0.000000000  -0.666666667
          3  -0.666666667   0.000000000  -0.666666667
          4  -0.666666667   0.000000000   0.666666667
          5   0.000000000  -0.666666667   0.666666667
          6  -0.666666667   0.666666667   0.000000000
          7  -0.666666667  -0.666666667   0.000000000
          8   0.666666667   0.666666667   0.000000000
          9   0.666666667  -0.666666667   0.000000000
         10   0.000000000   0.666666667   0.666666667
         11   0.000000000   0.666666667  -0.666666667
         12   0.000000000  -0.666666667  -0.666666667
  Dyn mat calculated from ifcs

        q(   16 ) = (   0.6666667   0.0000000   0.6666667 )
        q(   17 ) = (   0.6666667   0.0000000  -0.6666667 )
        q(   18 ) = (  -0.6666667   0.0000000  -0.6666667 )
        q(   19 ) = (  -0.6666667   0.0000000   0.6666667 )
        q(   20 ) = (   0.0000000  -0.6666667   0.6666667 )
        q(   21 ) = (  -0.6666667   0.6666667   0.0000000 )
        q(   22 ) = (  -0.6666667  -0.6666667   0.0000000 )
        q(   23 ) = (   0.6666667   0.6666667   0.0000000 )
        q(   24 ) = (   0.6666667  -0.6666667   0.0000000 )
        q(   25 ) = (   0.0000000   0.6666667   0.6666667 )
        q(   26 ) = (   0.0000000   0.6666667  -0.6666667 )
        q(   27 ) = (   0.0000000  -0.6666667  -0.6666667 )

     Writing epmatq on .epb files


     The .epb files have been correctly written


              band disentanglement is used:  nbndsub =    8

     Writing Hamiltonian, Dynamical matrix and EP vertex in Wann rep to file


     Reading Hamiltonian, Dynamical matrix and EP vertex in Wann rep from file


     Reading interatomic force constants

  IFC last    4.6880744108606721E-004
Norm of the difference between old and new effective charges:    0.00000000000000000000
Norm of the difference between old and new force-constants:   0.00114826885903262111
  Imposed crystal ASR

     Finished reading ifcs

  IFC    3.6608706740595624E-002   3.4122201230466490E-004

     Finished reading Wann rep data from file

     ===================================================================
     Memory usage:  VmHWM =        87Mb
                   VmPeak =       483Mb
     ===================================================================
     
     Using uniform q-mesh:    6   6   6
     Size of q point mesh for interpolation:        216
     Using uniform k-mesh:    6   6   6
     Size of k point mesh for interpolation:        432
     Max number of k points per pool:              108

     Fermi energy coarse grid =  10.121992 eV

     Skipping the first   10 bands:

     The Fermi level will be determined with   4.00000 electrons

     Fermi energy is calculated from the fine k-mesh: Ef =  11.622359 eV

     Warning: check if difference with Fermi level fine grid makes sense

     ===================================================================

              ibndmin =     1  ebndmin =    -0.040
              ibndmax =     8  ebndmax =     1.463


     Number of ep-matrix elements per pool :        10368 ~=   81.00 Kb (@ 8 bytes/ DP)

     ===================================================================
     Phonon (Imaginary) Self-Energy in the Migdal Approximation
     ===================================================================


     Fermi Surface thickness =  20.000000 eV

     Golden Rule strictly enforced with T =   0.043087 eV
     Gaussian Broadening:   0.200000 eV, ngauss=   1
     DOS =  0.904603 states/spin/eV/Unit Cell at Ef= 11.622359 eV

     ismear =     1 iq =       1 coord.:   0.00000  0.00000  0.00000 wt:   0.00463
     -------------------------------------------------------------------
     lambda   (   1 )=       0.000000   gamma   =       0.000000 meV   omega=     -0.0000 meV
     lambda_tr(   1 )=       0.000000   gamma_tr=       0.000000 meV   omega=     -0.0000 meV
     lambda   (   2 )=       0.000000   gamma   =       0.000000 meV   omega=     -0.0000 meV
     lambda_tr(   2 )=       0.000000   gamma_tr=       0.000000 meV   omega=     -0.0000 meV
     lambda   (   3 )=       0.000000   gamma   =       0.000000 meV   omega=      0.0000 meV
     lambda_tr(   3 )=       0.000000   gamma_tr=       0.000000 meV   omega=      0.0000 meV
     lambda( tot )=       0.000000
     lambda_tr( tot )=       0.000000
     -------------------------------------------------------------------


     Number of (k,k+q) pairs on the Fermi surface:      216 out of      216


     ===================================================================
     Electron (Imaginary) Self-Energy in the Migdal Approximation
     ===================================================================


     Fermi Surface thickness =  20.000000 eV

     Golden Rule strictly enforced with T =   0.043087 eV
     Gaussian Broadening:   0.200000 eV, ngauss=   1
     DOS =  0.904603 states/spin/eV/Unit Cell at Ef= 11.622359 eV
 

     ismear =     1 iq =       2 coord.:   0.00000  0.00000  0.16667 wt:   0.00463
     -------------------------------------------------------------------
     lambda   (   1 )=      -0.087725   gamma   =      -0.000796 meV   omega=      1.7871 meV
     lambda_tr(   1 )=      -0.094452   gamma_tr=      -0.000857 meV   omega=      1.7871 meV
     lambda   (   2 )=      -0.569551   gamma   =      -0.005169 meV   omega=      1.7871 meV
     lambda_tr(   2 )=      -0.599472   gamma_tr=      -0.005441 meV   omega=      1.7871 meV
     lambda   (   3 )=       0.009756   gamma   =       0.000502 meV   omega=      4.2564 meV
     lambda_tr(   3 )=       0.008959   gamma_tr=       0.000461 meV   omega=      4.2564 meV
     lambda( tot )=      -0.647521
     lambda_tr( tot )=      -0.684966
     -------------------------------------------------------------------


     Number of (k,k+q) pairs on the Fermi surface:      216 out of      216


     ismear =     1 iq =       3 coord.:   0.00000  0.00000  0.33333 wt:   0.00463
     -------------------------------------------------------------------
     lambda   (   1 )=       2.143202   gamma   =       0.069892 meV   omega=      3.3875 meV
     lambda_tr(   1 )=     -76.548837   gamma_tr=      -2.496325 meV   omega=      3.3875 meV
     lambda   (   2 )=       4.918466   gamma   =       0.160396 meV   omega=      3.3875 meV
     lambda_tr(   2 )=    -174.125134   gamma_tr=      -5.678374 meV   omega=      3.3875 meV
     lambda   (   3 )=       0.112833   gamma   =       0.018144 meV   omega=      7.5222 meV
     lambda_tr(   3 )=      -2.173572   gamma_tr=      -0.349518 meV   omega=      7.5222 meV
     lambda( tot )=       7.174501
     lambda_tr( tot )=    -252.847543
     -------------------------------------------------------------------


     Number of (k,k+q) pairs on the Fermi surface:      216 out of      216


     ismear =     1 iq =       4 coord.:   0.00000  0.00000  0.50000 wt:   0.00463
     -------------------------------------------------------------------
     lambda   (   1 )=       0.000000   gamma   =       0.000000 meV   omega=      4.0697 meV
     lambda_tr(   1 )=       0.000000   gamma_tr=       0.000000 meV   omega=      4.0697 meV
     lambda   (   2 )=       0.000000   gamma   =       0.000000 meV   omega=      4.0697 meV
     lambda_tr(   2 )=       0.000000   gamma_tr=       0.000000 meV   omega=      4.0697 meV
     lambda   (   3 )=       0.000000   gamma   =       0.000000 meV   omega=      8.7711 meV
     lambda_tr(   3 )=       0.000000   gamma_tr=       0.000000 meV   omega=      8.7711 meV
     lambda( tot )=       0.000000
     lambda_tr( tot )=       0.000000
     -------------------------------------------------------------------


     Number of (k,k+q) pairs on the Fermi surface:      216 out of      216


     ismear =     1 iq =       5 coord.:   0.00000  0.00000  0.66667 wt:   0.00463
     -------------------------------------------------------------------
     lambda   (   1 )=       5.081024   gamma   =       0.165697 meV   omega=      3.3875 meV
     lambda_tr(   1 )=    -175.101905   gamma_tr=      -5.710227 meV   omega=      3.3875 meV
     lambda   (   2 )=       2.658208   gamma   =       0.086687 meV   omega=      3.3875 meV
     lambda_tr(   2 )=     -92.007555   gamma_tr=      -3.000447 meV   omega=      3.3875 meV
     lambda   (   3 )=       0.112817   gamma   =       0.018141 meV   omega=      7.5222 meV
     lambda_tr(   3 )=      -2.060089   gamma_tr=      -0.331270 meV   omega=      7.5222 meV
     lambda( tot )=       7.852048
     lambda_tr( tot )=    -269.169550
     -------------------------------------------------------------------


     Number of (k,k+q) pairs on the Fermi surface:      216 out of      216


     ismear =     1 iq =       6 coord.:   0.00000  0.00000  0.83333 wt:   0.00463
     -------------------------------------------------------------------
     lambda   (   1 )=      -1.205526   gamma   =      -0.010941 meV   omega=      1.7871 meV
     lambda_tr(   1 )=      -1.231871   gamma_tr=      -0.011181 meV   omega=      1.7871 meV
     lambda   (   2 )=       0.077900   gamma   =       0.000707 meV   omega=      1.7871 meV
     lambda_tr(   2 )=       0.068623   gamma_tr=       0.000623 meV   omega=      1.7871 meV
     lambda   (   3 )=       0.012595   gamma   =       0.000648 meV   omega=      4.2564 meV
     lambda_tr(   3 )=       0.011754   gamma_tr=       0.000605 meV   omega=      4.2564 meV
     lambda( tot )=      -1.115030
     lambda_tr( tot )=      -1.151495
     -------------------------------------------------------------------


     Number of (k,k+q) pairs on the Fermi surface:      216 out of      216


     ismear =     1 iq =       7 coord.:   0.00000  0.16667  0.00000 wt:   0.00463
     -------------------------------------------------------------------
     lambda   (   1 )=      -0.022977   gamma   =      -0.000209 meV   omega=      1.7871 meV
     lambda_tr(   1 )=      -0.025693   gamma_tr=      -0.000233 meV   omega=      1.7871 meV
     lambda   (   2 )=      -0.138777   gamma   =      -0.001260 meV   omega=      1.7871 meV
     lambda_tr(   2 )=      -0.145513   gamma_tr=      -0.001321 meV   omega=      1.7871 meV
     lambda   (   3 )=       0.029410   gamma   =       0.001514 meV   omega=      4.2564 meV
     lambda_tr(   3 )=       0.028702   gamma_tr=       0.001478 meV   omega=      4.2564 meV
     lambda( tot )=      -0.132344
     lambda_tr( tot )=      -0.142505
     -------------------------------------------------------------------


     Number of (k,k+q) pairs on the Fermi surface:      216 out of      216


     ismear =     1 iq =       8 coord.:   0.00000  0.16667  0.16667 wt:   0.00463
     -------------------------------------------------------------------
     lambda   (   1 )=       9.074327   gamma   =       0.086991 meV   omega=      1.8366 meV
     lambda_tr(   1 )=       7.021632   gamma_tr=       0.067313 meV   omega=      1.8366 meV
     lambda   (   2 )=       6.717279   gamma   =       0.064395 meV   omega=      1.8366 meV
     lambda_tr(   2 )=       2.917329   gamma_tr=       0.027967 meV   omega=      1.8366 meV
     lambda   (   3 )=       0.825226   gamma   =       0.059862 meV   omega=      5.0522 meV
     lambda_tr(   3 )=       0.333777   gamma_tr=       0.024212 meV   omega=      5.0522 meV
     lambda( tot )=      16.616833
     lambda_tr( tot )=      10.272738
     -------------------------------------------------------------------


     Number of (k,k+q) pairs on the Fermi surface:      216 out of      216


     ismear =     1 iq =       9 coord.:   0.00000  0.16667  0.33333 wt:   0.00463
     -------------------------------------------------------------------
     lambda   (   1 )=       0.106619   gamma   =       0.003217 meV   omega=      3.2583 meV
     lambda_tr(   1 )=       0.007926   gamma_tr=       0.000239 meV   omega=      3.2583 meV
     lambda   (   2 )=       0.070593   gamma   =       0.002868 meV   omega=      3.7812 meV
     lambda_tr(   2 )=       0.156089   gamma_tr=       0.006342 meV   omega=      3.7812 meV
     lambda   (   3 )=       0.008205   gamma   =       0.001222 meV   omega=      7.2397 meV
     lambda_tr(   3 )=      -0.037284   gamma_tr=      -0.005554 meV   omega=      7.2397 meV
     lambda( tot )=       0.185418
     lambda_tr( tot )=       0.126731
     -------------------------------------------------------------------


     Number of (k,k+q) pairs on the Fermi surface:      216 out of      216


     ismear =     1 iq =      10 coord.:   0.00000  0.16667  0.50000 wt:   0.00463
     -------------------------------------------------------------------
     lambda   (   1 )=      -1.814745   gamma   =      -0.096915 meV   omega=      4.3349 meV
     lambda_tr(   1 )=      -3.173206   gamma_tr=      -0.169463 meV   omega=      4.3349 meV
     lambda   (   2 )=      -5.273440   gamma   =      -0.426918 meV   omega=      5.3373 meV
     lambda_tr(   2 )=      -9.663398   gamma_tr=      -0.782313 meV   omega=      5.3373 meV
     lambda   (   3 )=       0.006557   gamma   =       0.001330 meV   omega=      8.4470 meV
     lambda_tr(   3 )=      -0.532075   gamma_tr=      -0.107890 meV   omega=      8.4470 meV
     lambda( tot )=      -7.081629
     lambda_tr( tot )=     -13.368680
     -------------------------------------------------------------------


     Number of (k,k+q) pairs on the Fermi surface:      216 out of      216


     ismear =     1 iq =      11 coord.:   0.00000  0.16667  0.66667 wt:   0.00463
     -------------------------------------------------------------------
     lambda   (   1 )=       0.047340   gamma   =       0.002399 meV   omega=      4.2226 meV
     lambda_tr(   1 )=       0.514397   gamma_tr=       0.026066 meV   omega=      4.2226 meV
     lambda   (   2 )=       0.053274   gamma   =       0.003971 meV   omega=      5.1214 meV
     lambda_tr(   2 )=      -0.012258   gamma_tr=      -0.000914 meV   omega=      5.1214 meV
     lambda   (   3 )=       0.010198   gamma   =       0.001878 meV   omega=      8.0497 meV
     lambda_tr(   3 )=      -0.013772   gamma_tr=      -0.002536 meV   omega=      8.0497 meV
     lambda( tot )=       0.110813
     lambda_tr( tot )=       0.488367
     -------------------------------------------------------------------


     Number of (k,k+q) pairs on the Fermi surface:      216 out of      216


     ismear =     1 iq =      12 coord.:   0.00000  0.16667  0.83333 wt:   0.00463
     -------------------------------------------------------------------
     lambda   (   1 )=      -0.583567   gamma   =      -0.015714 meV   omega=      3.0782 meV
     lambda_tr(   1 )=      -5.723952   gamma_tr=      -0.154133 meV   omega=      3.0782 meV
     lambda   (   2 )=       0.057460   gamma   =       0.001739 meV   omega=      3.2635 meV
     lambda_tr(   2 )=      -3.817490   gamma_tr=      -0.115548 meV   omega=      3.2635 meV
     lambda   (   3 )=       0.170748   gamma   =       0.019245 meV   omega=      6.2976 meV
     lambda_tr(   3 )=      -0.329199   gamma_tr=      -0.037104 meV   omega=      6.2976 meV
     lambda( tot )=      -0.355359
     lambda_tr( tot )=      -9.870641
     -------------------------------------------------------------------


     Number of (k,k+q) pairs on the Fermi surface:      216 out of      216


     ismear =     1 iq =      13 coord.:   0.00000  0.33333  0.00000 wt:   0.00463
     -------------------------------------------------------------------
     lambda   (   1 )=       5.767625   gamma   =       0.188087 meV   omega=      3.3875 meV
     lambda_tr(   1 )=    -202.325616   gamma_tr=      -6.598016 meV   omega=      3.3875 meV
     lambda   (   2 )=       1.330169   gamma   =       0.043378 meV   omega=      3.3875 meV
     lambda_tr(   2 )=     -47.505028   gamma_tr=      -1.549181 meV   omega=      3.3875 meV
     lambda   (   3 )=       0.117206   gamma   =       0.018847 meV   omega=      7.5222 meV
     lambda_tr(   3 )=      -2.073421   gamma_tr=      -0.333414 meV   omega=      7.5222 meV
     lambda( tot )=       7.215001
     lambda_tr( tot )=    -251.904066
     -------------------------------------------------------------------


     Number of (k,k+q) pairs on the Fermi surface:      216 out of      216


     ismear =     1 iq =      14 coord.:   0.00000  0.33333  0.16667 wt:   0.00463
     -------------------------------------------------------------------
     lambda   (   1 )=       0.104594   gamma   =       0.003156 meV   omega=      3.2583 meV
     lambda_tr(   1 )=      -0.247721   gamma_tr=      -0.007474 meV   omega=      3.2583 meV
     lambda   (   2 )=       0.125604   gamma   =       0.005104 meV   omega=      3.7812 meV
     lambda_tr(   2 )=       0.105809   gamma_tr=       0.004299 meV   omega=      3.7812 meV
     lambda   (   3 )=       0.004448   gamma   =       0.000662 meV   omega=      7.2397 meV
     lambda_tr(   3 )=      -0.025206   gamma_tr=      -0.003754 meV   omega=      7.2397 meV
     lambda( tot )=       0.234645
     lambda_tr( tot )=      -0.167117
     -------------------------------------------------------------------


     Number of (k,k+q) pairs on the Fermi surface:      216 out of      216


     ismear =     1 iq =      15 coord.:   0.00000  0.33333  0.33333 wt:   0.00463
     -------------------------------------------------------------------
     lambda   (   1 )=       0.506989   gamma   =       0.022739 meV   omega=      3.9727 meV
     lambda_tr(   1 )=       0.511505   gamma_tr=       0.022942 meV   omega=      3.9727 meV
     lambda   (   2 )=       2.800529   gamma   =       0.125608 meV   omega=      3.9727 meV
     lambda_tr(   2 )=       2.796792   gamma_tr=       0.125440 meV   omega=      3.9727 meV
     lambda   (   3 )=       0.018253   gamma   =       0.003676 meV   omega=      8.4186 meV
     lambda_tr(   3 )=       0.015068   gamma_tr=       0.003035 meV   omega=      8.4186 meV
     lambda( tot )=       3.325771
     lambda_tr( tot )=       3.323365
     -------------------------------------------------------------------


     Number of (k,k+q) pairs on the Fermi surface:      216 out of      216


     ismear =     1 iq =      16 coord.:   0.00000  0.33333  0.50000 wt:   0.00463
     -------------------------------------------------------------------
     lambda   (   1 )=       0.028808   gamma   =       0.001876 meV   omega=      4.7874 meV
     lambda_tr(   1 )=       0.124405   gamma_tr=       0.008103 meV   omega=      4.7874 meV
     lambda   (   2 )=       0.011872   gamma   =       0.001086 meV   omega=      5.6726 meV
     lambda_tr(   2 )=      -0.043125   gamma_tr=      -0.003944 meV   omega=      5.6726 meV
     lambda   (   3 )=       0.007131   gamma   =       0.001594 meV   omega=      8.8695 meV
     lambda_tr(   3 )=       0.011697   gamma_tr=       0.002615 meV   omega=      8.8695 meV
     lambda( tot )=       0.047810
     lambda_tr( tot )=       0.092977
     -------------------------------------------------------------------


     Number of (k,k+q) pairs on the Fermi surface:      216 out of      216


     ismear =     1 iq =      17 coord.:   0.00000  0.33333  0.66667 wt:   0.00463
     -------------------------------------------------------------------
     lambda   (   1 )=       0.098750   gamma   =       0.006766 meV   omega=      4.9101 meV
     lambda_tr(   1 )=       2.986271   gamma_tr=       0.204603 meV   omega=      4.9101 meV
     lambda   (   2 )=       0.106648   gamma   =       0.016729 meV   omega=      7.4294 meV
     lambda_tr(   2 )=       0.303993   gamma_tr=       0.047685 meV   omega=      7.4294 meV
     lambda   (   3 )=       0.111381   gamma   =       0.018572 meV   omega=      7.6599 meV
     lambda_tr(   3 )=       1.581102   gamma_tr=       0.263642 meV   omega=      7.6599 meV
     lambda( tot )=       0.316779
     lambda_tr( tot )=       4.871366
     -------------------------------------------------------------------


     Number of (k,k+q) pairs on the Fermi surface:      216 out of      216


     ismear =     1 iq =      18 coord.:   0.00000  0.33333  0.83333 wt:   0.00463
     -------------------------------------------------------------------
     lambda   (   1 )=       0.018953   gamma   =       0.000960 meV   omega=      4.2226 meV
     lambda_tr(   1 )=       0.495316   gamma_tr=       0.025099 meV   omega=      4.2226 meV
     lambda   (   2 )=       0.052305   gamma   =       0.003899 meV   omega=      5.1214 meV
     lambda_tr(   2 )=       0.026005   gamma_tr=       0.001938 meV   omega=      5.1214 meV
     lambda   (   3 )=       0.009363   gamma   =       0.001724 meV   omega=      8.0497 meV
     lambda_tr(   3 )=      -0.012834   gamma_tr=      -0.002363 meV   omega=      8.0497 meV
     lambda( tot )=       0.080621
     lambda_tr( tot )=       0.508487
     -------------------------------------------------------------------


     Number of (k,k+q) pairs on the Fermi surface:      216 out of      216


     ismear =     1 iq =      19 coord.:   0.00000  0.50000  0.00000 wt:   0.00463
     -------------------------------------------------------------------
     lambda   (   1 )=       0.000000   gamma   =       0.000000 meV   omega=      4.0697 meV
     lambda_tr(   1 )=       0.000000   gamma_tr=       0.000000 meV   omega=      4.0697 meV
     lambda   (   2 )=       0.000000   gamma   =       0.000000 meV   omega=      4.0697 meV
     lambda_tr(   2 )=       0.000000   gamma_tr=       0.000000 meV   omega=      4.0697 meV
     lambda   (   3 )=       0.000000   gamma   =       0.000000 meV   omega=      8.7711 meV
     lambda_tr(   3 )=       0.000000   gamma_tr=       0.000000 meV   omega=      8.7711 meV
     lambda( tot )=       0.000000
     lambda_tr( tot )=       0.000000
     -------------------------------------------------------------------


     Number of (k,k+q) pairs on the Fermi surface:      216 out of      216


     ismear =     1 iq =      20 coord.:   0.00000  0.50000  0.16667 wt:   0.00463
     -------------------------------------------------------------------
     lambda   (   1 )=      -3.563610   gamma   =      -0.190312 meV   omega=      4.3349 meV
     lambda_tr(   1 )=      -6.921523   gamma_tr=      -0.369639 meV   omega=      4.3349 meV
     lambda   (   2 )=      -6.637632   gamma   =      -0.537358 meV   omega=      5.3373 meV
     lambda_tr(   2 )=     -12.299478   gamma_tr=      -0.995721 meV   omega=      5.3373 meV
     lambda   (   3 )=       0.009524   gamma   =       0.001931 meV   omega=      8.4470 meV
     lambda_tr(   3 )=      -0.347602   gamma_tr=      -0.070484 meV   omega=      8.4470 meV
     lambda( tot )=     -10.191717
     lambda_tr( tot )=     -19.568602
     -------------------------------------------------------------------


     Number of (k,k+q) pairs on the Fermi surface:      216 out of      216


     ismear =     1 iq =      21 coord.:   0.00000  0.50000  0.33333 wt:   0.00463
     -------------------------------------------------------------------
     lambda   (   1 )=       0.025760   gamma   =       0.001678 meV   omega=      4.7874 meV
     lambda_tr(   1 )=       0.073560   gamma_tr=       0.004791 meV   omega=      4.7874 meV
     lambda   (   2 )=       0.018492   gamma   =       0.001691 meV   omega=      5.6726 meV
     lambda_tr(   2 )=      -0.019451   gamma_tr=      -0.001779 meV   omega=      5.6726 meV
     lambda   (   3 )=       0.005149   gamma   =       0.001151 meV   omega=      8.8695 meV
     lambda_tr(   3 )=       0.014517   gamma_tr=       0.003246 meV   omega=      8.8695 meV
     lambda( tot )=       0.049401
     lambda_tr( tot )=       0.068626
     -------------------------------------------------------------------


     Number of (k,k+q) pairs on the Fermi surface:      216 out of      216


     ismear =     1 iq =      22 coord.:   0.00000  0.50000  0.50000 wt:   0.00463
     -------------------------------------------------------------------
     lambda   (   1 )=      -1.636206   gamma   =      -0.115402 meV   omega=      4.9818 meV
     lambda_tr(   1 )=      23.441385   gamma_tr=       1.653322 meV   omega=      4.9818 meV
     lambda   (   2 )=       1.165491   gamma   =       0.082202 meV   omega=      4.9818 meV
     lambda_tr(   2 )=      56.919308   gamma_tr=       4.014522 meV   omega=      4.9818 meV
     lambda   (   3 )=      -6.693521   gamma   =      -1.725233 meV   omega=      9.5234 meV
     lambda_tr(   3 )=       4.293339   gamma_tr=       1.106594 meV   omega=      9.5234 meV
     lambda( tot )=      -7.164236
     lambda_tr( tot )=      84.654031
     -------------------------------------------------------------------


     Number of (k,k+q) pairs on the Fermi surface:      216 out of      216


     ismear =     1 iq =      23 coord.:   0.00000  0.50000  0.66667 wt:   0.00463
     -------------------------------------------------------------------
     lambda   (   1 )=       0.041465   gamma   =       0.002701 meV   omega=      4.7874 meV
     lambda_tr(   1 )=       0.040991   gamma_tr=       0.002670 meV   omega=      4.7874 meV
     lambda   (   2 )=       0.015557   gamma   =       0.001423 meV   omega=      5.6726 meV
     lambda_tr(   2 )=      -0.028092   gamma_tr=      -0.002569 meV   omega=      5.6726 meV
     lambda   (   3 )=       0.004746   gamma   =       0.001061 meV   omega=      8.8695 meV
     lambda_tr(   3 )=       0.012996   gamma_tr=       0.002905 meV   omega=      8.8695 meV
     lambda( tot )=       0.061769
     lambda_tr( tot )=       0.025894
     -------------------------------------------------------------------


     Number of (k,k+q) pairs on the Fermi surface:      216 out of      216


     ismear =     1 iq =      24 coord.:   0.00000  0.50000  0.83333 wt:   0.00463
     -------------------------------------------------------------------
     lambda   (   1 )=      -7.799041   gamma   =      -0.416502 meV   omega=      4.3349 meV
     lambda_tr(   1 )=     -11.301554   gamma_tr=      -0.603551 meV   omega=      4.3349 meV
     lambda   (   2 )=      -5.963173   gamma   =      -0.482757 meV   omega=      5.3373 meV
     lambda_tr(   2 )=     -11.791315   gamma_tr=      -0.954582 meV   omega=      5.3373 meV
     lambda   (   3 )=       0.093509   gamma   =       0.018961 meV   omega=      8.4470 meV
     lambda_tr(   3 )=      -0.437270   gamma_tr=      -0.088667 meV   omega=      8.4470 meV
     lambda( tot )=     -13.668704
     lambda_tr( tot )=     -23.530139
     -------------------------------------------------------------------


     Number of (k,k+q) pairs on the Fermi surface:      216 out of      216


     ismear =     1 iq =      25 coord.:   0.00000  0.66667  0.00000 wt:   0.00463
     -------------------------------------------------------------------
     lambda   (   1 )=       0.197245   gamma   =       0.006432 meV   omega=      3.3875 meV
     lambda_tr(   1 )=      -7.596479   gamma_tr=      -0.247728 meV   omega=      3.3875 meV
     lambda   (   2 )=       7.492498   gamma   =       0.244337 meV   omega=      3.3875 meV
     lambda_tr(   2 )=    -256.947895   gamma_tr=      -8.379297 meV   omega=      3.3875 meV
     lambda   (   3 )=       0.117181   gamma   =       0.018843 meV   omega=      7.5222 meV
     lambda_tr(   3 )=      -2.073411   gamma_tr=      -0.333412 meV   omega=      7.5222 meV
     lambda( tot )=       7.806924
     lambda_tr( tot )=    -266.617785
     -------------------------------------------------------------------


     Number of (k,k+q) pairs on the Fermi surface:      216 out of      216


     ismear =     1 iq =      26 coord.:   0.00000  0.66667  0.16667 wt:   0.00463
     -------------------------------------------------------------------
     lambda   (   1 )=       0.015086   gamma   =       0.000764 meV   omega=      4.2226 meV
     lambda_tr(   1 )=       0.645358   gamma_tr=       0.032702 meV   omega=      4.2226 meV
     lambda   (   2 )=       0.039314   gamma   =       0.002930 meV   omega=      5.1214 meV
     lambda_tr(   2 )=       0.071632   gamma_tr=       0.005339 meV   omega=      5.1214 meV
     lambda   (   3 )=       0.009698   gamma   =       0.001786 meV   omega=      8.0497 meV
     lambda_tr(   3 )=      -0.016959   gamma_tr=      -0.003123 meV   omega=      8.0497 meV
     lambda( tot )=       0.064097
     lambda_tr( tot )=       0.700031
     -------------------------------------------------------------------


     Number of (k,k+q) pairs on the Fermi surface:      216 out of      216


     ismear =     1 iq =      27 coord.:   0.00000  0.66667  0.33333 wt:   0.00463
     -------------------------------------------------------------------
     lambda   (   1 )=       0.069577   gamma   =       0.004767 meV   omega=      4.9101 meV
     lambda_tr(   1 )=       2.071290   gamma_tr=       0.141913 meV   omega=      4.9101 meV
     lambda   (   2 )=       0.088046   gamma   =       0.013811 meV   omega=      7.4294 meV
     lambda_tr(   2 )=       0.237366   gamma_tr=       0.037234 meV   omega=      7.4294 meV
     lambda   (   3 )=       0.093242   gamma   =       0.015548 meV   omega=      7.6599 meV
     lambda_tr(   3 )=       1.356791   gamma_tr=       0.226239 meV   omega=      7.6599 meV
     lambda( tot )=       0.250865
     lambda_tr( tot )=       3.665447
     -------------------------------------------------------------------


     Number of (k,k+q) pairs on the Fermi surface:      216 out of      216


     ismear =     1 iq =      28 coord.:   0.00000  0.66667  0.50000 wt:   0.00463
     -------------------------------------------------------------------
     lambda   (   1 )=       0.025123   gamma   =       0.001636 meV   omega=      4.7874 meV
     lambda_tr(   1 )=       0.056665   gamma_tr=       0.003691 meV   omega=      4.7874 meV
     lambda   (   2 )=       0.016319   gamma   =       0.001492 meV   omega=      5.6726 meV
     lambda_tr(   2 )=      -0.022796   gamma_tr=      -0.002085 meV   omega=      5.6726 meV
     lambda   (   3 )=       0.003442   gamma   =       0.000769 meV   omega=      8.8695 meV
     lambda_tr(   3 )=       0.009493   gamma_tr=       0.002122 meV   omega=      8.8695 meV
     lambda( tot )=       0.044884
     lambda_tr( tot )=       0.043363
     -------------------------------------------------------------------


     Number of (k,k+q) pairs on the Fermi surface:      216 out of      216


     ismear =     1 iq =      29 coord.:   0.00000  0.66667  0.66667 wt:   0.00463
     -------------------------------------------------------------------
     lambda   (   1 )=       0.478728   gamma   =       0.021472 meV   omega=      3.9727 meV
     lambda_tr(   1 )=       0.482715   gamma_tr=       0.021650 meV   omega=      3.9727 meV
     lambda   (   2 )=       2.743691   gamma   =       0.123059 meV   omega=      3.9727 meV
     lambda_tr(   2 )=       2.738813   gamma_tr=       0.122840 meV   omega=      3.9727 meV
     lambda   (   3 )=       0.017118   gamma   =       0.003448 meV   omega=      8.4186 meV
     lambda_tr(   3 )=       0.014265   gamma_tr=       0.002873 meV   omega=      8.4186 meV
     lambda( tot )=       3.239537
     lambda_tr( tot )=       3.235794
     -------------------------------------------------------------------


     Number of (k,k+q) pairs on the Fermi surface:      216 out of      216


     ismear =     1 iq =      30 coord.:   0.00000  0.66667  0.83333 wt:   0.00463
     -------------------------------------------------------------------
     lambda   (   1 )=       0.081941   gamma   =       0.002472 meV   omega=      3.2583 meV
     lambda_tr(   1 )=      -0.063164   gamma_tr=      -0.001906 meV   omega=      3.2583 meV
     lambda   (   2 )=       0.101363   gamma   =       0.004119 meV   omega=      3.7812 meV
     lambda_tr(   2 )=       0.137342   gamma_tr=       0.005581 meV   omega=      3.7812 meV
     lambda   (   3 )=       0.001871   gamma   =       0.000279 meV   omega=      7.2397 meV
     lambda_tr(   3 )=      -0.023438   gamma_tr=      -0.003491 meV   omega=      7.2397 meV
     lambda( tot )=       0.185175
     lambda_tr( tot )=       0.050740
     -------------------------------------------------------------------


     Number of (k,k+q) pairs on the Fermi surface:      216 out of      216


     ismear =     1 iq =      31 coord.:   0.00000  0.83333  0.00000 wt:   0.00463
     -------------------------------------------------------------------
     lambda   (   1 )=      -0.060387   gamma   =      -0.000548 meV   omega=      1.7871 meV
     lambda_tr(   1 )=      -0.062536   gamma_tr=      -0.000568 meV   omega=      1.7871 meV
     lambda   (   2 )=       0.132063   gamma   =       0.001199 meV   omega=      1.7871 meV
     lambda_tr(   2 )=       0.114126   gamma_tr=       0.001036 meV   omega=      1.7871 meV
     lambda   (   3 )=       0.014390   gamma   =       0.000741 meV   omega=      4.2564 meV
     lambda_tr(   3 )=       0.013811   gamma_tr=       0.000711 meV   omega=      4.2564 meV
     lambda( tot )=       0.086066
     lambda_tr( tot )=       0.065401
     -------------------------------------------------------------------


     Number of (k,k+q) pairs on the Fermi surface:      216 out of      216


     ismear =     1 iq =      32 coord.:   0.00000  0.83333  0.16667 wt:   0.00463
     -------------------------------------------------------------------
     lambda   (   1 )=     -13.180193   gamma   =      -0.354912 meV   omega=      3.0782 meV
     lambda_tr(   1 )=     -19.610991   gamma_tr=      -0.528079 meV   omega=      3.0782 meV
     lambda   (   2 )=       1.484595   gamma   =       0.044936 meV   omega=      3.2635 meV
     lambda_tr(   2 )=      -7.462432   gamma_tr=      -0.225873 meV   omega=      3.2635 meV
     lambda   (   3 )=       0.609183   gamma   =       0.068661 meV   omega=      6.2976 meV
     lambda_tr(   3 )=       0.124731   gamma_tr=       0.014058 meV   omega=      6.2976 meV
     lambda( tot )=     -11.086414
     lambda_tr( tot )=     -26.948693
     -------------------------------------------------------------------


     Number of (k,k+q) pairs on the Fermi surface:      216 out of      216


     ismear =     1 iq =      33 coord.:   0.00000  0.83333  0.33333 wt:   0.00463
     -------------------------------------------------------------------
     lambda   (   1 )=       0.013184   gamma   =       0.000668 meV   omega=      4.2226 meV
     lambda_tr(   1 )=       0.514496   gamma_tr=       0.026071 meV   omega=      4.2226 meV
     lambda   (   2 )=       0.039469   gamma   =       0.002942 meV   omega=      5.1214 meV
     lambda_tr(   2 )=      -0.028766   gamma_tr=      -0.002144 meV   omega=      5.1214 meV
     lambda   (   3 )=       0.009952   gamma   =       0.001833 meV   omega=      8.0497 meV
     lambda_tr(   3 )=      -0.014190   gamma_tr=      -0.002613 meV   omega=      8.0497 meV
     lambda( tot )=       0.062605
     lambda_tr( tot )=       0.471539
     -------------------------------------------------------------------


     Number of (k,k+q) pairs on the Fermi surface:      216 out of      216


     ismear =     1 iq =      34 coord.:   0.00000  0.83333  0.50000 wt:   0.00463
     -------------------------------------------------------------------
     lambda   (   1 )=      -2.926899   gamma   =      -0.156309 meV   omega=      4.3349 meV
     lambda_tr(   1 )=      -3.809476   gamma_tr=      -0.203442 meV   omega=      4.3349 meV
     lambda   (   2 )=      -5.394975   gamma   =      -0.436757 meV   omega=      5.3373 meV
     lambda_tr(   2 )=     -10.778939   gamma_tr=      -0.872624 meV   omega=      5.3373 meV
     lambda   (   3 )=      -0.054627   gamma   =      -0.011077 meV   omega=      8.4470 meV
     lambda_tr(   3 )=      -0.603339   gamma_tr=      -0.122341 meV   omega=      8.4470 meV
     lambda( tot )=      -8.376502
     lambda_tr( tot )=     -15.191754
     -------------------------------------------------------------------


     Number of (k,k+q) pairs on the Fermi surface:      216 out of      216


     ismear =     1 iq =      35 coord.:   0.00000  0.83333  0.66667 wt:   0.00463
     -------------------------------------------------------------------
     lambda   (   1 )=       0.101569   gamma   =       0.003064 meV   omega=      3.2583 meV
     lambda_tr(   1 )=      -0.009751   gamma_tr=      -0.000294 meV   omega=      3.2583 meV
     lambda   (   2 )=       0.123230   gamma   =       0.005007 meV   omega=      3.7812 meV
     lambda_tr(   2 )=       0.126735   gamma_tr=       0.005150 meV   omega=      3.7812 meV
     lambda   (   3 )=       0.003965   gamma   =       0.000591 meV   omega=      7.2397 meV
     lambda_tr(   3 )=      -0.028362   gamma_tr=      -0.004225 meV   omega=      7.2397 meV
     lambda( tot )=       0.228764
     lambda_tr( tot )=       0.088623
     -------------------------------------------------------------------


     Number of (k,k+q) pairs on the Fermi surface:      216 out of      216


     ismear =     1 iq =      36 coord.:   0.00000  0.83333  0.83333 wt:   0.00463
     -------------------------------------------------------------------
     lambda   (   1 )=      13.305722   gamma   =       0.127555 meV   omega=      1.8366 meV
     lambda_tr(   1 )=       8.206360   gamma_tr=       0.078670 meV   omega=      1.8366 meV
     lambda   (   2 )=       3.092425   gamma   =       0.029645 meV   omega=      1.8366 meV
     lambda_tr(   2 )=       2.720171   gamma_tr=       0.026077 meV   omega=      1.8366 meV
     lambda   (   3 )=       0.685569   gamma   =       0.049731 meV   omega=      5.0522 meV
     lambda_tr(   3 )=       0.263975   gamma_tr=       0.019149 meV   omega=      5.0522 meV
     lambda( tot )=      17.083716
     lambda_tr( tot )=      11.190506
     -------------------------------------------------------------------


     Number of (k,k+q) pairs on the Fermi surface:      216 out of      216


     ismear =     1 iq =      37 coord.:   0.16667  0.00000  0.00000 wt:   0.00463
     -------------------------------------------------------------------
     lambda   (   1 )=      -0.812178   gamma   =      -0.007371 meV   omega=      1.7871 meV
     lambda_tr(   1 )=      -0.830821   gamma_tr=      -0.007541 meV   omega=      1.7871 meV
     lambda   (   2 )=      -0.198007   gamma   =      -0.001797 meV   omega=      1.7871 meV
     lambda_tr(   2 )=      -0.212798   gamma_tr=      -0.001931 meV   omega=      1.7871 meV
     lambda   (   3 )=       0.020272   gamma   =       0.001044 meV   omega=      4.2564 meV
     lambda_tr(   3 )=       0.019559   gamma_tr=       0.001007 meV   omega=      4.2564 meV
     lambda( tot )=      -0.989914
     lambda_tr( tot )=      -1.024060
     -------------------------------------------------------------------


     Number of (k,k+q) pairs on the Fermi surface:      216 out of      216


     ismear =     1 iq =      38 coord.:   0.16667  0.00000  0.16667 wt:   0.00463
     -------------------------------------------------------------------
     lambda   (   1 )=       2.167012   gamma   =       0.020774 meV   omega=      1.8366 meV
     lambda_tr(   1 )=       1.593043   gamma_tr=       0.015272 meV   omega=      1.8366 meV
     lambda   (   2 )=      -2.316009   gamma   =      -0.022202 meV   omega=      1.8366 meV
     lambda_tr(   2 )=      -3.787412   gamma_tr=      -0.036308 meV   omega=      1.8366 meV
     lambda   (   3 )=       0.595562   gamma   =       0.043202 meV   omega=      5.0522 meV
     lambda_tr(   3 )=       0.256738   gamma_tr=       0.018624 meV   omega=      5.0522 meV
     lambda( tot )=       0.446566
     lambda_tr( tot )=      -1.937632
     -------------------------------------------------------------------


     Number of (k,k+q) pairs on the Fermi surface:      216 out of      216


     ismear =     1 iq =      39 coord.:   0.16667  0.00000  0.33333 wt:   0.00463
     -------------------------------------------------------------------
     lambda   (   1 )=       0.303447   gamma   =       0.009155 meV   omega=      3.2583 meV
     lambda_tr(   1 )=      -1.588793   gamma_tr=      -0.047934 meV   omega=      3.2583 meV
     lambda   (   2 )=       0.024373   gamma   =       0.000990 meV   omega=      3.7812 meV
     lambda_tr(   2 )=       0.073203   gamma_tr=       0.002974 meV   omega=      3.7812 meV
     lambda   (   3 )=       0.007855   gamma   =       0.001170 meV   omega=      7.2397 meV
     lambda_tr(   3 )=      -0.011462   gamma_tr=      -0.001707 meV   omega=      7.2397 meV
     lambda( tot )=       0.335675
     lambda_tr( tot )=      -1.527053
     -------------------------------------------------------------------


     Number of (k,k+q) pairs on the Fermi surface:      216 out of      216


     ismear =     1 iq =      40 coord.:   0.16667  0.00000  0.50000 wt:   0.00463
     -------------------------------------------------------------------
     lambda   (   1 )=     -17.949367   gamma   =      -0.958573 meV   omega=      4.3349 meV
     lambda_tr(   1 )=     -26.652783   gamma_tr=      -1.423372 meV   omega=      4.3349 meV
     lambda   (   2 )=      -0.652418   gamma   =      -0.052817 meV   omega=      5.3373 meV
     lambda_tr(   2 )=      -1.289280   gamma_tr=      -0.104375 meV   omega=      5.3373 meV
     lambda   (   3 )=      -0.015876   gamma   =      -0.003219 meV   omega=      8.4470 meV
     lambda_tr(   3 )=      -0.322455   gamma_tr=      -0.065385 meV   omega=      8.4470 meV
     lambda( tot )=     -18.617662
     lambda_tr( tot )=     -28.264519
     -------------------------------------------------------------------


     Number of (k,k+q) pairs on the Fermi surface:      216 out of      216


     ismear =     1 iq =      41 coord.:   0.16667  0.00000  0.66667 wt:   0.00463
     -------------------------------------------------------------------
     lambda   (   1 )=       0.031292   gamma   =       0.001586 meV   omega=      4.2226 meV
     lambda_tr(   1 )=       0.504048   gamma_tr=       0.025541 meV   omega=      4.2226 meV
     lambda   (   2 )=       0.052434   gamma   =       0.003908 meV   omega=      5.1214 meV
     lambda_tr(   2 )=       0.028482   gamma_tr=       0.002123 meV   omega=      5.1214 meV
     lambda   (   3 )=       0.010369   gamma   =       0.001909 meV   omega=      8.0497 meV
     lambda_tr(   3 )=      -0.013702   gamma_tr=      -0.002523 meV   omega=      8.0497 meV
     lambda( tot )=       0.094095
     lambda_tr( tot )=       0.518828
     -------------------------------------------------------------------


     Number of (k,k+q) pairs on the Fermi surface:      216 out of      216


     ismear =     1 iq =      42 coord.:   0.16667  0.00000  0.83333 wt:   0.00463
     -------------------------------------------------------------------
     lambda   (   1 )=       4.788320   gamma   =       0.128938 meV   omega=      3.0782 meV
     lambda_tr(   1 )=       2.031577   gamma_tr=       0.054706 meV   omega=      3.0782 meV
     lambda   (   2 )=      -8.767729   gamma   =      -0.265381 meV   omega=      3.2635 meV
     lambda_tr(   2 )=     -18.741162   gamma_tr=      -0.567257 meV   omega=      3.2635 meV
     lambda   (   3 )=       1.153406   gamma   =       0.130001 meV   omega=      6.2976 meV
     lambda_tr(   3 )=       0.553229   gamma_tr=       0.062355 meV   omega=      6.2976 meV
     lambda( tot )=      -2.826003
     lambda_tr( tot )=     -16.156356
     -------------------------------------------------------------------


     Number of (k,k+q) pairs on the Fermi surface:      216 out of      216


     ismear =     1 iq =      43 coord.:   0.16667  0.16667  0.00000 wt:   0.00463
     -------------------------------------------------------------------
     lambda   (   1 )=      -7.220058   gamma   =      -0.069215 meV   omega=      1.8366 meV
     lambda_tr(   1 )=      -3.661157   gamma_tr=      -0.035098 meV   omega=      1.8366 meV
     lambda   (   2 )=       2.717508   gamma   =       0.026051 meV   omega=      1.8366 meV
     lambda_tr(   2 )=       1.759731   gamma_tr=       0.016870 meV   omega=      1.8366 meV
     lambda   (   3 )=       0.034672   gamma   =       0.002515 meV   omega=      5.0522 meV
     lambda_tr(   3 )=       0.006823   gamma_tr=       0.000495 meV   omega=      5.0522 meV
     lambda( tot )=      -4.467878
     lambda_tr( tot )=      -1.894604
     -------------------------------------------------------------------


     Number of (k,k+q) pairs on the Fermi surface:      216 out of      216


     ismear =     1 iq =      44 coord.:   0.16667  0.16667  0.16667 wt:   0.00463
     -------------------------------------------------------------------
     lambda   (   1 )=      -0.009745   gamma   =      -0.000088 meV   omega=      1.7871 meV
     lambda_tr(   1 )=      -0.012938   gamma_tr=      -0.000117 meV   omega=      1.7871 meV
     lambda   (   2 )=      -0.082199   gamma   =      -0.000746 meV   omega=      1.7871 meV
     lambda_tr(   2 )=      -0.087216   gamma_tr=      -0.000792 meV   omega=      1.7871 meV
     lambda   (   3 )=       0.032126   gamma   =       0.001654 meV   omega=      4.2564 meV
     lambda_tr(   3 )=       0.031480   gamma_tr=       0.001621 meV   omega=      4.2564 meV
     lambda( tot )=      -0.059818
     lambda_tr( tot )=      -0.068675
     -------------------------------------------------------------------


     Number of (k,k+q) pairs on the Fermi surface:      216 out of      216


     ismear =     1 iq =      45 coord.:   0.16667  0.16667  0.33333 wt:   0.00463
     -------------------------------------------------------------------
     lambda   (   1 )=      -0.742619   gamma   =      -0.019997 meV   omega=      3.0782 meV
     lambda_tr(   1 )=      -7.003546   gamma_tr=      -0.188589 meV   omega=      3.0782 meV
     lambda   (   2 )=      -3.102357   gamma   =      -0.093902 meV   omega=      3.2635 meV
     lambda_tr(   2 )=      -9.703994   gamma_tr=      -0.293720 meV   omega=      3.2635 meV
     lambda   (   3 )=       0.582807   gamma   =       0.065688 meV   omega=      6.2976 meV
     lambda_tr(   3 )=       0.471983   gamma_tr=       0.053197 meV   omega=      6.2976 meV
     lambda( tot )=      -3.262168
     lambda_tr( tot )=     -16.235557
     -------------------------------------------------------------------


     Number of (k,k+q) pairs on the Fermi surface:      216 out of      216


     ismear =     1 iq =      46 coord.:   0.16667  0.16667  0.50000 wt:   0.00463
     -------------------------------------------------------------------
     lambda   (   1 )=      -0.026441   gamma   =      -0.001340 meV   omega=      4.2226 meV
     lambda_tr(   1 )=       0.540688   gamma_tr=       0.027398 meV   omega=      4.2226 meV
     lambda   (   2 )=       0.048774   gamma   =       0.003636 meV   omega=      5.1214 meV
     lambda_tr(   2 )=      -0.043443   gamma_tr=      -0.003238 meV   omega=      5.1214 meV
     lambda   (   3 )=       0.011200   gamma   =       0.002062 meV   omega=      8.0497 meV
     lambda_tr(   3 )=      -0.006636   gamma_tr=      -0.001222 meV   omega=      8.0497 meV
     lambda( tot )=       0.033532
     lambda_tr( tot )=       0.490609
     -------------------------------------------------------------------


     Number of (k,k+q) pairs on the Fermi surface:      216 out of      216


     ismear =     1 iq =      47 coord.:   0.16667  0.16667  0.66667 wt:   0.00463
     -------------------------------------------------------------------
     lambda   (   1 )=     -10.219105   gamma   =      -0.545744 meV   omega=      4.3349 meV
     lambda_tr(   1 )=     -17.353109   gamma_tr=      -0.926730 meV   omega=      4.3349 meV
     lambda   (   2 )=      -0.623119   gamma   =      -0.050445 meV   omega=      5.3373 meV
     lambda_tr(   2 )=      -2.010632   gamma_tr=      -0.162773 meV   omega=      5.3373 meV
     lambda   (   3 )=       0.113537   gamma   =       0.023022 meV   omega=      8.4470 meV
     lambda_tr(   3 )=      -0.325396   gamma_tr=      -0.065982 meV   omega=      8.4470 meV
     lambda( tot )=     -10.728687
     lambda_tr( tot )=     -19.689137
     -------------------------------------------------------------------


     Number of (k,k+q) pairs on the Fermi surface:      216 out of      216


     ismear =     1 iq =      48 coord.:   0.16667  0.16667  0.83333 wt:   0.00463
     -------------------------------------------------------------------
     lambda   (   1 )=       0.193964   gamma   =       0.005852 meV   omega=      3.2583 meV
     lambda_tr(   1 )=      -1.412479   gamma_tr=      -0.042615 meV   omega=      3.2583 meV
     lambda   (   2 )=       0.013105   gamma   =       0.000532 meV   omega=      3.7812 meV
     lambda_tr(   2 )=       0.069180   gamma_tr=       0.002811 meV   omega=      3.7812 meV
     lambda   (   3 )=       0.007786   gamma   =       0.001160 meV   omega=      7.2397 meV
     lambda_tr(   3 )=      -0.019038   gamma_tr=      -0.002836 meV   omega=      7.2397 meV
     lambda( tot )=       0.214855
     lambda_tr( tot )=      -1.362338
     -------------------------------------------------------------------


     Number of (k,k+q) pairs on the Fermi surface:      216 out of      216


     ismear =     1 iq =      49 coord.:   0.16667  0.33333  0.00000 wt:   0.00463
     -------------------------------------------------------------------
     lambda   (   1 )=       0.123672   gamma   =       0.003731 meV   omega=      3.2583 meV
     lambda_tr(   1 )=      -1.027814   gamma_tr=      -0.031009 meV   omega=      3.2583 meV
     lambda   (   2 )=       0.014576   gamma   =       0.000592 meV   omega=      3.7812 meV
     lambda_tr(   2 )=       0.117747   gamma_tr=       0.004784 meV   omega=      3.7812 meV
     lambda   (   3 )=       0.006487   gamma   =       0.000966 meV   omega=      7.2397 meV
     lambda_tr(   3 )=      -0.020295   gamma_tr=      -0.003023 meV   omega=      7.2397 meV
     lambda( tot )=       0.144735
     lambda_tr( tot )=      -0.930362
     -------------------------------------------------------------------


     Number of (k,k+q) pairs on the Fermi surface:      216 out of      216


     ismear =     1 iq =      50 coord.:   0.16667  0.33333  0.16667 wt:   0.00463
     -------------------------------------------------------------------
     lambda   (   1 )=       0.782922   gamma   =       0.021082 meV   omega=      3.0782 meV
     lambda_tr(   1 )=      -2.823953   gamma_tr=      -0.076043 meV   omega=      3.0782 meV
     lambda   (   2 )=      -2.435585   gamma   =      -0.073720 meV   omega=      3.2635 meV
     lambda_tr(   2 )=     -11.402064   gamma_tr=      -0.345117 meV   omega=      3.2635 meV
     lambda   (   3 )=       0.168478   gamma   =       0.018989 meV   omega=      6.2976 meV
     lambda_tr(   3 )=      -0.185860   gamma_tr=      -0.020948 meV   omega=      6.2976 meV
     lambda( tot )=      -1.484185
     lambda_tr( tot )=     -14.411876
     -------------------------------------------------------------------


     Number of (k,k+q) pairs on the Fermi surface:      216 out of      216


     ismear =     1 iq =      51 coord.:   0.16667  0.33333  0.33333 wt:   0.00463
     -------------------------------------------------------------------
     lambda   (   1 )=       0.095427   gamma   =       0.002879 meV   omega=      3.2583 meV
     lambda_tr(   1 )=      -0.296484   gamma_tr=      -0.008945 meV   omega=      3.2583 meV
     lambda   (   2 )=       0.125303   gamma   =       0.005091 meV   omega=      3.7812 meV
     lambda_tr(   2 )=       0.152150   gamma_tr=       0.006182 meV   omega=      3.7812 meV
     lambda   (   3 )=       0.002278   gamma   =       0.000339 meV   omega=      7.2397 meV
     lambda_tr(   3 )=      -0.019766   gamma_tr=      -0.002944 meV   omega=      7.2397 meV
     lambda( tot )=       0.223009
     lambda_tr( tot )=      -0.164101
     -------------------------------------------------------------------


     Number of (k,k+q) pairs on the Fermi surface:      216 out of      216


     ismear =     1 iq =      52 coord.:   0.16667  0.33333  0.50000 wt:   0.00463
     -------------------------------------------------------------------
     lambda   (   1 )=      -1.078540   gamma   =      -0.064230 meV   omega=      4.5777 meV
     lambda_tr(   1 )=      -1.871463   gamma_tr=      -0.111450 meV   omega=      4.5777 meV
     lambda   (   2 )=       1.080626   gamma   =       0.090687 meV   omega=      5.4341 meV
     lambda_tr(   2 )=      -3.448676   gamma_tr=      -0.289416 meV   omega=      5.4341 meV
     lambda   (   3 )=       0.213346   gamma   =       0.039979 meV   omega=      8.1203 meV
     lambda_tr(   3 )=       0.758714   gamma_tr=       0.142176 meV   omega=      8.1203 meV
     lambda( tot )=       0.215432
     lambda_tr( tot )=      -4.561425
     -------------------------------------------------------------------


     Number of (k,k+q) pairs on the Fermi surface:      216 out of      216


     ismear =     1 iq =      53 coord.:   0.16667  0.33333  0.66667 wt:   0.00463
     -------------------------------------------------------------------
     lambda   (   1 )=       0.007596   gamma   =       0.000571 meV   omega=      5.1442 meV
     lambda_tr(   1 )=       0.015632   gamma_tr=       0.001176 meV   omega=      5.1442 meV
     lambda   (   2 )=       0.008317   gamma   =       0.001118 meV   omega=      6.8777 meV
     lambda_tr(   2 )=       0.008127   gamma_tr=       0.001093 meV   omega=      6.8777 meV
     lambda   (   3 )=       0.017981   gamma   =       0.003281 meV   omega=      8.0133 meV
     lambda_tr(   3 )=       0.083690   gamma_tr=       0.015272 meV   omega=      8.0133 meV
     lambda( tot )=       0.033895
     lambda_tr( tot )=       0.107448
     -------------------------------------------------------------------


     Number of (k,k+q) pairs on the Fermi surface:      216 out of      216


     ismear =     1 iq =      54 coord.:   0.16667  0.33333  0.83333 wt:   0.00463
     -------------------------------------------------------------------
     lambda   (   1 )=      -2.104967   gamma   =      -0.125356 meV   omega=      4.5777 meV
     lambda_tr(   1 )=      -1.523218   gamma_tr=      -0.090711 meV   omega=      4.5777 meV
     lambda   (   2 )=       0.540959   gamma   =       0.045398 meV   omega=      5.4341 meV
     lambda_tr(   2 )=      -3.875575   gamma_tr=      -0.325242 meV   omega=      5.4341 meV
     lambda   (   3 )=       0.008441   gamma   =       0.001582 meV   omega=      8.1203 meV
     lambda_tr(   3 )=       0.358791   gamma_tr=       0.067234 meV   omega=      8.1203 meV
     lambda( tot )=      -1.555566
     lambda_tr( tot )=      -5.040002
     -------------------------------------------------------------------


     Number of (k,k+q) pairs on the Fermi surface:      216 out of      216


     ismear =     1 iq =      55 coord.:   0.16667  0.50000  0.00000 wt:   0.00463
     -------------------------------------------------------------------
     lambda   (   1 )=     -15.967581   gamma   =      -0.852737 meV   omega=      4.3349 meV
     lambda_tr(   1 )=     -25.654243   gamma_tr=      -1.370046 meV   omega=      4.3349 meV
     lambda   (   2 )=      -0.078745   gamma   =      -0.006375 meV   omega=      5.3373 meV
     lambda_tr(   2 )=      -0.262608   gamma_tr=      -0.021260 meV   omega=      5.3373 meV
     lambda   (   3 )=      -0.086793   gamma   =      -0.017599 meV   omega=      8.4470 meV
     lambda_tr(   3 )=      -0.559634   gamma_tr=      -0.113479 meV   omega=      8.4470 meV
     lambda( tot )=     -16.133120
     lambda_tr( tot )=     -26.476485
     -------------------------------------------------------------------


     Number of (k,k+q) pairs on the Fermi surface:      216 out of      216


     ismear =     1 iq =      56 coord.:   0.16667  0.50000  0.16667 wt:   0.00463
     -------------------------------------------------------------------
     lambda   (   1 )=       0.040761   gamma   =       0.002065 meV   omega=      4.2226 meV
     lambda_tr(   1 )=       0.419728   gamma_tr=       0.021269 meV   omega=      4.2226 meV
     lambda   (   2 )=       0.041792   gamma   =       0.003115 meV   omega=      5.1214 meV
     lambda_tr(   2 )=       0.041963   gamma_tr=       0.003128 meV   omega=      5.1214 meV
     lambda   (   3 )=       0.009562   gamma   =       0.001761 meV   omega=      8.0497 meV
     lambda_tr(   3 )=      -0.014626   gamma_tr=      -0.002693 meV   omega=      8.0497 meV
     lambda( tot )=       0.092115
     lambda_tr( tot )=       0.447065
     -------------------------------------------------------------------


     Number of (k,k+q) pairs on the Fermi surface:      216 out of      216


     ismear =     1 iq =      57 coord.:   0.16667  0.50000  0.33333 wt:   0.00463
     -------------------------------------------------------------------
     lambda   (   1 )=       1.299019   gamma   =       0.077360 meV   omega=      4.5777 meV
     lambda_tr(   1 )=       2.905666   gamma_tr=       0.173039 meV   omega=      4.5777 meV
     lambda   (   2 )=      -0.704950   gamma   =      -0.059160 meV   omega=      5.4341 meV
     lambda_tr(   2 )=      -4.231986   gamma_tr=      -0.355152 meV   omega=      5.4341 meV
     lambda   (   3 )=       0.159859   gamma   =       0.029956 meV   omega=      8.1203 meV
     lambda_tr(   3 )=       0.258832   gamma_tr=       0.048503 meV   omega=      8.1203 meV
     lambda( tot )=       0.753927
     lambda_tr( tot )=      -1.067489
     -------------------------------------------------------------------


     Number of (k,k+q) pairs on the Fermi surface:      216 out of      216


     ismear =     1 iq =      58 coord.:   0.16667  0.50000  0.50000 wt:   0.00463
     -------------------------------------------------------------------
     lambda   (   1 )=       0.030006   gamma   =       0.001954 meV   omega=      4.7874 meV
     lambda_tr(   1 )=       0.060434   gamma_tr=       0.003936 meV   omega=      4.7874 meV
     lambda   (   2 )=       0.018621   gamma   =       0.001703 meV   omega=      5.6726 meV
     lambda_tr(   2 )=      -0.011855   gamma_tr=      -0.001084 meV   omega=      5.6726 meV
     lambda   (   3 )=       0.005009   gamma   =       0.001120 meV   omega=      8.8695 meV
     lambda_tr(   3 )=       0.012688   gamma_tr=       0.002837 meV   omega=      8.8695 meV
     lambda( tot )=       0.053636
     lambda_tr( tot )=       0.061267
     -------------------------------------------------------------------


     Number of (k,k+q) pairs on the Fermi surface:      216 out of      216


     ismear =     1 iq =      59 coord.:   0.16667  0.50000  0.66667 wt:   0.00463
     -------------------------------------------------------------------
     lambda   (   1 )=      -1.373387   gamma   =      -0.118437 meV   omega=      5.5086 meV
     lambda_tr(   1 )=      -1.389726   gamma_tr=      -0.119846 meV   omega=      5.5086 meV
     lambda   (   2 )=      -0.063433   gamma   =      -0.007415 meV   omega=      6.4134 meV
     lambda_tr(   2 )=      -0.100337   gamma_tr=      -0.011729 meV   omega=      6.4134 meV
     lambda   (   3 )=      -0.778698   gamma   =      -0.163917 meV   omega=      8.6064 meV
     lambda_tr(   3 )=      -0.726403   gamma_tr=      -0.152908 meV   omega=      8.6064 meV
     lambda( tot )=      -2.215519
     lambda_tr( tot )=      -2.216466
     -------------------------------------------------------------------


     Number of (k,k+q) pairs on the Fermi surface:      216 out of      216


     ismear =     1 iq =      60 coord.:   0.16667  0.50000  0.83333 wt:   0.00463
     -------------------------------------------------------------------
     lambda   (   1 )=       0.009092   gamma   =       0.000684 meV   omega=      5.1442 meV
     lambda_tr(   1 )=       0.006470   gamma_tr=       0.000487 meV   omega=      5.1442 meV
     lambda   (   2 )=       0.005813   gamma   =       0.000781 meV   omega=      6.8777 meV
     lambda_tr(   2 )=      -0.002468   gamma_tr=      -0.000332 meV   omega=      6.8777 meV
     lambda   (   3 )=       0.016704   gamma   =       0.003048 meV   omega=      8.0133 meV
     lambda_tr(   3 )=       0.078569   gamma_tr=       0.014338 meV   omega=      8.0133 meV
     lambda( tot )=       0.031609
     lambda_tr( tot )=       0.082570
     -------------------------------------------------------------------


     Number of (k,k+q) pairs on the Fermi surface:      216 out of      216


     ismear =     1 iq =      61 coord.:   0.16667  0.66667  0.00000 wt:   0.00463
     -------------------------------------------------------------------
     lambda   (   1 )=      -0.246295   gamma   =      -0.012480 meV   omega=      4.2226 meV
     lambda_tr(   1 )=       1.550452   gamma_tr=       0.078565 meV   omega=      4.2226 meV
     lambda   (   2 )=       0.032253   gamma   =       0.002404 meV   omega=      5.1214 meV
     lambda_tr(   2 )=      -0.064865   gamma_tr=      -0.004835 meV   omega=      5.1214 meV
     lambda   (   3 )=       0.008716   gamma   =       0.001605 meV   omega=      8.0497 meV
     lambda_tr(   3 )=      -0.010907   gamma_tr=      -0.002008 meV   omega=      8.0497 meV
     lambda( tot )=      -0.205325
     lambda_tr( tot )=       1.474679
     -------------------------------------------------------------------


     Number of (k,k+q) pairs on the Fermi surface:      216 out of      216


     ismear =     1 iq =      62 coord.:   0.16667  0.66667  0.16667 wt:   0.00463
     -------------------------------------------------------------------
     lambda   (   1 )=      -2.384400   gamma   =      -0.127337 meV   omega=      4.3349 meV
     lambda_tr(   1 )=      -4.376522   gamma_tr=      -0.233725 meV   omega=      4.3349 meV
     lambda   (   2 )=      -4.914852   gamma   =      -0.397888 meV   omega=      5.3373 meV
     lambda_tr(   2 )=     -11.095264   gamma_tr=      -0.898232 meV   omega=      5.3373 meV
     lambda   (   3 )=       0.037411   gamma   =       0.007586 meV   omega=      8.4470 meV
     lambda_tr(   3 )=      -0.519336   gamma_tr=      -0.105307 meV   omega=      8.4470 meV
     lambda( tot )=      -7.261841
     lambda_tr( tot )=     -15.991121
     -------------------------------------------------------------------


     Number of (k,k+q) pairs on the Fermi surface:      216 out of      216


     ismear =     1 iq =      63 coord.:   0.16667  0.66667  0.33333 wt:   0.00463
     -------------------------------------------------------------------
     lambda   (   1 )=       0.004089   gamma   =       0.000308 meV   omega=      5.1442 meV
     lambda_tr(   1 )=       0.010152   gamma_tr=       0.000763 meV   omega=      5.1442 meV
     lambda   (   2 )=       0.009307   gamma   =       0.001251 meV   omega=      6.8777 meV
     lambda_tr(   2 )=       0.014686   gamma_tr=       0.001974 meV   omega=      6.8777 meV
     lambda   (   3 )=       0.017659   gamma   =       0.003223 meV   omega=      8.0133 meV
     lambda_tr(   3 )=       0.081434   gamma_tr=       0.014861 meV   omega=      8.0133 meV
     lambda( tot )=       0.031056
     lambda_tr( tot )=       0.106271
     -------------------------------------------------------------------


     Number of (k,k+q) pairs on the Fermi surface:      216 out of      216


     ismear =     1 iq =      64 coord.:   0.16667  0.66667  0.50000 wt:   0.00463
     -------------------------------------------------------------------
     lambda   (   1 )=      -1.180165   gamma   =      -0.101774 meV   omega=      5.5086 meV
     lambda_tr(   1 )=      -1.182074   gamma_tr=      -0.101939 meV   omega=      5.5086 meV
     lambda   (   2 )=       0.376775   gamma   =       0.044042 meV   omega=      6.4134 meV
     lambda_tr(   2 )=       0.386842   gamma_tr=       0.045219 meV   omega=      6.4134 meV
     lambda   (   3 )=      -0.697901   gamma   =      -0.146909 meV   omega=      8.6064 meV
     lambda_tr(   3 )=      -0.675894   gamma_tr=      -0.142276 meV   omega=      8.6064 meV
     lambda( tot )=      -1.501290
     lambda_tr( tot )=      -1.471127
     -------------------------------------------------------------------


     Number of (k,k+q) pairs on the Fermi surface:      216 out of      216


     ismear =     1 iq =      65 coord.:   0.16667  0.66667  0.66667 wt:   0.00463
     -------------------------------------------------------------------
     lambda   (   1 )=       0.020174   gamma   =       0.001314 meV   omega=      4.7874 meV
     lambda_tr(   1 )=       0.121071   gamma_tr=       0.007886 meV   omega=      4.7874 meV
     lambda   (   2 )=       0.018992   gamma   =       0.001737 meV   omega=      5.6726 meV
     lambda_tr(   2 )=      -0.042327   gamma_tr=      -0.003871 meV   omega=      5.6726 meV
     lambda   (   3 )=       0.004582   gamma   =       0.001024 meV   omega=      8.8695 meV
     lambda_tr(   3 )=       0.012616   gamma_tr=       0.002820 meV   omega=      8.8695 meV
     lambda( tot )=       0.043748
     lambda_tr( tot )=       0.091360
     -------------------------------------------------------------------


     Number of (k,k+q) pairs on the Fermi surface:      216 out of      216


     ismear =     1 iq =      66 coord.:   0.16667  0.66667  0.83333 wt:   0.00463
     -------------------------------------------------------------------
     lambda   (   1 )=      -6.383063   gamma   =      -0.380127 meV   omega=      4.5777 meV
     lambda_tr(   1 )=      -5.505990   gamma_tr=      -0.327895 meV   omega=      4.5777 meV
     lambda   (   2 )=       0.449440   gamma   =       0.037717 meV   omega=      5.4341 meV
     lambda_tr(   2 )=      -1.084640   gamma_tr=      -0.091024 meV   omega=      5.4341 meV
     lambda   (   3 )=      -0.001442   gamma   =      -0.000270 meV   omega=      8.1203 meV
[...]
      210        7      6.8740    829.4013    122.2313      1.0077     -0.0076
      211        7      6.7122   1380.1816    288.2781      1.1426     -0.1248
      212        7      5.5884   1385.0229    797.5692     -2.7237     -1.3671
      213        7      4.6673   1367.8378    275.5186      1.1924     -0.1614
      214        7      5.4585   1261.3547    412.0779      1.7444     -0.4267
      215        7      6.8732   1292.2549    149.8768      0.9699      0.0310
      216        7      7.7957    837.7288     53.9342      1.0363     -0.0350
  
        1        8      8.2862    861.2746      0.1730      0.9046      0.1055
        2        8      7.7982   1058.7571     68.0119      1.0356     -0.0343
        3        8      6.7126   1224.9313    131.2917      0.9207      0.0861
        4        8      6.1174   1154.8162     81.1848      0.8946      0.1179
        5        8      6.7126   1265.6280    150.5759      0.8922      0.1208
        6        8      7.7982   1076.3334     55.3756      0.9991      0.0009
        7        8      7.7982    892.5005     75.2294      1.0642     -0.0603
        8        8      6.7129    956.1000    228.2937      1.0606     -0.0571
        9        8      5.5908   1230.4607    552.7623     16.7335     -0.9402
       10        8      4.6703   1126.2954    279.2416      1.4193     -0.2954
       11        8      5.4617    932.1309    296.7991      1.4449     -0.3079
       12        8      6.8817   1036.0301    123.9654      0.9514      0.0511
       13        8      6.7126   1046.8751    140.9129      0.9257      0.0802
       14        8      5.5908    982.8807    596.9589    -12.4297     -1.0805
       15        8      3.4267    865.1823    272.0215      1.2761     -0.2163
       16        8      2.3802    845.0918    448.1927      1.4363     -0.3038
       17        8      3.4954   1060.8138    378.5457      1.6091     -0.3785
       18        8      5.4617    911.6749    272.8725      1.3881     -0.2796
       19        8      6.1174    932.3305     85.5585      0.9320      0.0730
       20        8      4.6703   1000.5566    251.0050      1.3120     -0.2378
       21        8      2.3802    810.1263    437.7589      1.5569     -0.3577
       22        8      1.7131    892.2540     20.8959      0.6961      0.4366
       23        8      2.3802    796.6416    452.1561      1.5310     -0.3468
       24        8      4.6703   1006.9209    251.4426      1.3514     -0.2600
       25        8      6.7126    996.5292    121.5281      0.9665      0.0347
       26        8      5.4617    892.0026    278.5651      1.4237     -0.2976
       27        8      3.4954   1012.3748    303.1925      1.3670     -0.2685
       28        8      2.3802    873.2269    424.1473      1.4774     -0.3231
       29        8      3.4267    865.9986    282.3203      1.3363     -0.2516
       30        8      5.5908    959.9848    455.5066      3.7529     -0.7335
       31        8      7.7982    871.1343     51.2817      1.0253     -0.0247
       32        8      6.8817   1032.5396    127.8965      0.9695      0.0315
       33        8      5.4617    929.6993    278.9910      1.4141     -0.2928
       34        8      4.6703   1143.3530    266.6090      1.2925     -0.2263
       35        8      5.5908   1242.1586    666.5252     -5.1858     -1.1928
       36        8      6.7129    856.8277    221.5877      1.0983     -0.0895
       37        8      7.7982   1044.0763     75.7367      1.0506     -0.0482
       38        8      6.7129   1087.9213    252.1151      1.1436     -0.1256
       39        8      5.5908   1188.7884    644.4837    -27.1456     -1.0368
       40        8      4.6703   1326.1045    271.9271      1.2358     -0.1908
       41        8      5.4617   1214.1692    353.7643      1.4057     -0.2886
       42        8      6.8817   1401.8011    159.0988      0.8942      0.1183
       43        8      6.7122   1390.7692    282.1139      1.1297     -0.1148
       44        8      7.7982    852.4329     54.1165      1.0242     -0.0237
       45        8      6.8827   1358.7188    176.5472      0.9280      0.0776
       46        8      5.4623   1227.3878    324.6743      1.3210     -0.2430
       47        8      4.6689   1379.0067    260.3245      1.1832     -0.1549
       48        8      5.5902   1420.3085    836.8832     -2.2026     -1.4540
       49        8      5.5902   1123.7486    760.3615     -2.8528     -1.3505
       50        8      6.8817    844.5364    118.8658      0.9788      0.0217
       51        8      5.5908    977.4585    609.0519    -12.3544     -1.0809
       52        8      4.0623   1415.1718    906.6061     -7.5790     -1.1319
       53        8      2.9909   1327.8726    642.7954      2.4824     -0.5972
       54        8      4.0609   1284.5401    899.0765     -4.9005     -1.2041
       55        8      4.6689   1248.9430    269.1273      1.1713     -0.1462
       56        8      5.4617    759.6278    265.2006      1.3876     -0.2793
       57        8      4.0621    785.6324    595.3829      3.8930     -0.7431
       58        8      2.3802    716.0687    410.1043      1.5578     -0.3581
       59        8      1.4397   1375.1732    249.7852      0.7880      0.2690
       60        8      2.9909   1464.9115    689.2009      2.5382     -0.6060
       61        8      5.4623   1175.1122    342.7262      1.4353     -0.3033
       62        8      4.6703    955.3211    250.3934      1.3323     -0.2494
       63        8      2.9903    828.8816    764.8386    136.8531     -0.9927
       64        8      1.4368    780.3451    212.6628      0.8130      0.2300
       65        8      2.3802    754.8031    395.3092      1.4354     -0.3033
       66        8      4.0623   1472.5202    901.9217     -4.9105     -1.2036
       67        8      6.8827   1305.4641    142.2274      0.9526      0.0498
       68        8      5.5908   1189.3874    561.5980     31.3062     -0.9681
       69        8      4.0621   1033.0706    674.4444      8.1161     -0.8768
       70        8      2.9903   1171.8010    702.2289      4.8379     -0.7933
       71        8      4.0621   1307.6019    851.1237     17.5293     -0.9430
       72        8      5.5908   1212.4560    706.2723     -3.3047     -1.3026
       73        8      6.7126   1231.7282    144.6228      0.8943      0.1182
       74        8      5.5908   1114.9136    667.6724     -4.5356     -1.2205
       75        8      3.4267   1025.2296    302.6361      1.3377     -0.2524
       76        8      2.3802   1158.5920    506.7801      1.4342     -0.3027
       77        8      3.4954   1459.9949    527.5201      3.3279     -0.6995
       78        8      5.4617   1211.2180    303.1177      1.2505     -0.2003
       79        8      5.5902   1353.4053    809.5261     -2.4665     -1.4054
       80        8      6.8817    928.8999    126.5393      0.9919      0.0082
       81        8      5.5908   1132.5685    686.8199     -4.4981     -1.2223
       82        8      4.0623   1549.2667   1081.5693     -2.4502     -1.4081
       83        8      2.9909   1727.4609    677.9473      2.2346     -0.5525
       84        8      4.0609   1659.8522   1108.1663     -2.4117     -1.4146
       85        8      3.4267   1349.9343    393.6505      1.5262     -0.3448
       86        8      5.5902   1079.1346    682.6712     -8.4816     -1.1179
       87        8      6.7126   1010.4460    138.1490      0.9327      0.0722
       88        8      5.4623   1163.9109    410.9119      1.5815     -0.3677
       89        8      3.4954   1493.2191    610.1200      6.4954     -0.8460
       90        8      2.3795   1281.0293    499.5410      1.4860     -0.3271
       91        8      2.3795   1323.4816    515.7151      1.3825     -0.2767
       92        8      4.0609   1159.5006    978.1593     -2.9359     -1.3406
       93        8      5.4617    745.6299    315.0086      1.5744     -0.3648
       94        8      4.6703    948.8663    256.6275      1.3502     -0.2594
       95        8      2.9909   1289.2978    568.0412      1.9448     -0.4858
       96        8      1.4395   1534.4173    266.5142      0.7567      0.3216
       97        8      3.4954   1519.3863    571.3966      3.6320     -0.7247
       98        8      2.9909   1245.4218    492.3697      1.5429     -0.3519
       99        8      3.4954    875.6611    389.9346      1.8149     -0.4490
      100        8      2.9903    766.1370    732.5270     16.6692     -0.9400
      101        8      3.4954    909.8713    296.4958      1.3644     -0.2671
      102        8      2.9909   1288.9670    723.9296      5.3075     -0.8116
      103        8      5.4623   1263.9049    413.4606      1.7937     -0.4425
      104        8      4.0623   1493.8554    878.2064     -6.3419     -1.1577
      105        8      2.3802    678.6504    436.3176      1.5056     -0.3358
      106        8      1.4368    792.3208    210.8798      0.7754      0.2897
      107        8      2.9903   1107.1599    731.1560      6.2146     -0.8391
      108        8      4.6703   1067.3170    287.2920      1.4294     -0.3004
      109        8      6.1174   1120.9099     81.8447      0.8996      0.1116
      110        8      4.6703   1283.2951    268.4340      1.2281     -0.1857
      111        8      2.3802   1264.1224    486.9939      1.4422     -0.3066
      112        8      1.7131   1057.6584     24.0077      0.6904      0.4485
      113        8      2.3802   1153.6891    497.0149      1.4701     -0.3198
      114        8      4.6703   1302.5424    250.7856      1.2062     -0.1710
      115        8      4.6689   1370.6858    276.1141      1.2044     -0.1697
      116        8      5.4617    852.7829    265.0103      1.3917     -0.2814
      117        8      4.0621    875.0295    628.1036      4.2497     -0.7647
      118        8      2.3802    713.7224    426.2237      1.5507     -0.3551
      119        8      1.4397   1775.2475    284.9233      0.7482      0.3366
      120        8      2.9909   1755.9798    657.2734      1.9365     -0.4836
      121        8      2.3795   1287.3980    481.5255      1.4697     -0.3196
      122        8      4.0609   1215.1354    938.6286     -3.7650     -1.2656
      123        8      5.4617    811.8114    288.0133      1.4886     -0.3282
      124        8      4.6703    933.4883    254.1676      1.2859     -0.2224
      125        8      2.9909   1336.1312    682.4992      3.2399     -0.6913
      126        8      1.4395   1872.6582    289.4565      0.7210      0.3870
      127        8      1.7143   1401.7131     27.2796      0.6710      0.4903
      128        8      2.3795   1313.8472    509.7374      1.4120     -0.2918
      129        8      4.6689   1223.3235    265.8441      1.1610     -0.1387
      130        8      6.1174    894.2532     84.7670      0.9352      0.0693
      131        8      4.6689   1214.9146    288.8114      1.2072     -0.1716
      132        8      2.3795   1236.3612    560.3241      1.6205     -0.3829
      133        8      2.3795   1326.2899    492.9664      1.3428     -0.2553
      134        8      1.4395   1814.5187    298.1612      0.7709      0.2972
      135        8      2.9909   1336.1218    508.7636      1.4580     -0.3141
      136        8      4.6703    935.5146    276.3958      1.4676     -0.3186
      137        8      5.4617    817.0928    249.7165      1.3484     -0.2584
      138        8      4.0609   1193.1089    975.2375     -4.0196     -1.2488
      139        8      4.6689   1354.6769    263.9417      1.1744     -0.1485
      140        8      2.9909   1704.8791    593.4840      1.9776     -0.4943
      141        8      1.4397   1714.3042    287.2813      0.7901      0.2656
      142        8      2.3802    679.2135    477.2847      1.6385     -0.3897
      143        8      4.0621    960.5788    656.3068      6.7316     -0.8514
      144        8      5.4617    842.7254    300.2961      1.5135     -0.3393
      145        8      6.7126   1189.5005    135.4823      0.9336      0.0711
      146        8      5.4617   1247.9433    328.5270      1.5075     -0.3366
      147        8      3.4954   1467.1404    400.5808      1.5105     -0.3380
      148        8      2.3802   1287.7293    471.9551      1.2818     -0.2199
      149        8      3.4267   1025.5153    306.7677      1.3704     -0.2703
      150        8      5.5908   1148.2594    680.2288     -6.3788     -1.1568
      151        8      5.4623   1226.2955    366.9608      1.4546     -0.3125
      152        8      4.6703   1075.9822    251.1556      1.3048     -0.2336
      153        8      2.9903   1094.6791    705.2133      6.4184     -0.8442
      154        8      1.4368    788.4001    224.6091      0.8370      0.1948
      155        8      2.3802    694.8503    412.0800      1.5307     -0.3467
      156        8      4.0623   1604.1994   1083.1880     -2.4770     -1.4037
      157        8      3.4954   1499.1671    607.0331      5.7789     -0.8270
      158        8      2.9909   1238.5547    613.3812      2.4622     -0.5939
      159        8      3.4954    952.6709    367.9944      1.6330     -0.3876
      160        8      2.9903    671.6338    572.2184      3.3257     -0.6993
      161        8      3.4954    820.1087    317.0157      1.4500     -0.3103
      162        8      2.9909   1367.6497    724.6328      3.5307     -0.7168
      163        8      2.3795   1234.1288    537.4948      1.5169     -0.3408
      164        8      1.4395   1510.0744    260.6861      0.7448      0.3427
      165        8      2.9909   1372.5190    659.0972      2.3930     -0.5821
      166        8      4.6703    938.5585    256.1231      1.4216     -0.2966
      167        8      5.4617    732.5670    262.3282      1.3942     -0.2827
      168        8      4.0609   1248.2069   1075.3348     -2.4869     -1.4021
      169        8      3.4267   1339.6306    395.5925      1.6867     -0.4071
      170        8      2.3795   1350.0838    504.4647      1.3144     -0.2392
      171        8      3.4954   1516.0783    571.3089      3.5607     -0.7192
      172        8      5.4623   1165.2749    328.3035      1.3563     -0.2627
      173        8      6.7126    956.8412    119.7972      0.9706      0.0303
      174        8      5.5902   1103.3031    898.5192     -1.6354     -1.6115
      175        8      5.5902   1346.6228    747.8736     -3.6881     -1.2711
      176        8      4.0609   1673.0525    971.6535     -4.1118     -1.2432
      177        8      2.9909   1706.6644    538.7571      1.6582     -0.3969
      178        8      4.0623   1577.4777    968.3438     -3.2074     -1.3118
      179        8      5.5908   1136.2723    568.1931     97.9621     -0.9898
      180        8      6.8817    950.9903    131.1648      0.9878      0.0124
      181        8      7.7982   1032.7283     58.1583      1.0214     -0.0210
      182        8      6.8817   1325.3271    119.5713      0.9481      0.0547
      183        8      5.4617   1256.8875    311.9928      1.4439     -0.3074
      184        8      4.6703   1315.2606    253.4636      1.1828     -0.1546
      185        8      5.5908   1128.8105    532.7912      6.9933     -0.8570
      186        8      6.7129   1026.7911    236.5443      1.1269     -0.1126
      187        8      6.8827   1357.0708    181.0409      0.9426      0.0609
      188        8      5.5908   1231.3548    533.9758      9.5532     -0.8953
      189        8      4.0621   1286.1687    700.0282 -11661.6919     -1.0001
      190        8      2.9903   1163.7314    698.1172      4.9324     -0.7973
      191        8      4.0621    994.9944    713.5307      6.5225     -0.8467
      192        8      5.5908   1166.8149    765.8645     -2.3258     -1.4300
      193        8      5.4623   1165.5858    382.7819      1.4729     -0.3210
      194        8      4.0623   1390.0917    919.3961     -6.9186     -1.1445
      195        8      2.3802    769.6654    426.6684      1.3936     -0.2825
      196        8      1.4368    715.2451    220.5176      0.8209      0.2182
      197        8      2.9903    754.5183    596.4536      3.6128     -0.7232
      198        8      4.6703    962.4425    273.7555      1.3834     -0.2772
      199        8      4.6689   1242.1838    272.3094      1.1597     -0.1377
      200        8      2.9909   1392.0184    625.3197      2.0971     -0.5231
      201        8      1.4397   1389.8339    255.2676      0.7957      0.2568
      202        8      2.3802    706.9136    455.3127      1.5932     -0.3723
      203        8      4.0621    719.7126    481.7873      2.5027     -0.6004
      204        8      5.4617    743.1137    280.0177      1.4934     -0.3304
      205        8      5.5902   1169.1728    852.2174     -2.1361     -1.4681
      206        8      4.0609   1281.5627    962.1955     -5.0537     -1.1979
      207        8      2.9909   1271.5353    644.6910      3.5718     -0.7200
      208        8      4.0623   1407.9478    830.0677     -6.8823     -1.1453
      209        8      5.5908    974.5212    427.9235      3.5087     -0.7150
      210        8      6.8817    836.5553    125.9166      0.9879      0.0123
      211        8      6.7122   1380.1816    288.2781      1.1426     -0.1248
      212        8      5.5902   1360.4223    841.3853     -1.8435     -1.5425
      213        8      4.6689   1360.8042    286.0555      1.2372     -0.1917
      214        8      5.4623   1275.6812    432.9526      1.8161     -0.4494
      215        8      6.8827   1333.0642    156.5361      0.9395      0.0644
      216        8      7.7982    837.1670     68.2672      1.0650     -0.0611
  
     ===================================================================
     Memory usage:  VmHWM =        87Mb
                   VmPeak =       483Mb
     ===================================================================


     ===================================================================
     Eliashberg Spectral Function in the Migdal Approximation
     ===================================================================

     lambda :    0.9547393
     lambda_tr :    2.5846422
 
     Estimated Allen-Dynes Tc
 
     logavg =    0.0002426 l_a2F =    0.9553498
     mu =   0.10 Tc =         2.481861517115 K
     mu =   0.12 Tc =         2.231272504957 K
     mu =   0.14 Tc =         1.987503499827 K
     mu =   0.16 Tc =         1.751843178436 K
     mu =   0.18 Tc =         1.525674828736 K
     mu =   0.20 Tc =         1.310463808044 K
     a2F          :      0.08s CPU      0.09s WALL (       1 calls)

     Unfolding on the coarse grid
     elphon_wrap  :     94.57s CPU     95.33s WALL (       1 calls)

     INITIALIZATION: 

     init_vloc    :      0.10s CPU      0.10s WALL (      29 calls)
     init_us_1    :      2.54s CPU      2.55s WALL (      29 calls)


     Electron-Phonon interpolation
     ephwann      :      2.19s CPU      2.33s WALL (       1 calls)
     ep-interp    :      1.85s CPU      1.97s WALL (     216 calls)
     PH SELF-ENER :      0.15s CPU      0.14s WALL (     216 calls)

     Ham: step 1  :      0.00s CPU      0.00s WALL (       1 calls)
     Ham: step 2  :      0.00s CPU      0.00s WALL (       1 calls)
     ep: step 1   :      0.00s CPU      0.00s WALL (      81 calls)
     ep: step 2   :      0.01s CPU      0.01s WALL (      81 calls)
     DynW2B       :      0.01s CPU      0.01s WALL (     216 calls)
     HamW2B       :      0.76s CPU      0.83s WALL (   23436 calls)
     ephW2Bp      :      0.16s CPU      0.16s WALL (     216 calls)


     Total program execution
     EPW          :  1m45.26s CPU     1m46.24s WALL

                                                                                          
 Please consider citing:                                                                  
 S. Ponce, E. R. Margine, C. Verdi and F. Giustino, Comput. Phys. Commun. 209, 116 (2016) 
                                                                                          
