                                                                                      
                                       ``:oss/                                        
                           `.+s+.     .+ys--yh+     `./ss+.                           
                          -sh//yy+`   +yy   +yy    -+h+-oyy                           
                          -yh- .oyy/.-sh.   .syo-.:sy-  /yh                           
                 `.-.`    `yh+   -oyyyo.     `/syys:    oys      `.`                  
               `/+ssys+-` `sh+      `                   oys`   .:osyo`                
               -yh- ./syyooyo`                          .sys+/oyo--yh/                
               `yy+    .-:-.                             `-/+/:`  -sh-                
                /yh.                                              oys                 
          ``..---hho---------`   .---------..`      `.-----.`    -hd+---.             
       `./osmNMMMMMMMMMMMMMMMs. +NNMMMMMMMMNNmh+.   yNMMMMMNm-  oNMMMMMNmo++:`        
       +sy--/sdMMMhyyyyyyyNMMh- .oyNMMmyyyyyhNMMm+` -yMMMdyyo:` .oyyNMMNhs+syy`       
       -yy/   /MMM+.`-+/``mMMy-   `mMMh:`````.dMMN:` `MMMy-`-dhhy```mMMy:``+hs        
        -yy+` /MMMo:-mMM+`-oo/.    mMMh:     `dMMN/`  dMMm:`dMMMMy..MMMo-.+yo`        
         .sys`/MMMMNNMMMs-         mMMmyooooymMMNo:   oMMM/sMMMMMM++MMN//oh:          
          `sh+/MMMhyyMMMs- `-`     mMMMMMMMMMNmy+-`   -MMMhMMMsmMMmdMMd/yy+           
    `-/+++oyy-/MMM+.`/hh/.`mNm:`   mMMd+/////:-.`      NMMMMMd/:NMMMMMy:/yyo/:.`      
   +os+//:-..-oMMMo:--:::-/MMMo. .-mMMd+---`           hMMMMN+. oMMMMMo. `-+osyso:`   
   syo     `mNMMMMMNNNNNNNNMMMo.oNNMMMMMNNNN:`         +MMMMs:`  dMMMN/`     ``:syo   
   /yh`     :syyyyyyyyyyyyyyyy+.`+syyyyyyyyo:`         .oyys:`   .oyys:`        +yh   
   -yh-        ````````````````    `````````              ``        ``          oys   
   -+h/------------------------::::::::://////++++++++++++++++++++++///////::::/yd:   
   shdddddddddddddddddddddddddddddhhhhhhhhyyyyyssssssssssssssssyyyyyyyhhhhhhhddddh`   
                                                                                      
  S. Ponce, E. R. Margine, C. Verdi, and F. Giustino,                                 
                                                Comput. Phys. Commun. 209, 116 (2016) 
                                                                                      

     Program EPW v.5.2.0 starts on 20Feb2020 at 14:41: 5 

     This program is part of the open-source Quantum ESPRESSO suite
     for quantum simulation of materials; please cite
         "P. Giannozzi et al., J. Phys.:Condens. Matter 21 395502 (2009);
         "P. Giannozzi et al., J. Phys.:Condens. Matter 29 465901 (2017);
          URL http://www.quantum-espresso.org", 
     in publications or presentations arising from this work. More details at
     http://www.quantum-espresso.org/quote

     Parallel version (MPI), running on     1 processors

     MPI processes distributed on     1 nodes

     Reading xml data from directory:

     ./pb.save/

     IMPORTANT: XC functional enforced from input :
     Exchange-correlation= PZ
                           (   1   1   0   0   0   0   0)
     Any further DFT definition will be discarded
     Please, verify this is what you really want


     G-vector sticks info
     --------------------
     sticks:   dense  smooth     PW     G-vecs:    dense   smooth      PW
     Sum         703     703    211                12387    12387    2109

     Reading collected, re-writing distributed wavefunctions

     --                                                                         

     bravais-lattice index     =            2
     lattice parameter (a_0)   =       9.2700  a.u.
     unit-cell volume          =     199.1495 (a.u.)^3
     number of atoms/cell      =            1
     number of atomic types    =            1
     kinetic-energy cut-off    =      60.0000  Ry
     charge density cut-off    =     240.0000  Ry
     Exchange-correlation= PZ
                           (   1   1   0   0   0   0   0)
     Non magnetic calculation with spin-orbit

     celldm(1)=    9.27000  celldm(2)=    0.00000  celldm(3)=    0.00000
     celldm(4)=    0.00000  celldm(5)=    0.00000  celldm(6)=    0.00000

     crystal axes: (cart. coord. in units of a_0)
               a(1) = ( -0.5000  0.0000  0.5000 )  
               a(2) = (  0.0000  0.5000  0.5000 )  
               a(3) = ( -0.5000  0.5000  0.0000 )  

     reciprocal axes: (cart. coord. in units 2 pi/a_0)
               b(1) = ( -1.0000 -1.0000  1.0000 )  
               b(2) = (  1.0000  1.0000  1.0000 )  
               b(3) = ( -1.0000  1.0000 -1.0000 )  


     Atoms inside the unit cell: 

   Cartesian axes

     site n.  atom      mass           positions (a_0 units)
        1        Pb 207.2000   tau( 1) = (    0.00000    0.00000    0.00000  )

     49 Sym.Ops. (with q -> -q+G )


     G cutoff =  522.4094  (  12387 G-vectors)     FFT grid: ( 36, 36, 36)
     number of k points=   27  gaussian broad. (Ry)=  0.0200     ngauss =   1
                       cart. coord. in units 2pi/a_0
        k(    1) = (   0.0000000   0.0000000   0.0000000), wk =   0.0370370
        k(    2) = (  -0.3333333   0.3333333  -0.3333333), wk =   0.0370370
        k(    3) = (  -0.6666667   0.6666667  -0.6666667), wk =   0.0370370
        k(    4) = (   0.3333333   0.3333333   0.3333333), wk =   0.0370370
        k(    5) = (   0.0000000   0.6666667   0.0000000), wk =   0.0370370
        k(    6) = (  -0.3333333   1.0000000  -0.3333333), wk =   0.0370370
        k(    7) = (   0.6666667   0.6666667   0.6666667), wk =   0.0370370
        k(    8) = (   0.3333333   1.0000000   0.3333333), wk =   0.0370370
        k(    9) = (   0.0000000   1.3333333   0.0000000), wk =   0.0370370
        k(   10) = (  -0.3333333  -0.3333333   0.3333333), wk =   0.0370370
        k(   11) = (  -0.6666667   0.0000000   0.0000000), wk =   0.0370370
        k(   12) = (  -1.0000000   0.3333333  -0.3333333), wk =   0.0370370
        k(   13) = (   0.0000000   0.0000000   0.6666667), wk =   0.0370370
        k(   14) = (  -0.3333333   0.3333333   0.3333333), wk =   0.0370370
        k(   15) = (  -0.6666667   0.6666667  -0.0000000), wk =   0.0370370
        k(   16) = (   0.3333333   0.3333333   1.0000000), wk =   0.0370370
        k(   17) = (   0.0000000   0.6666667   0.6666667), wk =   0.0370370
        k(   18) = (  -0.3333333   1.0000000   0.3333333), wk =   0.0370370
        k(   19) = (  -0.6666667  -0.6666667   0.6666667), wk =   0.0370370
        k(   20) = (  -1.0000000  -0.3333333   0.3333333), wk =   0.0370370
        k(   21) = (  -1.3333333   0.0000000   0.0000000), wk =   0.0370370
        k(   22) = (  -0.3333333  -0.3333333   1.0000000), wk =   0.0370370
        k(   23) = (  -0.6666667  -0.0000000   0.6666667), wk =   0.0370370
        k(   24) = (  -1.0000000   0.3333333   0.3333333), wk =   0.0370370
        k(   25) = (   0.0000000   0.0000000   1.3333333), wk =   0.0370370
        k(   26) = (  -0.3333333   0.3333333   1.0000000), wk =   0.0370370
        k(   27) = (  -0.6666667   0.6666667   0.6666667), wk =   0.0370370

     PseudoPot. # 1 for Pb read from file:
     ../../pseudo/pb_s.UPF
     MD5 check sum: 7774f596943a2055f0d8d19eea6f2ae8
     Pseudo is Norm-conserving, Zval = 14.0
     Generated using "atomic" code by A. Dal Corso (Quantum ESPRESSO distribution)
     Using radial grid of 1281 points,  4 beta functions with: 
                l(1) =   2
                l(2) =   2
                l(3) =   1
                l(4) =   1
     EPW          :      0.32s CPU      0.32s WALL

     EPW          :      0.62s CPU      0.63s WALL

     -------------------------------------------------------------------
     Wannierization on  3 x  3 x  3 electronic grid
     -------------------------------------------------------------------

     Spin CASE ( non-collinear )

     Initializing Wannier90


     Initial Wannier projections

     (   0.00000   0.00000   0.00000) :  l =  -3 mr =   1
     (   0.00000   0.00000   0.00000) :  l =  -3 mr =   1
     (   0.00000   0.00000   0.00000) :  l =  -3 mr =   2
     (   0.00000   0.00000   0.00000) :  l =  -3 mr =   2
     (   0.00000   0.00000   0.00000) :  l =  -3 mr =   3
     (   0.00000   0.00000   0.00000) :  l =  -3 mr =   3
     (   0.00000   0.00000   0.00000) :  l =  -3 mr =   4
     (   0.00000   0.00000   0.00000) :  l =  -3 mr =   4

      - Number of bands is ( 12)
      - Number of total bands is ( 22)
      - Number of excluded bands is ( 10)
      - Number of wannier functions is (  8)
      - All guiding functions are given 

  Reading data about k-point neighbours 

      - All neighbours are found 

     AMN
      k points =    27 in    1 pools
            1 of   27 on ionode
            2 of   27 on ionode
            3 of   27 on ionode
            4 of   27 on ionode
            5 of   27 on ionode
            6 of   27 on ionode
            7 of   27 on ionode
            8 of   27 on ionode
            9 of   27 on ionode
           10 of   27 on ionode
           11 of   27 on ionode
           12 of   27 on ionode
           13 of   27 on ionode
           14 of   27 on ionode
           15 of   27 on ionode
           16 of   27 on ionode
           17 of   27 on ionode
           18 of   27 on ionode
           19 of   27 on ionode
           20 of   27 on ionode
           21 of   27 on ionode
           22 of   27 on ionode
           23 of   27 on ionode
           24 of   27 on ionode
           25 of   27 on ionode
           26 of   27 on ionode
           27 of   27 on ionode

     AMN calculated

     MMN
      k points =    27 in    1 pools
            1 of   27 on ionode
            2 of   27 on ionode
            3 of   27 on ionode
            4 of   27 on ionode
            5 of   27 on ionode
            6 of   27 on ionode
            7 of   27 on ionode
            8 of   27 on ionode
            9 of   27 on ionode
           10 of   27 on ionode
           11 of   27 on ionode
           12 of   27 on ionode
           13 of   27 on ionode
           14 of   27 on ionode
           15 of   27 on ionode
           16 of   27 on ionode
           17 of   27 on ionode
           18 of   27 on ionode
           19 of   27 on ionode
           20 of   27 on ionode
           21 of   27 on ionode
           22 of   27 on ionode
           23 of   27 on ionode
           24 of   27 on ionode
           25 of   27 on ionode
           26 of   27 on ionode
           27 of   27 on ionode
     MMN calculated

     Running Wannier90

     Wannier Function centers (cartesian, alat) and spreads (ang):

     (   0.08272   0.08272   0.08272) :   1.60664
     (   0.08272   0.08272   0.08272) :   1.60664
     (   0.08272  -0.08272  -0.08272) :   1.60664
     (   0.08272  -0.08272  -0.08272) :   1.60664
     (  -0.08272   0.08272  -0.08272) :   1.60664
     (  -0.08272   0.08272  -0.08272) :   1.60664
     (  -0.08272  -0.08272   0.08272) :   1.60664
     (  -0.08272  -0.08272   0.08272) :   1.60664

     -------------------------------------------------------------------
     WANNIER      :     11.57s CPU     11.63s WALL (       1 calls)
     -------------------------------------------------------------------

     Dipole matrix elements calculated


     Calculating kgmap

     Progress kgmap: ########################################
     kmaps        :      1.54s CPU      1.54s WALL (       1 calls)

     Reading interatomic force constants

     IFC last    0.0004688
     Norm of the difference between old and new effective charges:    0.0000000
     Norm of the difference between old and new force-constants:    0.0011483
     Imposed crystal ASR

     Finished reading ifcs

     Symmetries of Bravais lattice:  48
     Symmetries of crystal:          48


     ===================================================================
     irreducible q point #    1
     ===================================================================

     Symmetries of small group of q: 48
          in addition sym. q -> -q+G:

     Number of q in the star =    1
     List of q in the star:
          1   0.000000000   0.000000000   0.000000000
     Imposing acoustic sum rule on the dynamical matrix
     Dyn mat calculated from ifcs

        q(    1 ) = (   0.0000000   0.0000000   0.0000000 )


     ===================================================================
     irreducible q point #    2
     ===================================================================

     Symmetries of small group of q:  6

     Number of q in the star =    8
     List of q in the star:
          1  -0.333333333   0.333333333  -0.333333333
          2   0.333333333   0.333333333  -0.333333333
          3   0.333333333   0.333333333   0.333333333
          4  -0.333333333   0.333333333   0.333333333
          5   0.333333333  -0.333333333   0.333333333
          6  -0.333333333  -0.333333333  -0.333333333
          7   0.333333333  -0.333333333  -0.333333333
          8  -0.333333333  -0.333333333   0.333333333
     Dyn mat calculated from ifcs

        q(    2 ) = (  -0.3333333   0.3333333  -0.3333333 )
        q(    3 ) = (   0.3333333   0.3333333  -0.3333333 )
        q(    4 ) = (   0.3333333   0.3333333   0.3333333 )
        q(    5 ) = (  -0.3333333   0.3333333   0.3333333 )
        q(    6 ) = (   0.3333333  -0.3333333   0.3333333 )
        q(    7 ) = (  -0.3333333  -0.3333333  -0.3333333 )
        q(    8 ) = (   0.3333333  -0.3333333  -0.3333333 )
        q(    9 ) = (  -0.3333333  -0.3333333   0.3333333 )


     ===================================================================
     irreducible q point #    3
     ===================================================================

     Symmetries of small group of q:  8

     Number of q in the star =    6
     List of q in the star:
          1   0.000000000   0.666666667   0.000000000
          2  -0.666666667   0.000000000   0.000000000
          3   0.000000000  -0.666666667   0.000000000
          4   0.000000000   0.000000000   0.666666667
          5   0.000000000   0.000000000  -0.666666667
          6   0.666666667   0.000000000   0.000000000
     Dyn mat calculated from ifcs

        q(   10 ) = (   0.0000000   0.6666667   0.0000000 )
        q(   11 ) = (  -0.6666667   0.0000000   0.0000000 )
        q(   12 ) = (   0.0000000  -0.6666667   0.0000000 )
        q(   13 ) = (   0.0000000   0.0000000   0.6666667 )
        q(   14 ) = (   0.0000000   0.0000000  -0.6666667 )
        q(   15 ) = (   0.6666667   0.0000000   0.0000000 )


     ===================================================================
     irreducible q point #    4
     ===================================================================

     Symmetries of small group of q:  4

     Number of q in the star =   12
     List of q in the star:
          1   0.666666667   0.000000000   0.666666667
          2   0.666666667   0.000000000  -0.666666667
          3  -0.666666667   0.000000000  -0.666666667
          4  -0.666666667   0.000000000   0.666666667
          5   0.000000000  -0.666666667   0.666666667
          6  -0.666666667   0.666666667   0.000000000
          7  -0.666666667  -0.666666667   0.000000000
          8   0.666666667   0.666666667   0.000000000
          9   0.666666667  -0.666666667   0.000000000
         10   0.000000000   0.666666667   0.666666667
         11   0.000000000   0.666666667  -0.666666667
         12   0.000000000  -0.666666667  -0.666666667
     Dyn mat calculated from ifcs

        q(   16 ) = (   0.6666667   0.0000000   0.6666667 )
        q(   17 ) = (   0.6666667   0.0000000  -0.6666667 )
        q(   18 ) = (  -0.6666667   0.0000000  -0.6666667 )
        q(   19 ) = (  -0.6666667   0.0000000   0.6666667 )
        q(   20 ) = (   0.0000000  -0.6666667   0.6666667 )
        q(   21 ) = (  -0.6666667   0.6666667   0.0000000 )
        q(   22 ) = (  -0.6666667  -0.6666667   0.0000000 )
        q(   23 ) = (   0.6666667   0.6666667   0.0000000 )
        q(   24 ) = (   0.6666667  -0.6666667   0.0000000 )
        q(   25 ) = (   0.0000000   0.6666667   0.6666667 )
        q(   26 ) = (   0.0000000   0.6666667  -0.6666667 )
        q(   27 ) = (   0.0000000  -0.6666667  -0.6666667 )

     Writing epmatq on .epb files


     The .epb files have been correctly written


     Band disentanglement is used: nbndsub =    8
     Use zone-centred Wigner-Seitz cells 
     Number of WS vectors for electrons       43
     Number of WS vectors for phonons       43
     Number of WS vectors for electron-phonon       43
     Maximum number of cores for efficient parallelization      129
     Results may improve by using use_ws == .TRUE. 

     Writing Hamiltonian, Dynamical matrix and EP vertex in Wann rep to file

     ===================================================================
     Memory usage:  VmHWM =        74Mb
                   VmPeak =       395Mb
     ===================================================================
     
     Using uniform q-mesh:    6   6   6
     Size of q point mesh for interpolation:        216
     Using uniform k-mesh:    6   6   6
     Size of k point mesh for interpolation:        432
     Max number of k points per pool:              432

     Fermi energy coarse grid =  10.121988 eV

     Skipping the first   10 bands:

     The Fermi level will be determined with   4.00000 electrons

     Fermi energy is calculated from the fine k-mesh: Ef =  11.622353 eV

     Warning: check if difference with Fermi level fine grid makes sense

     ===================================================================

              ibndmin =     1  ebndmin =    -0.040
              ibndmax =     8  ebndmax =     1.463


     Number of ep-matrix elements per pool :        41472 ~=  324.00 Kb (@ 8 bytes/ DP)
      
     A selecq.fmt file was found but re-created because selecqread == .FALSE. 
     Number selected, total            100            100
     Number selected, total            200            200
     We only need to compute      216 q-points
      

     ===================================================================
     Phonon (Imaginary) Self-Energy in the Migdal Approximation
     ===================================================================


     Fermi Surface thickness =  20.000000 eV

     Golden Rule strictly enforced with T =   0.043087 eV
     Gaussian Broadening:   0.200000 eV, ngauss=   1
     DOS =  0.904603 states/spin/eV/Unit Cell at Ef= 11.622353 eV

     ismear =     1 iq =       1 coord.:   0.00000  0.00000  0.00000 wt:   0.00463
     -------------------------------------------------------------------
     lambda___(   1 )=       0.000000   gamma___=       0.000000 meV   omega=      0.0000 meV
     lambda_tr(   1 )=       0.000000   gamma_tr=       0.000000 meV   omega=      0.0000 meV
     lambda___(   2 )=       0.000000   gamma___=       0.000000 meV   omega=      0.0000 meV
     lambda_tr(   2 )=       0.000000   gamma_tr=       0.000000 meV   omega=      0.0000 meV
     lambda___(   3 )=       0.000000   gamma___=       0.000000 meV   omega=      0.0000 meV
     lambda_tr(   3 )=       0.000000   gamma_tr=       0.000000 meV   omega=      0.0000 meV
     lambda___( tot )=       0.000000
     lambda_tr( tot )=       0.000000
     -------------------------------------------------------------------


     Number of (k,k+q) pairs on the Fermi surface:      216 out of      216


     ===================================================================
     Electron (Imaginary) Self-Energy in the Migdal Approximation
     ===================================================================


     Fermi Surface thickness =  20.000000 eV

     Golden Rule strictly enforced with T =   0.043087 eV
     Gaussian Broadening:   0.200000 eV, ngauss=   1
 

     ismear =     1 iq =       2 coord.:   0.00000  0.00000  0.16667 wt:   0.00463
     -------------------------------------------------------------------
     lambda___(   1 )=       0.026709   gamma___=       0.000242 meV   omega=      1.7871 meV
     lambda_tr(   1 )=       0.026747   gamma_tr=       0.000243 meV   omega=      1.7871 meV
     lambda___(   2 )=       0.026709   gamma___=       0.000242 meV   omega=      1.7871 meV
     lambda_tr(   2 )=       0.026747   gamma_tr=       0.000243 meV   omega=      1.7871 meV
     lambda___(   3 )=       0.025474   gamma___=       0.001312 meV   omega=      4.2564 meV
     lambda_tr(   3 )=       0.025329   gamma_tr=       0.001304 meV   omega=      4.2564 meV
     lambda___( tot )=       0.078893
     lambda_tr( tot )=       0.078823
     -------------------------------------------------------------------


     Number of (k,k+q) pairs on the Fermi surface:      216 out of      216


     ismear =     1 iq =       3 coord.:   0.00000  0.00000  0.33333 wt:   0.00463
     -------------------------------------------------------------------
     lambda___(   1 )=       0.165073   gamma___=       0.005383 meV   omega=      3.3875 meV
     lambda_tr(   1 )=      -7.022051   gamma_tr=      -0.228995 meV   omega=      3.3875 meV
     lambda___(   2 )=       0.165073   gamma___=       0.005383 meV   omega=      3.3875 meV
     lambda_tr(   2 )=      -7.022051   gamma_tr=      -0.228995 meV   omega=      3.3875 meV
     lambda___(   3 )=       0.112805   gamma___=       0.018139 meV   omega=      7.5222 meV
     lambda_tr(   3 )=      -2.173507   gamma_tr=      -0.349508 meV   omega=      7.5222 meV
     lambda___( tot )=       0.442951
     lambda_tr( tot )=     -16.217609
     -------------------------------------------------------------------


     Number of (k,k+q) pairs on the Fermi surface:      216 out of      216


     ismear =     1 iq =       4 coord.:   0.00000  0.00000  0.50000 wt:   0.00463
     -------------------------------------------------------------------
     lambda___(   1 )=       0.000000   gamma___=       0.000000 meV   omega=      4.0697 meV
     lambda_tr(   1 )=       0.000000   gamma_tr=       0.000000 meV   omega=      4.0697 meV
     lambda___(   2 )=       0.000000   gamma___=       0.000000 meV   omega=      4.0697 meV
     lambda_tr(   2 )=       0.000000   gamma_tr=       0.000000 meV   omega=      4.0697 meV
     lambda___(   3 )=       0.000000   gamma___=       0.000000 meV   omega=      8.7711 meV
     lambda_tr(   3 )=       0.000000   gamma_tr=       0.000000 meV   omega=      8.7711 meV
     lambda___( tot )=       0.000000
     lambda_tr( tot )=       0.000000
     -------------------------------------------------------------------


     Number of (k,k+q) pairs on the Fermi surface:      216 out of      216


     ismear =     1 iq =       5 coord.:   0.00000  0.00000  0.66667 wt:   0.00463
     -------------------------------------------------------------------
     lambda___(   1 )=       0.165087   gamma___=       0.005384 meV   omega=      3.3875 meV
     lambda_tr(   1 )=      -7.022136   gamma_tr=      -0.228998 meV   omega=      3.3875 meV
     lambda___(   2 )=       0.165087   gamma___=       0.005384 meV   omega=      3.3875 meV
     lambda_tr(   2 )=      -7.022136   gamma_tr=      -0.228998 meV   omega=      3.3875 meV
     lambda___(   3 )=       0.112830   gamma___=       0.018143 meV   omega=      7.5222 meV
     lambda_tr(   3 )=      -2.173519   gamma_tr=      -0.349510 meV   omega=      7.5222 meV
     lambda___( tot )=       0.443004
     lambda_tr( tot )=     -16.217790
     -------------------------------------------------------------------


     Number of (k,k+q) pairs on the Fermi surface:      216 out of      216


     ismear =     1 iq =       6 coord.:   0.00000  0.00000  0.83333 wt:   0.00463
     -------------------------------------------------------------------
     lambda___(   1 )=       0.026709   gamma___=       0.000242 meV   omega=      1.7871 meV
     lambda_tr(   1 )=       0.026747   gamma_tr=       0.000243 meV   omega=      1.7871 meV
     lambda___(   2 )=       0.026709   gamma___=       0.000242 meV   omega=      1.7871 meV
     lambda_tr(   2 )=       0.026747   gamma_tr=       0.000243 meV   omega=      1.7871 meV
     lambda___(   3 )=       0.025474   gamma___=       0.001312 meV   omega=      4.2564 meV
     lambda_tr(   3 )=       0.025329   gamma_tr=       0.001304 meV   omega=      4.2564 meV
     lambda___( tot )=       0.078893
     lambda_tr( tot )=       0.078823
     -------------------------------------------------------------------


     Number of (k,k+q) pairs on the Fermi surface:      216 out of      216


     ismear =     1 iq =       7 coord.:   0.00000  0.16667  0.00000 wt:   0.00463
     -------------------------------------------------------------------
     lambda___(   1 )=       0.026709   gamma___=       0.000242 meV   omega=      1.7871 meV
     lambda_tr(   1 )=       0.026747   gamma_tr=       0.000243 meV   omega=      1.7871 meV
     lambda___(   2 )=       0.026709   gamma___=       0.000242 meV   omega=      1.7871 meV
     lambda_tr(   2 )=       0.026747   gamma_tr=       0.000243 meV   omega=      1.7871 meV
     lambda___(   3 )=       0.025474   gamma___=       0.001312 meV   omega=      4.2564 meV
     lambda_tr(   3 )=       0.025329   gamma_tr=       0.001304 meV   omega=      4.2564 meV
     lambda___( tot )=       0.078892
     lambda_tr( tot )=       0.078823
     -------------------------------------------------------------------


     Number of (k,k+q) pairs on the Fermi surface:      216 out of      216


     ismear =     1 iq =       8 coord.:   0.00000  0.16667  0.16667 wt:   0.00463
     -------------------------------------------------------------------
     lambda___(   1 )=       0.067300   gamma___=       0.000645 meV   omega=      1.8366 meV
     lambda_tr(   1 )=       0.166665   gamma_tr=       0.001598 meV   omega=      1.8366 meV
     lambda___(   2 )=       0.067300   gamma___=       0.000645 meV   omega=      1.8366 meV
     lambda_tr(   2 )=       0.166665   gamma_tr=       0.001598 meV   omega=      1.8366 meV
     lambda___(   3 )=       0.162152   gamma___=       0.011762 meV   omega=      5.0522 meV
     lambda_tr(   3 )=       0.067048   gamma_tr=       0.004864 meV   omega=      5.0522 meV
     lambda___( tot )=       0.296753
     lambda_tr( tot )=       0.400377
     -------------------------------------------------------------------


     Number of (k,k+q) pairs on the Fermi surface:      216 out of      216


     ismear =     1 iq =       9 coord.:   0.00000  0.16667  0.33333 wt:   0.00463
     -------------------------------------------------------------------
     lambda___(   1 )=       0.012398   gamma___=       0.000374 meV   omega=      3.2582 meV
     lambda_tr(   1 )=       0.063750   gamma_tr=       0.001923 meV   omega=      3.2582 meV
     lambda___(   2 )=       0.028867   gamma___=       0.001173 meV   omega=      3.7812 meV
     lambda_tr(   2 )=       0.145858   gamma_tr=       0.005927 meV   omega=      3.7812 meV
     lambda___(   3 )=       0.007056   gamma___=       0.001051 meV   omega=      7.2397 meV
     lambda_tr(   3 )=      -0.014526   gamma_tr=      -0.002164 meV   omega=      7.2397 meV
     lambda___( tot )=       0.048320
     lambda_tr( tot )=       0.195082
     -------------------------------------------------------------------


     Number of (k,k+q) pairs on the Fermi surface:      216 out of      216


     ismear =     1 iq =      10 coord.:   0.00000  0.16667  0.50000 wt:   0.00463
     -------------------------------------------------------------------
     lambda___(   1 )=       0.237001   gamma___=       0.012657 meV   omega=      4.3349 meV
     lambda_tr(   1 )=       0.209021   gamma_tr=       0.011163 meV   omega=      4.3349 meV
     lambda___(   2 )=       0.062155   gamma___=       0.005032 meV   omega=      5.3373 meV
     lambda_tr(   2 )=      -0.095226   gamma_tr=      -0.007709 meV   omega=      5.3373 meV
     lambda___(   3 )=       0.119602   gamma___=       0.024252 meV   omega=      8.4470 meV
     lambda_tr(   3 )=      -0.245886   gamma_tr=      -0.049859 meV   omega=      8.4470 meV
     lambda___( tot )=       0.418758
     lambda_tr( tot )=      -0.132091
     -------------------------------------------------------------------


     Number of (k,k+q) pairs on the Fermi surface:      216 out of      216


     ismear =     1 iq =      11 coord.:   0.00000  0.16667  0.66667 wt:   0.00463
     -------------------------------------------------------------------
     lambda___(   1 )=       0.048102   gamma___=       0.002437 meV   omega=      4.2226 meV
     lambda_tr(   1 )=       0.227258   gamma_tr=       0.011516 meV   omega=      4.2226 meV
     lambda___(   2 )=       0.035221   gamma___=       0.002625 meV   omega=      5.1214 meV
     lambda_tr(   2 )=      -0.056618   gamma_tr=      -0.004220 meV   omega=      5.1214 meV
     lambda___(   3 )=       0.008819   gamma___=       0.001624 meV   omega=      8.0496 meV
     lambda_tr(   3 )=      -0.011505   gamma_tr=      -0.002119 meV   omega=      8.0496 meV
     lambda___( tot )=       0.092142
     lambda_tr( tot )=       0.159135
     -------------------------------------------------------------------


     Number of (k,k+q) pairs on the Fermi surface:      216 out of      216


     ismear =     1 iq =      12 coord.:   0.00000  0.16667  0.83333 wt:   0.00463
     -------------------------------------------------------------------
     lambda___(   1 )=      -0.846949   gamma___=      -0.022806 meV   omega=      3.0782 meV
     lambda_tr(   1 )=      -1.707158   gamma_tr=      -0.045970 meV   omega=      3.0782 meV
     lambda___(   2 )=       0.566578   gamma___=       0.017149 meV   omega=      3.2635 meV
     lambda_tr(   2 )=      -0.426553   gamma_tr=      -0.012911 meV   omega=      3.2635 meV
     lambda___(   3 )=       0.039584   gamma___=       0.004462 meV   omega=      6.2976 meV
     lambda_tr(   3 )=       0.005906   gamma_tr=       0.000666 meV   omega=      6.2976 meV
     lambda___( tot )=      -0.240786
     lambda_tr( tot )=      -2.127805
     -------------------------------------------------------------------


     Number of (k,k+q) pairs on the Fermi surface:      216 out of      216


     ismear =     1 iq =      13 coord.:   0.00000  0.33333  0.00000 wt:   0.00463
     -------------------------------------------------------------------
     lambda___(   1 )=       0.165074   gamma___=       0.005383 meV   omega=      3.3875 meV
     lambda_tr(   1 )=      -7.022051   gamma_tr=      -0.228995 meV   omega=      3.3875 meV
     lambda___(   2 )=       0.165074   gamma___=       0.005383 meV   omega=      3.3875 meV
     lambda_tr(   2 )=      -7.022051   gamma_tr=      -0.228995 meV   omega=      3.3875 meV
     lambda___(   3 )=       0.112805   gamma___=       0.018139 meV   omega=      7.5222 meV
     lambda_tr(   3 )=      -2.173507   gamma_tr=      -0.349508 meV   omega=      7.5222 meV
     lambda___( tot )=       0.442952
     lambda_tr( tot )=     -16.217609
     -------------------------------------------------------------------


     Number of (k,k+q) pairs on the Fermi surface:      216 out of      216


     ismear =     1 iq =      14 coord.:   0.00000  0.33333  0.16667 wt:   0.00463
     -------------------------------------------------------------------
     lambda___(   1 )=       0.012398   gamma___=       0.000374 meV   omega=      3.2582 meV
     lambda_tr(   1 )=       0.063751   gamma_tr=       0.001923 meV   omega=      3.2582 meV
     lambda___(   2 )=       0.028867   gamma___=       0.001173 meV   omega=      3.7812 meV
     lambda_tr(   2 )=       0.145858   gamma_tr=       0.005927 meV   omega=      3.7812 meV
     lambda___(   3 )=       0.007056   gamma___=       0.001051 meV   omega=      7.2397 meV
     lambda_tr(   3 )=      -0.014526   gamma_tr=      -0.002164 meV   omega=      7.2397 meV
     lambda___( tot )=       0.048320
     lambda_tr( tot )=       0.195082
     -------------------------------------------------------------------


     Number of (k,k+q) pairs on the Fermi surface:      216 out of      216


     ismear =     1 iq =      15 coord.:   0.00000  0.33333  0.33333 wt:   0.00463
     -------------------------------------------------------------------
     lambda___(   1 )=       0.473119   gamma___=       0.021220 meV   omega=      3.9727 meV
     lambda_tr(   1 )=       0.477270   gamma_tr=       0.021406 meV   omega=      3.9727 meV
     lambda___(   2 )=       0.473119   gamma___=       0.021220 meV   omega=      3.9727 meV
     lambda_tr(   2 )=       0.477270   gamma_tr=       0.021406 meV   omega=      3.9727 meV
     lambda___(   3 )=       0.018252   gamma___=       0.003676 meV   omega=      8.4186 meV
     lambda_tr(   3 )=       0.015068   gamma_tr=       0.003035 meV   omega=      8.4186 meV
     lambda___( tot )=       0.964491
     lambda_tr( tot )=       0.969608
     -------------------------------------------------------------------


     Number of (k,k+q) pairs on the Fermi surface:      216 out of      216


     ismear =     1 iq =      16 coord.:   0.00000  0.33333  0.50000 wt:   0.00463
     -------------------------------------------------------------------
     lambda___(   1 )=       0.033784   gamma___=       0.002200 meV   omega=      4.7874 meV
     lambda_tr(   1 )=       0.135830   gamma_tr=       0.008847 meV   omega=      4.7874 meV
     lambda___(   2 )=       0.014557   gamma___=       0.001331 meV   omega=      5.6726 meV
     lambda_tr(   2 )=      -0.003238   gamma_tr=      -0.000296 meV   omega=      5.6726 meV
     lambda___(   3 )=       0.009446   gamma___=       0.002112 meV   omega=      8.8695 meV
     lambda_tr(   3 )=      -0.001794   gamma_tr=      -0.000401 meV   omega=      8.8695 meV
     lambda___( tot )=       0.057787
     lambda_tr( tot )=       0.130798
     -------------------------------------------------------------------


     Number of (k,k+q) pairs on the Fermi surface:      216 out of      216


     ismear =     1 iq =      17 coord.:   0.00000  0.33333  0.66667 wt:   0.00463
     -------------------------------------------------------------------
     lambda___(   1 )=       0.098748   gamma___=       0.006766 meV   omega=      4.9101 meV
     lambda_tr(   1 )=       2.986208   gamma_tr=       0.204598 meV   omega=      4.9101 meV
     lambda___(   2 )=       0.106656   gamma___=       0.016730 meV   omega=      7.4294 meV
     lambda_tr(   2 )=       0.303997   gamma_tr=       0.047686 meV   omega=      7.4294 meV
     lambda___(   3 )=       0.111380   gamma___=       0.018572 meV   omega=      7.6599 meV
     lambda_tr(   3 )=       1.581072   gamma_tr=       0.263637 meV   omega=      7.6599 meV
     lambda___( tot )=       0.316785
     lambda_tr( tot )=       4.871277
     -------------------------------------------------------------------


     Number of (k,k+q) pairs on the Fermi surface:      216 out of      216


     ismear =     1 iq =      18 coord.:   0.00000  0.33333  0.83333 wt:   0.00463
     -------------------------------------------------------------------
     lambda___(   1 )=       0.048101   gamma___=       0.002437 meV   omega=      4.2226 meV
     lambda_tr(   1 )=       0.227257   gamma_tr=       0.011516 meV   omega=      4.2226 meV
     lambda___(   2 )=       0.035221   gamma___=       0.002625 meV   omega=      5.1214 meV
     lambda_tr(   2 )=      -0.056618   gamma_tr=      -0.004220 meV   omega=      5.1214 meV
     lambda___(   3 )=       0.008819   gamma___=       0.001624 meV   omega=      8.0496 meV
     lambda_tr(   3 )=      -0.011505   gamma_tr=      -0.002119 meV   omega=      8.0496 meV
     lambda___( tot )=       0.092142
     lambda_tr( tot )=       0.159134
     -------------------------------------------------------------------


     Number of (k,k+q) pairs on the Fermi surface:      216 out of      216


     ismear =     1 iq =      19 coord.:   0.00000  0.50000  0.00000 wt:   0.00463
     -------------------------------------------------------------------
     lambda___(   1 )=       0.000000   gamma___=       0.000000 meV   omega=      4.0697 meV
     lambda_tr(   1 )=       0.000000   gamma_tr=       0.000000 meV   omega=      4.0697 meV
     lambda___(   2 )=       0.000000   gamma___=       0.000000 meV   omega=      4.0697 meV
     lambda_tr(   2 )=       0.000000   gamma_tr=       0.000000 meV   omega=      4.0697 meV
     lambda___(   3 )=       0.000000   gamma___=       0.000000 meV   omega=      8.7711 meV
     lambda_tr(   3 )=       0.000000   gamma_tr=       0.000000 meV   omega=      8.7711 meV
     lambda___( tot )=       0.000000
     lambda_tr( tot )=       0.000000
     -------------------------------------------------------------------


     Number of (k,k+q) pairs on the Fermi surface:      216 out of      216


     ismear =     1 iq =      20 coord.:   0.00000  0.50000  0.16667 wt:   0.00463
     -------------------------------------------------------------------
     lambda___(   1 )=       0.236993   gamma___=       0.012656 meV   omega=      4.3349 meV
     lambda_tr(   1 )=       0.209016   gamma_tr=       0.011162 meV   omega=      4.3349 meV
     lambda___(   2 )=       0.062155   gamma___=       0.005032 meV   omega=      5.3373 meV
     lambda_tr(   2 )=      -0.095226   gamma_tr=      -0.007709 meV   omega=      5.3373 meV
     lambda___(   3 )=       0.119602   gamma___=       0.024252 meV   omega=      8.4470 meV
     lambda_tr(   3 )=      -0.245886   gamma_tr=      -0.049859 meV   omega=      8.4470 meV
     lambda___( tot )=       0.418750
     lambda_tr( tot )=      -0.132097
     -------------------------------------------------------------------


     Number of (k,k+q) pairs on the Fermi surface:      216 out of      216


     ismear =     1 iq =      21 coord.:   0.00000  0.50000  0.33333 wt:   0.00463
     -------------------------------------------------------------------
     lambda___(   1 )=       0.033784   gamma___=       0.002200 meV   omega=      4.7874 meV
     lambda_tr(   1 )=       0.135830   gamma_tr=       0.008847 meV   omega=      4.7874 meV
     lambda___(   2 )=       0.014557   gamma___=       0.001331 meV   omega=      5.6726 meV
     lambda_tr(   2 )=      -0.003238   gamma_tr=      -0.000296 meV   omega=      5.6726 meV
     lambda___(   3 )=       0.009446   gamma___=       0.002112 meV   omega=      8.8695 meV
     lambda_tr(   3 )=      -0.001794   gamma_tr=      -0.000401 meV   omega=      8.8695 meV
     lambda___( tot )=       0.057787
     lambda_tr( tot )=       0.130798
     -------------------------------------------------------------------


     Number of (k,k+q) pairs on the Fermi surface:      216 out of      216


     ismear =     1 iq =      22 coord.:   0.00000  0.50000  0.50000 wt:   0.00463
     -------------------------------------------------------------------
     lambda___(   1 )=       1.008789   gamma___=       0.071150 meV   omega=      4.9818 meV
     lambda_tr(   1 )=       7.201974   gamma_tr=       0.507955 meV   omega=      4.9818 meV
     lambda___(   2 )=       1.008789   gamma___=       0.071150 meV   omega=      4.9818 meV
     lambda_tr(   2 )=       7.201974   gamma_tr=       0.507955 meV   omega=      4.9818 meV
     lambda___(   3 )=       0.435682   gamma___=       0.112295 meV   omega=      9.5234 meV
     lambda_tr(   3 )=       2.787585   gamma_tr=       0.718490 meV   omega=      9.5234 meV
     lambda___( tot )=       2.453260
     lambda_tr( tot )=      17.191533
     -------------------------------------------------------------------


     Number of (k,k+q) pairs on the Fermi surface:      216 out of      216


     ismear =     1 iq =      23 coord.:   0.00000  0.50000  0.66667 wt:   0.00463
     -------------------------------------------------------------------
     lambda___(   1 )=       0.033783   gamma___=       0.002200 meV   omega=      4.7874 meV
     lambda_tr(   1 )=       0.135829   gamma_tr=       0.008847 meV   omega=      4.7874 meV
     lambda___(   2 )=       0.014558   gamma___=       0.001331 meV   omega=      5.6726 meV
     lambda_tr(   2 )=      -0.003238   gamma_tr=      -0.000296 meV   omega=      5.6726 meV
     lambda___(   3 )=       0.009446   gamma___=       0.002112 meV   omega=      8.8695 meV
     lambda_tr(   3 )=      -0.001794   gamma_tr=      -0.000401 meV   omega=      8.8695 meV
     lambda___( tot )=       0.057787
     lambda_tr( tot )=       0.130797
     -------------------------------------------------------------------


     Number of (k,k+q) pairs on the Fermi surface:      216 out of      216


     ismear =     1 iq =      24 coord.:   0.00000  0.50000  0.83333 wt:   0.00463
     -------------------------------------------------------------------
     lambda___(   1 )=       0.237130   gamma___=       0.012664 meV   omega=      4.3349 meV
     lambda_tr(   1 )=       0.209177   gamma_tr=       0.011171 meV   omega=      4.3349 meV
     lambda___(   2 )=       0.062181   gamma___=       0.005034 meV   omega=      5.3373 meV
     lambda_tr(   2 )=      -0.095180   gamma_tr=      -0.007705 meV   omega=      5.3373 meV
     lambda___(   3 )=       0.119581   gamma___=       0.024248 meV   omega=      8.4470 meV
     lambda_tr(   3 )=      -0.245920   gamma_tr=      -0.049866 meV   omega=      8.4470 meV
     lambda___( tot )=       0.418892
     lambda_tr( tot )=      -0.131923
     -------------------------------------------------------------------


     Number of (k,k+q) pairs on the Fermi surface:      216 out of      216


     ismear =     1 iq =      25 coord.:   0.00000  0.66667  0.00000 wt:   0.00463
     -------------------------------------------------------------------
     lambda___(   1 )=       0.165087   gamma___=       0.005384 meV   omega=      3.3875 meV
     lambda_tr(   1 )=      -7.022135   gamma_tr=      -0.228998 meV   omega=      3.3875 meV
     lambda___(   2 )=       0.165087   gamma___=       0.005384 meV   omega=      3.3875 meV
     lambda_tr(   2 )=      -7.022135   gamma_tr=      -0.228998 meV   omega=      3.3875 meV
     lambda___(   3 )=       0.112830   gamma___=       0.018143 meV   omega=      7.5222 meV
     lambda_tr(   3 )=      -2.173518   gamma_tr=      -0.349510 meV   omega=      7.5222 meV
     lambda___( tot )=       0.443003
     lambda_tr( tot )=     -16.217788
     -------------------------------------------------------------------


     Number of (k,k+q) pairs on the Fermi surface:      216 out of      216


     ismear =     1 iq =      26 coord.:   0.00000  0.66667  0.16667 wt:   0.00463
     -------------------------------------------------------------------
     lambda___(   1 )=       0.048102   gamma___=       0.002437 meV   omega=      4.2226 meV
     lambda_tr(   1 )=       0.227258   gamma_tr=       0.011516 meV   omega=      4.2226 meV
     lambda___(   2 )=       0.035221   gamma___=       0.002625 meV   omega=      5.1214 meV
     lambda_tr(   2 )=      -0.056618   gamma_tr=      -0.004220 meV   omega=      5.1214 meV
     lambda___(   3 )=       0.008819   gamma___=       0.001624 meV   omega=      8.0496 meV
     lambda_tr(   3 )=      -0.011505   gamma_tr=      -0.002119 meV   omega=      8.0496 meV
     lambda___( tot )=       0.092142
     lambda_tr( tot )=       0.159135
     -------------------------------------------------------------------


     Number of (k,k+q) pairs on the Fermi surface:      216 out of      216


     ismear =     1 iq =      27 coord.:   0.00000  0.66667  0.33333 wt:   0.00463
     -------------------------------------------------------------------
     lambda___(   1 )=       0.098747   gamma___=       0.006766 meV   omega=      4.9101 meV
     lambda_tr(   1 )=       2.986206   gamma_tr=       0.204598 meV   omega=      4.9101 meV
     lambda___(   2 )=       0.106655   gamma___=       0.016730 meV   omega=      7.4294 meV
     lambda_tr(   2 )=       0.303997   gamma_tr=       0.047686 meV   omega=      7.4294 meV
     lambda___(   3 )=       0.111380   gamma___=       0.018572 meV   omega=      7.6599 meV
     lambda_tr(   3 )=       1.581071   gamma_tr=       0.263636 meV   omega=      7.6599 meV
     lambda___( tot )=       0.316782
     lambda_tr( tot )=       4.871275
     -------------------------------------------------------------------


     Number of (k,k+q) pairs on the Fermi surface:      216 out of      216


     ismear =     1 iq =      28 coord.:   0.00000  0.66667  0.50000 wt:   0.00463
     -------------------------------------------------------------------
     lambda___(   1 )=       0.033783   gamma___=       0.002200 meV   omega=      4.7874 meV
     lambda_tr(   1 )=       0.135829   gamma_tr=       0.008847 meV   omega=      4.7874 meV
     lambda___(   2 )=       0.014558   gamma___=       0.001331 meV   omega=      5.6726 meV
     lambda_tr(   2 )=      -0.003238   gamma_tr=      -0.000296 meV   omega=      5.6726 meV
     lambda___(   3 )=       0.009446   gamma___=       0.002112 meV   omega=      8.8695 meV
     lambda_tr(   3 )=      -0.001794   gamma_tr=      -0.000401 meV   omega=      8.8695 meV
     lambda___( tot )=       0.057787
     lambda_tr( tot )=       0.130797
     -------------------------------------------------------------------


     Number of (k,k+q) pairs on the Fermi surface:      216 out of      216


     ismear =     1 iq =      29 coord.:   0.00000  0.66667  0.66667 wt:   0.00463
     -------------------------------------------------------------------
     lambda___(   1 )=       0.473120   gamma___=       0.021220 meV   omega=      3.9727 meV
     lambda_tr(   1 )=       0.477271   gamma_tr=       0.021406 meV   omega=      3.9727 meV
     lambda___(   2 )=       0.473120   gamma___=       0.021220 meV   omega=      3.9727 meV
     lambda_tr(   2 )=       0.477271   gamma_tr=       0.021406 meV   omega=      3.9727 meV
     lambda___(   3 )=       0.018252   gamma___=       0.003676 meV   omega=      8.4186 meV
     lambda_tr(   3 )=       0.015068   gamma_tr=       0.003035 meV   omega=      8.4186 meV
     lambda___( tot )=       0.964493
     lambda_tr( tot )=       0.969611
     -------------------------------------------------------------------


     Number of (k,k+q) pairs on the Fermi surface:      216 out of      216


     ismear =     1 iq =      30 coord.:   0.00000  0.66667  0.83333 wt:   0.00463
     -------------------------------------------------------------------
     lambda___(   1 )=       0.012398   gamma___=       0.000374 meV   omega=      3.2582 meV
     lambda_tr(   1 )=       0.063751   gamma_tr=       0.001923 meV   omega=      3.2582 meV
     lambda___(   2 )=       0.028867   gamma___=       0.001173 meV   omega=      3.7812 meV
     lambda_tr(   2 )=       0.145858   gamma_tr=       0.005927 meV   omega=      3.7812 meV
     lambda___(   3 )=       0.007056   gamma___=       0.001051 meV   omega=      7.2397 meV
     lambda_tr(   3 )=      -0.014526   gamma_tr=      -0.002164 meV   omega=      7.2397 meV
     lambda___( tot )=       0.048320
     lambda_tr( tot )=       0.195082
     -------------------------------------------------------------------


     Number of (k,k+q) pairs on the Fermi surface:      216 out of      216


     ismear =     1 iq =      31 coord.:   0.00000  0.83333  0.00000 wt:   0.00463
     -------------------------------------------------------------------
     lambda___(   1 )=       0.026709   gamma___=       0.000242 meV   omega=      1.7871 meV
     lambda_tr(   1 )=       0.026747   gamma_tr=       0.000243 meV   omega=      1.7871 meV
     lambda___(   2 )=       0.026709   gamma___=       0.000242 meV   omega=      1.7871 meV
     lambda_tr(   2 )=       0.026747   gamma_tr=       0.000243 meV   omega=      1.7871 meV
     lambda___(   3 )=       0.025474   gamma___=       0.001312 meV   omega=      4.2564 meV
     lambda_tr(   3 )=       0.025329   gamma_tr=       0.001304 meV   omega=      4.2564 meV
     lambda___( tot )=       0.078893
     lambda_tr( tot )=       0.078823
     -------------------------------------------------------------------


     Number of (k,k+q) pairs on the Fermi surface:      216 out of      216


     ismear =     1 iq =      32 coord.:   0.00000  0.83333  0.16667 wt:   0.00463
     -------------------------------------------------------------------
     lambda___(   1 )=      -0.846957   gamma___=      -0.022807 meV   omega=      3.0782 meV
     lambda_tr(   1 )=      -1.707166   gamma_tr=      -0.045970 meV   omega=      3.0782 meV
     lambda___(   2 )=       0.566571   gamma___=       0.017149 meV   omega=      3.2635 meV
     lambda_tr(   2 )=      -0.426561   gamma_tr=      -0.012911 meV   omega=      3.2635 meV
     lambda___(   3 )=       0.039583   gamma___=       0.004461 meV   omega=      6.2976 meV
     lambda_tr(   3 )=       0.005904   gamma_tr=       0.000665 meV   omega=      6.2976 meV
     lambda___( tot )=      -0.240803
     lambda_tr( tot )=      -2.127823
     -------------------------------------------------------------------


     Number of (k,k+q) pairs on the Fermi surface:      216 out of      216


     ismear =     1 iq =      33 coord.:   0.00000  0.83333  0.33333 wt:   0.00463
     -------------------------------------------------------------------
     lambda___(   1 )=       0.048101   gamma___=       0.002437 meV   omega=      4.2226 meV
     lambda_tr(   1 )=       0.227257   gamma_tr=       0.011516 meV   omega=      4.2226 meV
     lambda___(   2 )=       0.035221   gamma___=       0.002625 meV   omega=      5.1214 meV
     lambda_tr(   2 )=      -0.056618   gamma_tr=      -0.004220 meV   omega=      5.1214 meV
     lambda___(   3 )=       0.008819   gamma___=       0.001624 meV   omega=      8.0496 meV
     lambda_tr(   3 )=      -0.011505   gamma_tr=      -0.002119 meV   omega=      8.0496 meV
     lambda___( tot )=       0.092142
     lambda_tr( tot )=       0.159134
     -------------------------------------------------------------------


     Number of (k,k+q) pairs on the Fermi surface:      216 out of      216


     ismear =     1 iq =      34 coord.:   0.00000  0.83333  0.50000 wt:   0.00463
     -------------------------------------------------------------------
     lambda___(   1 )=       0.237134   gamma___=       0.012664 meV   omega=      4.3349 meV
     lambda_tr(   1 )=       0.209179   gamma_tr=       0.011171 meV   omega=      4.3349 meV
     lambda___(   2 )=       0.062181   gamma___=       0.005034 meV   omega=      5.3373 meV
     lambda_tr(   2 )=      -0.095180   gamma_tr=      -0.007705 meV   omega=      5.3373 meV
     lambda___(   3 )=       0.119581   gamma___=       0.024248 meV   omega=      8.4470 meV
     lambda_tr(   3 )=      -0.245920   gamma_tr=      -0.049866 meV   omega=      8.4470 meV
     lambda___( tot )=       0.418896
     lambda_tr( tot )=      -0.131921
     -------------------------------------------------------------------


     Number of (k,k+q) pairs on the Fermi surface:      216 out of      216


     ismear =     1 iq =      35 coord.:   0.00000  0.83333  0.66667 wt:   0.00463
     -------------------------------------------------------------------
     lambda___(   1 )=       0.012398   gamma___=       0.000374 meV   omega=      3.2582 meV
     lambda_tr(   1 )=       0.063750   gamma_tr=       0.001923 meV   omega=      3.2582 meV
     lambda___(   2 )=       0.028867   gamma___=       0.001173 meV   omega=      3.7812 meV
     lambda_tr(   2 )=       0.145859   gamma_tr=       0.005927 meV   omega=      3.7812 meV
     lambda___(   3 )=       0.007056   gamma___=       0.001051 meV   omega=      7.2397 meV
     lambda_tr(   3 )=      -0.014526   gamma_tr=      -0.002164 meV   omega=      7.2397 meV
     lambda___( tot )=       0.048320
     lambda_tr( tot )=       0.195082
     -------------------------------------------------------------------


     Number of (k,k+q) pairs on the Fermi surface:      216 out of      216


     ismear =     1 iq =      36 coord.:   0.00000  0.83333  0.83333 wt:   0.00463
     -------------------------------------------------------------------
     lambda___(   1 )=       0.067301   gamma___=       0.000645 meV   omega=      1.8366 meV
     lambda_tr(   1 )=       0.166665   gamma_tr=       0.001598 meV   omega=      1.8366 meV
     lambda___(   2 )=       0.067301   gamma___=       0.000645 meV   omega=      1.8366 meV
     lambda_tr(   2 )=       0.166665   gamma_tr=       0.001598 meV   omega=      1.8366 meV
     lambda___(   3 )=       0.162151   gamma___=       0.011762 meV   omega=      5.0522 meV
     lambda_tr(   3 )=       0.067047   gamma_tr=       0.004864 meV   omega=      5.0522 meV
     lambda___( tot )=       0.296753
     lambda_tr( tot )=       0.400378
     -------------------------------------------------------------------


     Number of (k,k+q) pairs on the Fermi surface:      216 out of      216


     ismear =     1 iq =      37 coord.:   0.16667  0.00000  0.00000 wt:   0.00463
     -------------------------------------------------------------------
     lambda___(   1 )=       0.026709   gamma___=       0.000242 meV   omega=      1.7871 meV
     lambda_tr(   1 )=       0.026747   gamma_tr=       0.000243 meV   omega=      1.7871 meV
     lambda___(   2 )=       0.026709   gamma___=       0.000242 meV   omega=      1.7871 meV
     lambda_tr(   2 )=       0.026747   gamma_tr=       0.000243 meV   omega=      1.7871 meV
     lambda___(   3 )=       0.025474   gamma___=       0.001312 meV   omega=      4.2564 meV
     lambda_tr(   3 )=       0.025329   gamma_tr=       0.001304 meV   omega=      4.2564 meV
     lambda___( tot )=       0.078892
     lambda_tr( tot )=       0.078823
     -------------------------------------------------------------------


     Number of (k,k+q) pairs on the Fermi surface:      216 out of      216


     ismear =     1 iq =      38 coord.:   0.16667  0.00000  0.16667 wt:   0.00463
     -------------------------------------------------------------------
     lambda___(   1 )=       0.067301   gamma___=       0.000645 meV   omega=      1.8366 meV
     lambda_tr(   1 )=       0.166665   gamma_tr=       0.001598 meV   omega=      1.8366 meV
     lambda___(   2 )=       0.067301   gamma___=       0.000645 meV   omega=      1.8366 meV
     lambda_tr(   2 )=       0.166665   gamma_tr=       0.001598 meV   omega=      1.8366 meV
     lambda___(   3 )=       0.162152   gamma___=       0.011762 meV   omega=      5.0522 meV
     lambda_tr(   3 )=       0.067047   gamma_tr=       0.004864 meV   omega=      5.0522 meV
     lambda___( tot )=       0.296753
     lambda_tr( tot )=       0.400378
     -------------------------------------------------------------------


     Number of (k,k+q) pairs on the Fermi surface:      216 out of      216


     ismear =     1 iq =      39 coord.:   0.16667  0.00000  0.33333 wt:   0.00463
     -------------------------------------------------------------------
     lambda___(   1 )=       0.012398   gamma___=       0.000374 meV   omega=      3.2582 meV
     lambda_tr(   1 )=       0.063751   gamma_tr=       0.001923 meV   omega=      3.2582 meV
     lambda___(   2 )=       0.028867   gamma___=       0.001173 meV   omega=      3.7812 meV
     lambda_tr(   2 )=       0.145859   gamma_tr=       0.005927 meV   omega=      3.7812 meV
     lambda___(   3 )=       0.007056   gamma___=       0.001051 meV   omega=      7.2397 meV
     lambda_tr(   3 )=      -0.014527   gamma_tr=      -0.002164 meV   omega=      7.2397 meV
     lambda___( tot )=       0.048320
     lambda_tr( tot )=       0.195083
     -------------------------------------------------------------------


     Number of (k,k+q) pairs on the Fermi surface:      216 out of      216


     ismear =     1 iq =      40 coord.:   0.16667  0.00000  0.50000 wt:   0.00463
     -------------------------------------------------------------------
     lambda___(   1 )=       0.237002   gamma___=       0.012657 meV   omega=      4.3349 meV
     lambda_tr(   1 )=       0.209022   gamma_tr=       0.011163 meV   omega=      4.3349 meV
     lambda___(   2 )=       0.062155   gamma___=       0.005032 meV   omega=      5.3373 meV
     lambda_tr(   2 )=      -0.095226   gamma_tr=      -0.007709 meV   omega=      5.3373 meV
     lambda___(   3 )=       0.119602   gamma___=       0.024252 meV   omega=      8.4470 meV
     lambda_tr(   3 )=      -0.245887   gamma_tr=      -0.049859 meV   omega=      8.4470 meV
     lambda___( tot )=       0.418758
     lambda_tr( tot )=      -0.132091
     -------------------------------------------------------------------


     Number of (k,k+q) pairs on the Fermi surface:      216 out of      216


     ismear =     1 iq =      41 coord.:   0.16667  0.00000  0.66667 wt:   0.00463
     -------------------------------------------------------------------
     lambda___(   1 )=       0.048102   gamma___=       0.002437 meV   omega=      4.2226 meV
     lambda_tr(   1 )=       0.227258   gamma_tr=       0.011516 meV   omega=      4.2226 meV
     lambda___(   2 )=       0.035221   gamma___=       0.002625 meV   omega=      5.1214 meV
     lambda_tr(   2 )=      -0.056618   gamma_tr=      -0.004220 meV   omega=      5.1214 meV
     lambda___(   3 )=       0.008819   gamma___=       0.001624 meV   omega=      8.0496 meV
     lambda_tr(   3 )=      -0.011505   gamma_tr=      -0.002119 meV   omega=      8.0496 meV
     lambda___( tot )=       0.092142
     lambda_tr( tot )=       0.159135
     -------------------------------------------------------------------


     Number of (k,k+q) pairs on the Fermi surface:      216 out of      216


     ismear =     1 iq =      42 coord.:   0.16667  0.00000  0.83333 wt:   0.00463
     -------------------------------------------------------------------
     lambda___(   1 )=      -0.846953   gamma___=      -0.022806 meV   omega=      3.0782 meV
     lambda_tr(   1 )=      -1.707162   gamma_tr=      -0.045970 meV   omega=      3.0782 meV
     lambda___(   2 )=       0.566574   gamma___=       0.017149 meV   omega=      3.2635 meV
     lambda_tr(   2 )=      -0.426558   gamma_tr=      -0.012911 meV   omega=      3.2635 meV
     lambda___(   3 )=       0.039584   gamma___=       0.004462 meV   omega=      6.2976 meV
     lambda_tr(   3 )=       0.005906   gamma_tr=       0.000666 meV   omega=      6.2976 meV
     lambda___( tot )=      -0.240795
     lambda_tr( tot )=      -2.127814
     -------------------------------------------------------------------


     Number of (k,k+q) pairs on the Fermi surface:      216 out of      216


     ismear =     1 iq =      43 coord.:   0.16667  0.16667  0.00000 wt:   0.00463
     -------------------------------------------------------------------
     lambda___(   1 )=       0.073093   gamma___=       0.000701 meV   omega=      1.8366 meV
     lambda_tr(   1 )=       0.170094   gamma_tr=       0.001631 meV   omega=      1.8366 meV
     lambda___(   2 )=       0.073093   gamma___=       0.000701 meV   omega=      1.8366 meV
     lambda_tr(   2 )=       0.170094   gamma_tr=       0.001631 meV   omega=      1.8366 meV
     lambda___(   3 )=       0.165712   gamma___=       0.012021 meV   omega=      5.0522 meV
     lambda_tr(   3 )=       0.067612   gamma_tr=       0.004905 meV   omega=      5.0522 meV
     lambda___( tot )=       0.311898
     lambda_tr( tot )=       0.407800
     -------------------------------------------------------------------


     Number of (k,k+q) pairs on the Fermi surface:      216 out of      216


     ismear =     1 iq =      44 coord.:   0.16667  0.16667  0.16667 wt:   0.00463
     -------------------------------------------------------------------
     lambda___(   1 )=       0.026709   gamma___=       0.000242 meV   omega=      1.7871 meV
     lambda_tr(   1 )=       0.026747   gamma_tr=       0.000243 meV   omega=      1.7871 meV
     lambda___(   2 )=       0.026709   gamma___=       0.000242 meV   omega=      1.7871 meV
     lambda_tr(   2 )=       0.026747   gamma_tr=       0.000243 meV   omega=      1.7871 meV
     lambda___(   3 )=       0.025474   gamma___=       0.001312 meV   omega=      4.2564 meV
     lambda_tr(   3 )=       0.025329   gamma_tr=       0.001304 meV   omega=      4.2564 meV
     lambda___( tot )=       0.078893
     lambda_tr( tot )=       0.078823
     -------------------------------------------------------------------


     Number of (k,k+q) pairs on the Fermi surface:      216 out of      216


     ismear =     1 iq =      45 coord.:   0.16667  0.16667  0.33333 wt:   0.00463
     -------------------------------------------------------------------
     lambda___(   1 )=      -0.853767   gamma___=      -0.022990 meV   omega=      3.0782 meV
     lambda_tr(   1 )=      -1.713498   gamma_tr=      -0.046141 meV   omega=      3.0782 meV
     lambda___(   2 )=       0.576713   gamma___=       0.017456 meV   omega=      3.2635 meV
     lambda_tr(   2 )=      -0.410913   gamma_tr=      -0.012438 meV   omega=      3.2635 meV
     lambda___(   3 )=       0.040609   gamma___=       0.004577 meV   omega=      6.2976 meV
     lambda_tr(   3 )=       0.006891   gamma_tr=       0.000777 meV   omega=      6.2976 meV
     lambda___( tot )=      -0.236445
     lambda_tr( tot )=      -2.117520
     -------------------------------------------------------------------


     Number of (k,k+q) pairs on the Fermi surface:      216 out of      216


     ismear =     1 iq =      46 coord.:   0.16667  0.16667  0.50000 wt:   0.00463
     -------------------------------------------------------------------
     lambda___(   1 )=       0.048392   gamma___=       0.002452 meV   omega=      4.2226 meV
     lambda_tr(   1 )=       0.228923   gamma_tr=       0.011600 meV   omega=      4.2226 meV
     lambda___(   2 )=       0.035454   gamma___=       0.002643 meV   omega=      5.1214 meV
     lambda_tr(   2 )=      -0.057297   gamma_tr=      -0.004271 meV   omega=      5.1214 meV
     lambda___(   3 )=       0.008886   gamma___=       0.001636 meV   omega=      8.0496 meV
     lambda_tr(   3 )=      -0.011633   gamma_tr=      -0.002142 meV   omega=      8.0496 meV
     lambda___( tot )=       0.092732
     lambda_tr( tot )=       0.159993
     -------------------------------------------------------------------


     Number of (k,k+q) pairs on the Fermi surface:      216 out of      216


     ismear =     1 iq =      47 coord.:   0.16667  0.16667  0.66667 wt:   0.00463
     -------------------------------------------------------------------
     lambda___(   1 )=       0.233745   gamma___=       0.012483 meV   omega=      4.3349 meV
     lambda_tr(   1 )=       0.198403   gamma_tr=       0.010596 meV   omega=      4.3349 meV
     lambda___(   2 )=       0.062968   gamma___=       0.005098 meV   omega=      5.3373 meV
     lambda_tr(   2 )=      -0.096671   gamma_tr=      -0.007826 meV   omega=      5.3373 meV
     lambda___(   3 )=       0.118538   gamma___=       0.024036 meV   omega=      8.4470 meV
     lambda_tr(   3 )=      -0.250235   gamma_tr=      -0.050741 meV   omega=      8.4470 meV
     lambda___( tot )=       0.415252
     lambda_tr( tot )=      -0.148503
     -------------------------------------------------------------------


     Number of (k,k+q) pairs on the Fermi surface:      216 out of      216


     ismear =     1 iq =      48 coord.:   0.16667  0.16667  0.83333 wt:   0.00463
     -------------------------------------------------------------------
     lambda___(   1 )=       0.012434   gamma___=       0.000375 meV   omega=      3.2582 meV
     lambda_tr(   1 )=       0.063840   gamma_tr=       0.001926 meV   omega=      3.2582 meV
     lambda___(   2 )=       0.029001   gamma___=       0.001178 meV   omega=      3.7812 meV
     lambda_tr(   2 )=       0.146198   gamma_tr=       0.005940 meV   omega=      3.7812 meV
     lambda___(   3 )=       0.007097   gamma___=       0.001057 meV   omega=      7.2397 meV
     lambda_tr(   3 )=      -0.014662   gamma_tr=      -0.002184 meV   omega=      7.2397 meV
     lambda___( tot )=       0.048532
     lambda_tr( tot )=       0.195376
     -------------------------------------------------------------------


     Number of (k,k+q) pairs on the Fermi surface:      216 out of      216


     ismear =     1 iq =      49 coord.:   0.16667  0.33333  0.00000 wt:   0.00463
     -------------------------------------------------------------------
     lambda___(   1 )=       0.012434   gamma___=       0.000375 meV   omega=      3.2582 meV
     lambda_tr(   1 )=       0.063843   gamma_tr=       0.001926 meV   omega=      3.2582 meV
     lambda___(   2 )=       0.029001   gamma___=       0.001178 meV   omega=      3.7812 meV
     lambda_tr(   2 )=       0.146198   gamma_tr=       0.005940 meV   omega=      3.7812 meV
     lambda___(   3 )=       0.007097   gamma___=       0.001057 meV   omega=      7.2397 meV
     lambda_tr(   3 )=      -0.014662   gamma_tr=      -0.002184 meV   omega=      7.2397 meV
     lambda___( tot )=       0.048533
     lambda_tr( tot )=       0.195379
     -------------------------------------------------------------------


     Number of (k,k+q) pairs on the Fermi surface:      216 out of      216


     ismear =     1 iq =      50 coord.:   0.16667  0.33333  0.16667 wt:   0.00463
     -------------------------------------------------------------------
     lambda___(   1 )=      -0.846957   gamma___=      -0.022807 meV   omega=      3.0782 meV
     lambda_tr(   1 )=      -1.707167   gamma_tr=      -0.045970 meV   omega=      3.0782 meV
     lambda___(   2 )=       0.566572   gamma___=       0.017149 meV   omega=      3.2635 meV
     lambda_tr(   2 )=      -0.426560   gamma_tr=      -0.012911 meV   omega=      3.2635 meV
     lambda___(   3 )=       0.039583   gamma___=       0.004461 meV   omega=      6.2976 meV
     lambda_tr(   3 )=       0.005905   gamma_tr=       0.000666 meV   omega=      6.2976 meV
     lambda___( tot )=      -0.240802
     lambda_tr( tot )=      -2.127822
     -------------------------------------------------------------------


     Number of (k,k+q) pairs on the Fermi surface:      216 out of      216


     ismear =     1 iq =      51 coord.:   0.16667  0.33333  0.33333 wt:   0.00463
     -------------------------------------------------------------------
     lambda___(   1 )=       0.012398   gamma___=       0.000374 meV   omega=      3.2582 meV
     lambda_tr(   1 )=       0.063753   gamma_tr=       0.001923 meV   omega=      3.2582 meV
     lambda___(   2 )=       0.028867   gamma___=       0.001173 meV   omega=      3.7812 meV
     lambda_tr(   2 )=       0.145862   gamma_tr=       0.005927 meV   omega=      3.7812 meV
     lambda___(   3 )=       0.007056   gamma___=       0.001051 meV   omega=      7.2397 meV
     lambda_tr(   3 )=      -0.014526   gamma_tr=      -0.002164 meV   omega=      7.2397 meV
     lambda___( tot )=       0.048320
     lambda_tr( tot )=       0.195089
     -------------------------------------------------------------------


     Number of (k,k+q) pairs on the Fermi surface:      216 out of      216


     ismear =     1 iq =      52 coord.:   0.16667  0.33333  0.50000 wt:   0.00463
     -------------------------------------------------------------------
     lambda___(   1 )=      -0.182839   gamma___=      -0.010888 meV   omega=      4.5777 meV
     lambda_tr(   1 )=      -0.289730   gamma_tr=      -0.017254 meV   omega=      4.5777 meV
     lambda___(   2 )=       0.416986   gamma___=       0.034994 meV   omega=      5.4341 meV
     lambda_tr(   2 )=      -1.129333   gamma_tr=      -0.094775 meV   omega=      5.4341 meV
     lambda___(   3 )=       0.138755   gamma___=       0.026001 meV   omega=      8.1203 meV
     lambda_tr(   3 )=       0.555450   gamma_tr=       0.104087 meV   omega=      8.1203 meV
     lambda___( tot )=       0.372902
     lambda_tr( tot )=      -0.863613
     -------------------------------------------------------------------


     Number of (k,k+q) pairs on the Fermi surface:      216 out of      216


     ismear =     1 iq =      53 coord.:   0.16667  0.33333  0.66667 wt:   0.00463
     -------------------------------------------------------------------
     lambda___(   1 )=       0.006017   gamma___=       0.000452 meV   omega=      5.1442 meV
     lambda_tr(   1 )=       0.016847   gamma_tr=       0.001267 meV   omega=      5.1442 meV
     lambda___(   2 )=       0.004797   gamma___=       0.000645 meV   omega=      6.8777 meV
     lambda_tr(   2 )=      -0.002343   gamma_tr=      -0.000315 meV   omega=      6.8777 meV
     lambda___(   3 )=       0.017296   gamma___=       0.003156 meV   omega=      8.0133 meV
     lambda_tr(   3 )=       0.079641   gamma_tr=       0.014534 meV   omega=      8.0133 meV
     lambda___( tot )=       0.028110
     lambda_tr( tot )=       0.094145
     -------------------------------------------------------------------


     Number of (k,k+q) pairs on the Fermi surface:      216 out of      216


     ismear =     1 iq =      54 coord.:   0.16667  0.33333  0.83333 wt:   0.00463
     -------------------------------------------------------------------
     lambda___(   1 )=      -0.184997   gamma___=      -0.011017 meV   omega=      4.5777 meV
     lambda_tr(   1 )=      -0.289933   gamma_tr=      -0.017266 meV   omega=      4.5777 meV
     lambda___(   2 )=       0.419073   gamma___=       0.035169 meV   omega=      5.4341 meV
     lambda_tr(   2 )=      -1.113854   gamma_tr=      -0.093476 meV   omega=      5.4341 meV
     lambda___(   3 )=       0.137819   gamma___=       0.025826 meV   omega=      8.1203 meV
     lambda_tr(   3 )=       0.557466   gamma_tr=       0.104464 meV   omega=      8.1203 meV
     lambda___( tot )=       0.371895
     lambda_tr( tot )=      -0.846320
     -------------------------------------------------------------------


     Number of (k,k+q) pairs on the Fermi surface:      216 out of      216


     ismear =     1 iq =      55 coord.:   0.16667  0.50000  0.00000 wt:   0.00463
     -------------------------------------------------------------------
     lambda___(   1 )=       0.233538   gamma___=       0.012472 meV   omega=      4.3349 meV
     lambda_tr(   1 )=       0.198182   gamma_tr=       0.010584 meV   omega=      4.3349 meV
     lambda___(   2 )=       0.062957   gamma___=       0.005097 meV   omega=      5.3373 meV
     lambda_tr(   2 )=      -0.096694   gamma_tr=      -0.007828 meV   omega=      5.3373 meV
     lambda___(   3 )=       0.118566   gamma___=       0.024042 meV   omega=      8.4470 meV
     lambda_tr(   3 )=      -0.250189   gamma_tr=      -0.050731 meV   omega=      8.4470 meV
     lambda___( tot )=       0.415062
     lambda_tr( tot )=      -0.148700
     -------------------------------------------------------------------


     Number of (k,k+q) pairs on the Fermi surface:      216 out of      216


     ismear =     1 iq =      56 coord.:   0.16667  0.50000  0.16667 wt:   0.00463
     -------------------------------------------------------------------
     lambda___(   1 )=       0.048101   gamma___=       0.002437 meV   omega=      4.2226 meV
     lambda_tr(   1 )=       0.227257   gamma_tr=       0.011516 meV   omega=      4.2226 meV
     lambda___(   2 )=       0.035221   gamma___=       0.002625 meV   omega=      5.1214 meV
     lambda_tr(   2 )=      -0.056618   gamma_tr=      -0.004220 meV   omega=      5.1214 meV
     lambda___(   3 )=       0.008819   gamma___=       0.001624 meV   omega=      8.0496 meV
     lambda_tr(   3 )=      -0.011505   gamma_tr=      -0.002119 meV   omega=      8.0496 meV
     lambda___( tot )=       0.092142
     lambda_tr( tot )=       0.159134
     -------------------------------------------------------------------


     Number of (k,k+q) pairs on the Fermi surface:      216 out of      216


     ismear =     1 iq =      57 coord.:   0.16667  0.50000  0.33333 wt:   0.00463
     -------------------------------------------------------------------
     lambda___(   1 )=      -0.181875   gamma___=      -0.010831 meV   omega=      4.5777 meV
     lambda_tr(   1 )=      -0.292888   gamma_tr=      -0.017442 meV   omega=      4.5777 meV
     lambda___(   2 )=       0.416221   gamma___=       0.034930 meV   omega=      5.4341 meV
     lambda_tr(   2 )=      -1.117607   gamma_tr=      -0.093791 meV   omega=      5.4341 meV
     lambda___(   3 )=       0.139626   gamma___=       0.026165 meV   omega=      8.1203 meV
     lambda_tr(   3 )=       0.558639   gamma_tr=       0.104684 meV   omega=      8.1203 meV
     lambda___( tot )=       0.373971
     lambda_tr( tot )=      -0.851856
     -------------------------------------------------------------------


     Number of (k,k+q) pairs on the Fermi surface:      216 out of      216


     ismear =     1 iq =      58 coord.:   0.16667  0.50000  0.50000 wt:   0.00463
     -------------------------------------------------------------------
     lambda___(   1 )=       0.033783   gamma___=       0.002200 meV   omega=      4.7874 meV
     lambda_tr(   1 )=       0.135829   gamma_tr=       0.008847 meV   omega=      4.7874 meV
     lambda___(   2 )=       0.014558   gamma___=       0.001331 meV   omega=      5.6726 meV
     lambda_tr(   2 )=      -0.003238   gamma_tr=      -0.000296 meV   omega=      5.6726 meV
     lambda___(   3 )=       0.009446   gamma___=       0.002112 meV   omega=      8.8695 meV
     lambda_tr(   3 )=      -0.001794   gamma_tr=      -0.000401 meV   omega=      8.8695 meV
     lambda___( tot )=       0.057787
     lambda_tr( tot )=       0.130797
     -------------------------------------------------------------------


     Number of (k,k+q) pairs on the Fermi surface:      216 out of      216


     ismear =     1 iq =      59 coord.:   0.16667  0.50000  0.66667 wt:   0.00463
     -------------------------------------------------------------------
     lambda___(   1 )=       0.034488   gamma___=       0.002974 meV   omega=      5.5086 meV
     lambda_tr(   1 )=       0.037722   gamma_tr=       0.003253 meV   omega=      5.5086 meV
     lambda___(   2 )=       0.061396   gamma___=       0.007177 meV   omega=      6.4134 meV
     lambda_tr(   2 )=       0.059352   gamma_tr=       0.006938 meV   omega=      6.4134 meV
     lambda___(   3 )=       0.092346   gamma___=       0.019439 meV   omega=      8.6064 meV
     lambda_tr(   3 )=       0.101038   gamma_tr=       0.021269 meV   omega=      8.6064 meV
     lambda___( tot )=       0.188230
     lambda_tr( tot )=       0.198112
     -------------------------------------------------------------------


     Number of (k,k+q) pairs on the Fermi surface:      216 out of      216


     ismear =     1 iq =      60 coord.:   0.16667  0.50000  0.83333 wt:   0.00463
     -------------------------------------------------------------------
     lambda___(   1 )=       0.006017   gamma___=       0.000452 meV   omega=      5.1442 meV
     lambda_tr(   1 )=       0.016844   gamma_tr=       0.001267 meV   omega=      5.1442 meV
     lambda___(   2 )=       0.004797   gamma___=       0.000645 meV   omega=      6.8777 meV
     lambda_tr(   2 )=      -0.002343   gamma_tr=      -0.000315 meV   omega=      6.8777 meV
     lambda___(   3 )=       0.017296   gamma___=       0.003156 meV   omega=      8.0133 meV
     lambda_tr(   3 )=       0.079641   gamma_tr=       0.014534 meV   omega=      8.0133 meV
     lambda___( tot )=       0.028110
     lambda_tr( tot )=       0.094142
     -------------------------------------------------------------------


     Number of (k,k+q) pairs on the Fermi surface:      216 out of      216


     ismear =     1 iq =      61 coord.:   0.16667  0.66667  0.00000 wt:   0.00463
     -------------------------------------------------------------------
     lambda___(   1 )=       0.048392   gamma___=       0.002452 meV   omega=      4.2226 meV
     lambda_tr(   1 )=       0.228924   gamma_tr=       0.011600 meV   omega=      4.2226 meV
     lambda___(   2 )=       0.035454   gamma___=       0.002643 meV   omega=      5.1214 meV
     lambda_tr(   2 )=      -0.057297   gamma_tr=      -0.004271 meV   omega=      5.1214 meV
     lambda___(   3 )=       0.008886   gamma___=       0.001636 meV   omega=      8.0496 meV
     lambda_tr(   3 )=      -0.011634   gamma_tr=      -0.002142 meV   omega=      8.0496 meV
     lambda___( tot )=       0.092733
     lambda_tr( tot )=       0.159994
     -------------------------------------------------------------------


     Number of (k,k+q) pairs on the Fermi surface:      216 out of      216


     ismear =     1 iq =      62 coord.:   0.16667  0.66667  0.16667 wt:   0.00463
     -------------------------------------------------------------------
     lambda___(   1 )=       0.237131   gamma___=       0.012664 meV   omega=      4.3349 meV
     lambda_tr(   1 )=       0.209177   gamma_tr=       0.011171 meV   omega=      4.3349 meV
     lambda___(   2 )=       0.062181   gamma___=       0.005034 meV   omega=      5.3373 meV
     lambda_tr(   2 )=      -0.095179   gamma_tr=      -0.007705 meV   omega=      5.3373 meV
     lambda___(   3 )=       0.119581   gamma___=       0.024248 meV   omega=      8.4470 meV
     lambda_tr(   3 )=      -0.245920   gamma_tr=      -0.049866 meV   omega=      8.4470 meV
     lambda___( tot )=       0.418894
     lambda_tr( tot )=      -0.131922
     -------------------------------------------------------------------


     Number of (k,k+q) pairs on the Fermi surface:      216 out of      216


     ismear =     1 iq =      63 coord.:   0.16667  0.66667  0.33333 wt:   0.00463
     -------------------------------------------------------------------
     lambda___(   1 )=       0.006086   gamma___=       0.000458 meV   omega=      5.1442 meV
     lambda_tr(   1 )=       0.017264   gamma_tr=       0.001298 meV   omega=      5.1442 meV
     lambda___(   2 )=       0.004838   gamma___=       0.000650 meV   omega=      6.8777 meV
     lambda_tr(   2 )=      -0.002277   gamma_tr=      -0.000306 meV   omega=      6.8777 meV
     lambda___(   3 )=       0.017456   gamma___=       0.003185 meV   omega=      8.0133 meV
     lambda_tr(   3 )=       0.080609   gamma_tr=       0.014710 meV   omega=      8.0133 meV
     lambda___( tot )=       0.028380
     lambda_tr( tot )=       0.095596
     -------------------------------------------------------------------


     Number of (k,k+q) pairs on the Fermi surface:      216 out of      216


     ismear =     1 iq =      64 coord.:   0.16667  0.66667  0.50000 wt:   0.00463
     -------------------------------------------------------------------
     lambda___(   1 )=       0.034771   gamma___=       0.002999 meV   omega=      5.5086 meV
     lambda_tr(   1 )=       0.038295   gamma_tr=       0.003302 meV   omega=      5.5086 meV
     lambda___(   2 )=       0.061049   gamma___=       0.007136 meV   omega=      6.4134 meV
     lambda_tr(   2 )=       0.059104   gamma_tr=       0.006909 meV   omega=      6.4134 meV
     lambda___(   3 )=       0.090464   gamma___=       0.019043 meV   omega=      8.6064 meV
     lambda_tr(   3 )=       0.099120   gamma_tr=       0.020865 meV   omega=      8.6064 meV
     lambda___( tot )=       0.186284
     lambda_tr( tot )=       0.196520
     -------------------------------------------------------------------


     Number of (k,k+q) pairs on the Fermi surface:      216 out of      216


     ismear =     1 iq =      65 coord.:   0.16667  0.66667  0.66667 wt:   0.00463
     -------------------------------------------------------------------
     lambda___(   1 )=       0.033784   gamma___=       0.002200 meV   omega=      4.7874 meV
[...]
      211        7      6.7121    141.3954    110.3614      1.1605     -0.1383
      212        7      5.5884    203.3616    177.8946      1.4030     -0.2873
      213        7      4.6673    195.3595    166.8226      1.3564     -0.2627
      214        7      5.4585    143.0772    153.0838      1.2942     -0.2274
      215        7      6.8732    157.7382     60.0225      1.0390     -0.0375
      216        7      7.7957    128.1183     32.7684      1.0601     -0.0567
  
        1        8      8.2862     99.8478      0.1016      0.9726      0.0282
        2        8      7.7982    127.7908     32.7219      1.0603     -0.0569
        3        8      6.7126    174.1941     84.4699      1.0751     -0.0699
        4        8      6.1174    163.6045      8.1332      0.9223      0.0842
        5        8      6.7126    174.1941     84.4699      1.0751     -0.0699
        6        8      7.7982    127.7908     32.7219      1.0603     -0.0569
        7        8      7.7982    127.7908     32.7219      1.0603     -0.0569
        8        8      6.7129    141.5363    110.5979      1.1615     -0.1391
        9        8      5.5908    204.4717    177.9789      1.3965     -0.2839
       10        8      4.6703    196.1395    166.9528      1.3628     -0.2662
       11        8      5.4617    143.3792    154.2696      1.3037     -0.2330
       12        8      6.8817    158.3724     58.1314      1.0329     -0.0319
       13        8      6.7126    174.1941     84.4699      1.0751     -0.0699
       14        8      5.5908    204.4717    177.9788      1.3965     -0.2839
       15        8      3.4267    140.3442    123.3266      1.1159     -0.1039
       16        8      2.3802     73.0563    223.1191      1.2980     -0.2296
       17        8      3.4954    180.1304    171.0580      1.1822     -0.1541
       18        8      5.4617    143.3793    154.2696      1.3037     -0.2330
       19        8      6.1174    163.6045      8.1332      0.9223      0.0842
       20        8      4.6703    196.1395    166.9528      1.3628     -0.2662
       21        8      2.3802     73.0563    223.1190      1.2980     -0.2296
       22        8      1.7131    186.4923     15.1495      0.8510      0.1751
       23        8      2.3802     73.0562    223.1192      1.2980     -0.2296
       24        8      4.6703    196.1396    166.9527      1.3628     -0.2662
       25        8      6.7126    174.1941     84.4699      1.0751     -0.0699
       26        8      5.4617    143.3792    154.2696      1.3037     -0.2330
       27        8      3.4954    180.1304    171.0580      1.1822     -0.1541
       28        8      2.3802     73.0562    223.1193      1.2980     -0.2296
       29        8      3.4267    140.3442    123.3266      1.1159     -0.1039
       30        8      5.5908    204.4718    177.9788      1.3965     -0.2839
       31        8      7.7982    127.7908     32.7219      1.0603     -0.0569
       32        8      6.8817    158.3724     58.1314      1.0329     -0.0319
       33        8      5.4617    143.3793    154.2697      1.3037     -0.2330
       34        8      4.6703    196.1396    166.9528      1.3628     -0.2662
       35        8      5.5908    204.4718    177.9789      1.3965     -0.2839
       36        8      6.7129    141.5363    110.5980      1.1615     -0.1391
       37        8      7.7982    127.7908     32.7219      1.0603     -0.0569
       38        8      6.7129    141.5363    110.5979      1.1615     -0.1391
       39        8      5.5908    204.4717    177.9789      1.3965     -0.2839
       40        8      4.6703    196.1395    166.9528      1.3628     -0.2662
       41        8      5.4617    143.3792    154.2696      1.3037     -0.2330
       42        8      6.8817    158.3724     58.1314      1.0329     -0.0319
       43        8      6.7121    141.3954    110.3613      1.1605     -0.1383
       44        8      7.7982    127.7908     32.7219      1.0603     -0.0569
       45        8      6.8827    158.4494     57.8544      1.0322     -0.0312
       46        8      5.4623    143.5449    154.4859      1.3052     -0.2338
       47        8      4.6689    195.6152    166.7221      1.3601     -0.2648
       48        8      5.5902    204.3422    178.1858      1.3981     -0.2847
       49        8      5.5902    204.3422    178.1858      1.3981     -0.2847
       50        8      6.8817    158.3724     58.1314      1.0329     -0.0319
       51        8      5.5908    204.4717    177.9788      1.3965     -0.2839
       52        8      4.0623    210.7604    306.5302      1.7569     -0.4308
       53        8      2.9909    221.5609    393.5084      2.0414     -0.5101
       54        8      4.0608    210.0652    307.2508      1.7653     -0.4335
       55        8      4.6689    195.6151    166.7223      1.3601     -0.2648
       56        8      5.4617    143.3793    154.2697      1.3037     -0.2330
       57        8      4.0621    210.5611    306.5874      1.7566     -0.4307
       58        8      2.3802     73.0562    223.1192      1.2980     -0.2296
       59        8      1.4397    203.9256    157.4906      0.9877      0.0124
       60        8      2.9909    221.5607    393.5087      2.0414     -0.5101
       61        8      5.4623    143.5448    154.4857      1.3052     -0.2338
       62        8      4.6703    196.1396    166.9527      1.3628     -0.2662
       63        8      2.9903    221.0248    394.3583      2.0583     -0.5142
       64        8      1.4368    204.0035    158.9657      0.9918      0.0083
       65        8      2.3802     73.0563    223.1191      1.2980     -0.2296
       66        8      4.0623    210.7604    306.5304      1.7569     -0.4308
       67        8      6.8827    158.4494     57.8545      1.0322     -0.0312
       68        8      5.5908    204.4717    177.9788      1.3965     -0.2839
       69        8      4.0621    210.5611    306.5875      1.7566     -0.4307
       70        8      2.9903    221.0249    394.3584      2.0583     -0.5142
       71        8      4.0621    210.5611    306.5875      1.7566     -0.4307
       72        8      5.5908    204.4717    177.9789      1.3965     -0.2839
       73        8      6.7126    174.1941     84.4699      1.0751     -0.0699
       74        8      5.5908    204.4717    177.9789      1.3965     -0.2839
       75        8      3.4267    140.3442    123.3266      1.1159     -0.1039
       76        8      2.3802     73.0563    223.1191      1.2980     -0.2296
       77        8      3.4954    180.1304    171.0580      1.1822     -0.1541
       78        8      5.4617    143.3793    154.2697      1.3037     -0.2330
       79        8      5.5902    204.3422    178.1858      1.3981     -0.2847
       80        8      6.8817    158.3724     58.1314      1.0329     -0.0319
       81        8      5.5908    204.4717    177.9787      1.3965     -0.2839
       82        8      4.0623    210.7604    306.5303      1.7569     -0.4308
       83        8      2.9909    221.5608    393.5085      2.0414     -0.5101
       84        8      4.0608    210.0652    307.2508      1.7653     -0.4335
       85        8      3.4267    140.3244    123.3118      1.1158     -0.1038
       86        8      5.5902    204.3422    178.1858      1.3981     -0.2847
       87        8      6.7126    174.1941     84.4699      1.0751     -0.0699
       88        8      5.4623    143.5448    154.4857      1.3052     -0.2338
       89        8      3.4954    180.1194    171.0542      1.1822     -0.1541
       90        8      2.3795     73.0411    221.3414      1.2877     -0.2234
       91        8      2.3795     73.0408    221.3412      1.2877     -0.2234
       92        8      4.0608    210.0652    307.2508      1.7653     -0.4335
       93        8      5.4617    143.3792    154.2696      1.3037     -0.2330
       94        8      4.6703    196.1396    166.9527      1.3628     -0.2662
       95        8      2.9909    221.5608    393.5086      2.0414     -0.5101
       96        8      1.4395    203.9535    157.5658      0.9878      0.0124
       97        8      3.4954    180.1194    171.0542      1.1822     -0.1541
       98        8      2.9909    221.5608    393.5086      2.0414     -0.5101
       99        8      3.4954    180.1304    171.0580      1.1822     -0.1541
      100        8      2.9903    221.0248    394.3584      2.0583     -0.5142
      101        8      3.4954    180.1304    171.0580      1.1822     -0.1541
      102        8      2.9909    221.5608    393.5086      2.0414     -0.5101
      103        8      5.4623    143.5449    154.4860      1.3052     -0.2338
      104        8      4.0623    210.7604    306.5303      1.7569     -0.4308
      105        8      2.3802     73.0562    223.1192      1.2980     -0.2296
      106        8      1.4368    204.0036    158.9657      0.9918      0.0083
      107        8      2.9903    221.0249    394.3584      2.0583     -0.5142
      108        8      4.6703    196.1395    166.9529      1.3628     -0.2662
      109        8      6.1174    163.6045      8.1332      0.9223      0.0842
      110        8      4.6703    196.1395    166.9528      1.3628     -0.2662
      111        8      2.3802     73.0563    223.1191      1.2980     -0.2296
      112        8      1.7131    186.4923     15.1495      0.8510      0.1751
      113        8      2.3802     73.0562    223.1192      1.2980     -0.2296
      114        8      4.6703    196.1396    166.9527      1.3628     -0.2662
      115        8      4.6689    195.6151    166.7223      1.3601     -0.2648
      116        8      5.4617    143.3793    154.2696      1.3037     -0.2330
      117        8      4.0621    210.5611    306.5874      1.7566     -0.4307
      118        8      2.3802     73.0562    223.1191      1.2980     -0.2296
      119        8      1.4397    203.9256    157.4906      0.9877      0.0124
      120        8      2.9909    221.5608    393.5086      2.0414     -0.5101
      121        8      2.3795     73.0409    221.3412      1.2877     -0.2234
      122        8      4.0608    210.0652    307.2508      1.7653     -0.4335
      123        8      5.4617    143.3792    154.2696      1.3037     -0.2330
      124        8      4.6703    196.1396    166.9527      1.3628     -0.2662
      125        8      2.9909    221.5607    393.5087      2.0414     -0.5101
      126        8      1.4395    203.9535    157.5658      0.9878      0.0124
      127        8      1.7143    186.3125     14.9049      0.8509      0.1752
      128        8      2.3795     73.0410    221.3413      1.2877     -0.2234
      129        8      4.6689    195.6152    166.7221      1.3601     -0.2648
      130        8      6.1174    163.6045      8.1332      0.9223      0.0842
      131        8      4.6689    195.6151    166.7223      1.3601     -0.2648
      132        8      2.3795     73.0408    221.3413      1.2877     -0.2234
      133        8      2.3795     73.0410    221.3414      1.2877     -0.2234
      134        8      1.4395    203.9535    157.5658      0.9878      0.0124
      135        8      2.9909    221.5608    393.5085      2.0414     -0.5101
      136        8      4.6703    196.1395    166.9529      1.3628     -0.2662
      137        8      5.4617    143.3793    154.2697      1.3037     -0.2330
      138        8      4.0608    210.0652    307.2509      1.7653     -0.4335
      139        8      4.6689    195.6153    166.7222      1.3601     -0.2648
      140        8      2.9909    221.5609    393.5085      2.0414     -0.5101
      141        8      1.4397    203.9256    157.4906      0.9877      0.0124
      142        8      2.3802     73.0563    223.1191      1.2980     -0.2296
      143        8      4.0621    210.5611    306.5875      1.7566     -0.4307
      144        8      5.4617    143.3792    154.2696      1.3037     -0.2330
      145        8      6.7126    174.1941     84.4699      1.0751     -0.0699
      146        8      5.4617    143.3792    154.2696      1.3037     -0.2330
      147        8      3.4954    180.1304    171.0580      1.1822     -0.1541
      148        8      2.3802     73.0562    223.1193      1.2980     -0.2296
      149        8      3.4267    140.3442    123.3266      1.1159     -0.1039
      150        8      5.5908    204.4717    177.9788      1.3965     -0.2839
      151        8      5.4623    143.5448    154.4857      1.3052     -0.2338
      152        8      4.6703    196.1396    166.9527      1.3628     -0.2662
      153        8      2.9903    221.0248    394.3584      2.0583     -0.5142
      154        8      1.4368    204.0035    158.9657      0.9918      0.0083
      155        8      2.3802     73.0563    223.1191      1.2980     -0.2296
      156        8      4.0623    210.7604    306.5303      1.7569     -0.4308
      157        8      3.4954    180.1194    171.0542      1.1822     -0.1541
      158        8      2.9909    221.5607    393.5087      2.0414     -0.5101
      159        8      3.4954    180.1304    171.0580      1.1822     -0.1541
      160        8      2.9903    221.0248    394.3583      2.0583     -0.5142
      161        8      3.4954    180.1304    171.0580      1.1822     -0.1541
      162        8      2.9909    221.5609    393.5084      2.0414     -0.5101
      163        8      2.3795     73.0411    221.3414      1.2877     -0.2234
      164        8      1.4395    203.9535    157.5658      0.9878      0.0124
      165        8      2.9909    221.5609    393.5084      2.0414     -0.5101
      166        8      4.6703    196.1395    166.9529      1.3628     -0.2662
      167        8      5.4617    143.3792    154.2697      1.3037     -0.2330
      168        8      4.0608    210.0652    307.2509      1.7653     -0.4335
      169        8      3.4267    140.3244    123.3119      1.1158     -0.1038
      170        8      2.3795     73.0408    221.3413      1.2877     -0.2234
      171        8      3.4954    180.1194    171.0542      1.1822     -0.1541
      172        8      5.4623    143.5449    154.4859      1.3052     -0.2338
      173        8      6.7126    174.1941     84.4699      1.0751     -0.0699
      174        8      5.5902    204.3423    178.1859      1.3981     -0.2847
      175        8      5.5902    204.3423    178.1859      1.3981     -0.2847
      176        8      4.0608    210.0652    307.2510      1.7653     -0.4335
      177        8      2.9909    221.5608    393.5088      2.0414     -0.5101
      178        8      4.0623    210.7605    306.5304      1.7569     -0.4308
      179        8      5.5908    204.4717    177.9790      1.3965     -0.2839
      180        8      6.8817    158.3724     58.1314      1.0329     -0.0319
      181        8      7.7982    127.7908     32.7219      1.0603     -0.0569
      182        8      6.8817    158.3724     58.1314      1.0329     -0.0319
      183        8      5.4617    143.3792    154.2697      1.3037     -0.2330
      184        8      4.6703    196.1396    166.9528      1.3628     -0.2662
      185        8      5.5908    204.4718    177.9788      1.3965     -0.2839
      186        8      6.7129    141.5363    110.5980      1.1615     -0.1391
      187        8      6.8827    158.4494     57.8545      1.0322     -0.0312
      188        8      5.5908    204.4717    177.9788      1.3965     -0.2839
      189        8      4.0621    210.5611    306.5874      1.7566     -0.4307
      190        8      2.9903    221.0249    394.3584      2.0583     -0.5142
      191        8      4.0621    210.5611    306.5875      1.7566     -0.4307
      192        8      5.5908    204.4717    177.9789      1.3965     -0.2839
      193        8      5.4623    143.5449    154.4859      1.3052     -0.2338
      194        8      4.0623    210.7604    306.5303      1.7569     -0.4308
      195        8      2.3802     73.0562    223.1192      1.2980     -0.2296
      196        8      1.4368    204.0035    158.9657      0.9918      0.0083
      197        8      2.9903    221.0249    394.3584      2.0583     -0.5142
      198        8      4.6703    196.1395    166.9529      1.3628     -0.2662
      199        8      4.6689    195.6152    166.7222      1.3601     -0.2648
      200        8      2.9909    221.5608    393.5085      2.0414     -0.5101
      201        8      1.4397    203.9256    157.4906      0.9877      0.0124
      202        8      2.3802     73.0563    223.1191      1.2980     -0.2296
      203        8      4.0621    210.5611    306.5875      1.7566     -0.4307
      204        8      5.4617    143.3792    154.2696      1.3037     -0.2330
      205        8      5.5902    204.3423    178.1859      1.3981     -0.2847
      206        8      4.0608    210.0652    307.2509      1.7653     -0.4335
      207        8      2.9909    221.5608    393.5087      2.0414     -0.5101
      208        8      4.0623    210.7605    306.5304      1.7569     -0.4308
      209        8      5.5908    204.4717    177.9790      1.3965     -0.2839
      210        8      6.8817    158.3724     58.1314      1.0329     -0.0319
      211        8      6.7121    141.3954    110.3614      1.1605     -0.1383
      212        8      5.5902    204.3423    178.1859      1.3981     -0.2847
      213        8      4.6689    195.6151    166.7224      1.3601     -0.2648
      214        8      5.4623    143.5448    154.4858      1.3052     -0.2338
      215        8      6.8827    158.4494     57.8545      1.0322     -0.0312
      216        8      7.7982    127.7908     32.7219      1.0603     -0.0569
  
     ===================================================================
     Memory usage:  VmHWM =        74Mb
                   VmPeak =       409Mb
     ===================================================================


     ===================================================================
     Eliashberg Spectral Function in the Migdal Approximation
     ===================================================================

     lambda :    0.2836335
     lambda_tr :    0.7202055
 
     Estimated Allen-Dynes Tc
 
     logavg =    0.0003671 l_a2f =    0.2837057
     mu =   0.10 Tc =         0.015616677390 K
     mu =   0.12 Tc =         0.004148962977 K
     mu =   0.14 Tc =         0.000652999080 K
     mu =   0.16 Tc =         0.000041365065 K
     mu =   0.18 Tc =         0.000000432541 K
     mu =   0.20 Tc =         0.000000000054 K
     a2F          :      0.06s CPU      0.06s WALL (       1 calls)

     Unfolding on the coarse grid
     elphon_wrap  :    113.72s CPU    115.13s WALL (       1 calls)

     INITIALIZATION: 

     init_vloc    :      0.00s CPU      0.00s WALL (       1 calls)
     init_us_1    :      0.09s CPU      0.09s WALL (       2 calls)



     Electron-Phonon interpolation
     ephwann      :      6.01s CPU      6.22s WALL (       1 calls)
     ep-interp    :      5.75s CPU      5.94s WALL (     216 calls)
     PH SELF-ENER :      0.42s CPU      0.43s WALL (     216 calls)

     Ham: step 1  :      0.00s CPU      0.00s WALL (       1 calls)
     Ham: step 2  :      0.00s CPU      0.00s WALL (       1 calls)
     ep: step 1   :      0.01s CPU      0.01s WALL (      81 calls)
     ep: step 2   :      0.02s CPU      0.02s WALL (      81 calls)
     DynW2B       :      0.00s CPU      0.00s WALL (     216 calls)
     HamW2B       :      1.89s CPU      1.96s WALL (   93960 calls)
     ephW2Bp      :      0.17s CPU      0.20s WALL (     216 calls)
     ephW2B       :      0.69s CPU      0.71s WALL (   46656 calls)


     Total program execution
     EPW          :   2m11.92s CPU   2m13.60s WALL

                                                                                          
 Please consider citing:                                                                  
 S. Ponce, E. R. Margine, C. Verdi and F. Giustino, Comput. Phys. Commun. 209, 116 (2016) 
                                                                                          
