                                                                                      
                                       ``:oss/                                        
                           `.+s+.     .+ys--yh+     `./ss+.                           
                          -sh//yy+`   +yy   +yy    -+h+-oyy                           
                          -yh- .oyy/.-sh.   .syo-.:sy-  /yh                           
                 `.-.`    `yh+   -oyyyo.     `/syys:    oys      `.`                  
               `/+ssys+-` `sh+      `                   oys`   .:osyo`                
               -yh- ./syyooyo`                          .sys+/oyo--yh/                
               `yy+    .-:-.                             `-/+/:`  -sh-                
                /yh.                                              oys                 
          ``..---hho---------`   .---------..`      `.-----.`    -hd+---.             
       `./osmNMMMMMMMMMMMMMMMs. +NNMMMMMMMMNNmh+.   yNMMMMMNm-  oNMMMMMNmo++:`        
       +sy--/sdMMMhyyyyyyyNMMh- .oyNMMmyyyyyhNMMm+` -yMMMdyyo:` .oyyNMMNhs+syy`       
       -yy/   /MMM+.`-+/``mMMy-   `mMMh:`````.dMMN:` `MMMy-`-dhhy```mMMy:``+hs        
        -yy+` /MMMo:-mMM+`-oo/.    mMMh:     `dMMN/`  dMMm:`dMMMMy..MMMo-.+yo`        
         .sys`/MMMMNNMMMs-         mMMmyooooymMMNo:   oMMM/sMMMMMM++MMN//oh:          
          `sh+/MMMhyyMMMs- `-`     mMMMMMMMMMNmy+-`   -MMMhMMMsmMMmdMMd/yy+           
    `-/+++oyy-/MMM+.`/hh/.`mNm:`   mMMd+/////:-.`      NMMMMMd/:NMMMMMy:/yyo/:.`      
   +os+//:-..-oMMMo:--:::-/MMMo. .-mMMd+---`           hMMMMN+. oMMMMMo. `-+osyso:`   
   syo     `mNMMMMMNNNNNNNNMMMo.oNNMMMMMNNNN:`         +MMMMs:`  dMMMN/`     ``:syo   
   /yh`     :syyyyyyyyyyyyyyyy+.`+syyyyyyyyo:`         .oyys:`   .oyys:`        +yh   
   -yh-        ````````````````    `````````              ``        ``          oys   
   -+h/------------------------::::::::://////++++++++++++++++++++++///////::::/yd:   
   shdddddddddddddddddddddddddddddhhhhhhhhyyyyyssssssssssssssssyyyyyyyhhhhhhhddddh`   
                                                                                      
  S. Ponce, E. R. Margine, C. Verdi, and F. Giustino,                                 
                                                Comput. Phys. Commun. 209, 116 (2016) 
                                                                                      

     Program EPW v.5.0.0 starts on  3Jul2018 at 13: 9:19 

     This program is part of the open-source Quantum ESPRESSO suite
     for quantum simulation of materials; please cite
         "P. Giannozzi et al., J. Phys.:Condens. Matter 21 395502 (2009);
         "P. Giannozzi et al., J. Phys.:Condens. Matter 29 465901 (2017);
          URL http://www.quantum-espresso.org", 
     in publications or presentations arising from this work. More details at
     http://www.quantum-espresso.org/quote

     Parallel version (MPI), running on     1 processors

     MPI processes distributed on     1 nodes

     Reading data from directory:
     ./pb.save/

     IMPORTANT: XC functional enforced from input :
     Exchange-correlation      = PZ ( 1  1  0  0 0 0)
     Any further DFT definition will be discarded
     Please, verify this is what you really want

 
     G-vector sticks info
     --------------------
     sticks:   dense  smooth     PW     G-vecs:    dense   smooth      PW
     Sum         703     703    211                12387    12387    2109
 

     --                                                                         

     bravais-lattice index     =            2
     lattice parameter (a_0)   =       9.2700  a.u.
     unit-cell volume          =     199.1495 (a.u.)^3
     number of atoms/cell      =            1
     number of atomic types    =            1
     kinetic-energy cut-off    =      60.0000  Ry
     charge density cut-off    =     240.0000  Ry
     convergence threshold     =      0.0E+00
     beta                      =       0.0000
     number of iterations used =            0
     Exchange-correlation      = PZ ( 1  1  0  0 0 0)


     celldm(1)=    9.27000  celldm(2)=    0.00000  celldm(3)=    0.00000
     celldm(4)=    0.00000  celldm(5)=    0.00000  celldm(6)=    0.00000

     crystal axes: (cart. coord. in units of a_0)
               a(1) = ( -0.5000  0.0000  0.5000 )  
               a(2) = (  0.0000  0.5000  0.5000 )  
               a(3) = ( -0.5000  0.5000  0.0000 )  

     reciprocal axes: (cart. coord. in units 2 pi/a_0)
               b(1) = ( -1.0000 -1.0000  1.0000 )  
               b(2) = (  1.0000  1.0000  1.0000 )  
               b(3) = ( -1.0000  1.0000 -1.0000 )  


     Atoms inside the unit cell: 

   Cartesian axes

     site n.  atom      mass           positions (a_0 units)
        1        Pb 207.2175   tau( 1) = (    0.00000    0.00000    0.00000  )
 
     49 Sym.Ops. (with q -> -q+G )


     G cutoff =  522.4094  (  12387 G-vectors)     FFT grid: ( 36, 36, 36)
     number of k points=   27  gaussian broad. (Ry)=  0.0200     ngauss =   1
                       cart. coord. in units 2pi/a_0
        k(    1) = (   0.0000000   0.0000000   0.0000000), wk =   0.0370370
        k(    2) = (  -0.3333333   0.3333333  -0.3333333), wk =   0.0370370
        k(    3) = (  -0.6666667   0.6666667  -0.6666667), wk =   0.0370370
        k(    4) = (   0.3333333   0.3333333   0.3333333), wk =   0.0370370
        k(    5) = (   0.0000000   0.6666667   0.0000000), wk =   0.0370370
        k(    6) = (  -0.3333333   1.0000000  -0.3333333), wk =   0.0370370
        k(    7) = (   0.6666667   0.6666667   0.6666667), wk =   0.0370370
        k(    8) = (   0.3333333   1.0000000   0.3333333), wk =   0.0370370
        k(    9) = (   0.0000000   1.3333333   0.0000000), wk =   0.0370370
        k(   10) = (  -0.3333333  -0.3333333   0.3333333), wk =   0.0370370
        k(   11) = (  -0.6666667   0.0000000   0.0000000), wk =   0.0370370
        k(   12) = (  -1.0000000   0.3333333  -0.3333333), wk =   0.0370370
        k(   13) = (   0.0000000   0.0000000   0.6666667), wk =   0.0370370
        k(   14) = (  -0.3333333   0.3333333   0.3333333), wk =   0.0370370
        k(   15) = (  -0.6666667   0.6666667  -0.0000000), wk =   0.0370370
        k(   16) = (   0.3333333   0.3333333   1.0000000), wk =   0.0370370
        k(   17) = (   0.0000000   0.6666667   0.6666667), wk =   0.0370370
        k(   18) = (  -0.3333333   1.0000000   0.3333333), wk =   0.0370370
        k(   19) = (  -0.6666667  -0.6666667   0.6666667), wk =   0.0370370
        k(   20) = (  -1.0000000  -0.3333333   0.3333333), wk =   0.0370370
        k(   21) = (  -1.3333333   0.0000000   0.0000000), wk =   0.0370370
        k(   22) = (  -0.3333333  -0.3333333   1.0000000), wk =   0.0370370
        k(   23) = (  -0.6666667  -0.0000000   0.6666667), wk =   0.0370370
        k(   24) = (  -1.0000000   0.3333333   0.3333333), wk =   0.0370370
        k(   25) = (   0.0000000   0.0000000   1.3333333), wk =   0.0370370
        k(   26) = (  -0.3333333   0.3333333   1.0000000), wk =   0.0370370
        k(   27) = (  -0.6666667   0.6666667   0.6666667), wk =   0.0370370

     PseudoPot. # 1 for Pb read from file:
     ./pb_s.UPF
     MD5 check sum: 7774f596943a2055f0d8d19eea6f2ae8
     Pseudo is Norm-conserving, Zval = 14.0
     Generated using "atomic" code by A. Dal Corso (Quantum ESPRESSO distribution)
     Using radial grid of 1281 points,  4 beta functions with: 
                l(1) =   2
                l(2) =   2
                l(3) =   1
                l(4) =   1
     EPW          :     0.38s CPU         0.39s WALL

     EPW          :     0.83s CPU         0.84s WALL

     No wavefunction gauge setting applied
     -------------------------------------------------------------------
     Wannierization on  3 x  3 x  3 electronic grid
     -------------------------------------------------------------------
 
     Spin CASE ( non-collinear )
 
     Initializing Wannier90
 
 
     Initial Wannier projections
 
     (   0.00000   0.00000   0.00000) :  l =  -3 mr =   1
     (   0.00000   0.00000   0.00000) :  l =  -3 mr =   1
     (   0.00000   0.00000   0.00000) :  l =  -3 mr =   2
     (   0.00000   0.00000   0.00000) :  l =  -3 mr =   2
     (   0.00000   0.00000   0.00000) :  l =  -3 mr =   3
     (   0.00000   0.00000   0.00000) :  l =  -3 mr =   3
     (   0.00000   0.00000   0.00000) :  l =  -3 mr =   4
     (   0.00000   0.00000   0.00000) :  l =  -3 mr =   4

      - Number of bands is ( 22)
      - Number of total bands is ( 22)
      - Number of excluded bands is (  0)
      - Number of wannier functions is (  8)
      - All guiding functions are given 
 
  Reading data about k-point neighbours 
 
      - All neighbours are found 
 
     AMN
      k points =    27 in    1 pools
            1 of   27 on ionode
            2 of   27 on ionode
            3 of   27 on ionode
            4 of   27 on ionode
            5 of   27 on ionode
            6 of   27 on ionode
            7 of   27 on ionode
            8 of   27 on ionode
            9 of   27 on ionode
           10 of   27 on ionode
           11 of   27 on ionode
           12 of   27 on ionode
           13 of   27 on ionode
           14 of   27 on ionode
           15 of   27 on ionode
           16 of   27 on ionode
           17 of   27 on ionode
           18 of   27 on ionode
           19 of   27 on ionode
           20 of   27 on ionode
           21 of   27 on ionode
           22 of   27 on ionode
           23 of   27 on ionode
           24 of   27 on ionode
           25 of   27 on ionode
           26 of   27 on ionode
           27 of   27 on ionode
 
     AMN calculated
 
     MMN
      k points =    27 in    1 pools
            1 of   27 on ionode
            2 of   27 on ionode
            3 of   27 on ionode
            4 of   27 on ionode
            5 of   27 on ionode
            6 of   27 on ionode
            7 of   27 on ionode
            8 of   27 on ionode
            9 of   27 on ionode
           10 of   27 on ionode
           11 of   27 on ionode
           12 of   27 on ionode
           13 of   27 on ionode
           14 of   27 on ionode
           15 of   27 on ionode
           16 of   27 on ionode
           17 of   27 on ionode
           18 of   27 on ionode
           19 of   27 on ionode
           20 of   27 on ionode
           21 of   27 on ionode
           22 of   27 on ionode
           23 of   27 on ionode
           24 of   27 on ionode
           25 of   27 on ionode
           26 of   27 on ionode
           27 of   27 on ionode
     MMN calculated
 
     Running Wannier90
 
     Wannier Function centers (cartesian, alat) and spreads (ang):
 
     (   0.08272   0.08272   0.08272) :   1.60664
     (   0.08272   0.08272   0.08272) :   1.60664
     (   0.08272  -0.08272  -0.08272) :   1.60664
     (   0.08272  -0.08272  -0.08272) :   1.60664
     (  -0.08272   0.08272  -0.08272) :   1.60664
     (  -0.08272   0.08272  -0.08272) :   1.60664
     (  -0.08272  -0.08272   0.08272) :   1.60664
     (  -0.08272  -0.08272   0.08272) :   1.60664
 
     -------------------------------------------------------------------
     WANNIER      :     31.74s CPU     32.01s WALL (       1 calls)
     -------------------------------------------------------------------

     Dipole matrix elements calculated
 

     Calculating kmap and kgmap
     Progress  kmap: ###########################
     Progress kgmap: ########################################
     kmaps        :     11.92s CPU     12.16s WALL (       1 calls)

     Reading interatomic force constants

     IFC last    0.0004688
     Norm of the difference between old and new effective charges:    0.0000000
     Norm of the difference between old and new force-constants:    0.0011483
     Imposed crystal ASR

     Finished reading ifcs

     Symmetries of bravais lattice:  48
     Symmetries of crystal:          48


     ===================================================================
     irreducible q point #    1
     ===================================================================

     Symmetries of small group of q: 48
          in addition sym. q -> -q+G:
 
     Number of q in the star =    1
     List of q in the star:
          1   0.000000000   0.000000000   0.000000000
     Imposing acoustic sum rule on the dynamical matrix
     Dyn mat calculated from ifcs
 
        q(    1 ) = (   0.0000000   0.0000000   0.0000000 )


     ===================================================================
     irreducible q point #    2
     ===================================================================

     Symmetries of small group of q:  6
 
     Number of q in the star =    8
     List of q in the star:
          1  -0.333333333   0.333333333  -0.333333333
          2   0.333333333   0.333333333  -0.333333333
          3   0.333333333   0.333333333   0.333333333
          4  -0.333333333   0.333333333   0.333333333
          5   0.333333333  -0.333333333   0.333333333
          6  -0.333333333  -0.333333333  -0.333333333
          7   0.333333333  -0.333333333  -0.333333333
          8  -0.333333333  -0.333333333   0.333333333
     Dyn mat calculated from ifcs
 
        q(    2 ) = (  -0.3333333   0.3333333  -0.3333333 )
        q(    3 ) = (   0.3333333   0.3333333  -0.3333333 )
        q(    4 ) = (   0.3333333   0.3333333   0.3333333 )
        q(    5 ) = (  -0.3333333   0.3333333   0.3333333 )
        q(    6 ) = (   0.3333333  -0.3333333   0.3333333 )
        q(    7 ) = (  -0.3333333  -0.3333333  -0.3333333 )
        q(    8 ) = (   0.3333333  -0.3333333  -0.3333333 )
        q(    9 ) = (  -0.3333333  -0.3333333   0.3333333 )


     ===================================================================
     irreducible q point #    3
     ===================================================================

     Symmetries of small group of q:  8
 
     Number of q in the star =    6
     List of q in the star:
          1   0.000000000   0.666666667   0.000000000
          2  -0.666666667   0.000000000   0.000000000
          3   0.000000000  -0.666666667   0.000000000
          4   0.000000000   0.000000000   0.666666667
          5   0.000000000   0.000000000  -0.666666667
          6   0.666666667   0.000000000   0.000000000
     Dyn mat calculated from ifcs
 
        q(   10 ) = (   0.0000000   0.6666667   0.0000000 )
        q(   11 ) = (  -0.6666667   0.0000000   0.0000000 )
        q(   12 ) = (   0.0000000  -0.6666667   0.0000000 )
        q(   13 ) = (   0.0000000   0.0000000   0.6666667 )
        q(   14 ) = (   0.0000000   0.0000000  -0.6666667 )
        q(   15 ) = (   0.6666667   0.0000000   0.0000000 )


     ===================================================================
     irreducible q point #    4
     ===================================================================

     Symmetries of small group of q:  4
 
     Number of q in the star =   12
     List of q in the star:
          1   0.666666667   0.000000000   0.666666667
          2   0.666666667   0.000000000  -0.666666667
          3  -0.666666667   0.000000000  -0.666666667
          4  -0.666666667   0.000000000   0.666666667
          5   0.000000000  -0.666666667   0.666666667
          6  -0.666666667   0.666666667   0.000000000
          7  -0.666666667  -0.666666667   0.000000000
          8   0.666666667   0.666666667   0.000000000
          9   0.666666667  -0.666666667   0.000000000
         10   0.000000000   0.666666667   0.666666667
         11   0.000000000   0.666666667  -0.666666667
         12   0.000000000  -0.666666667  -0.666666667
     Dyn mat calculated from ifcs
 
        q(   16 ) = (   0.6666667   0.0000000   0.6666667 )
        q(   17 ) = (   0.6666667   0.0000000  -0.6666667 )
        q(   18 ) = (  -0.6666667   0.0000000  -0.6666667 )
        q(   19 ) = (  -0.6666667   0.0000000   0.6666667 )
        q(   20 ) = (   0.0000000  -0.6666667   0.6666667 )
        q(   21 ) = (  -0.6666667   0.6666667   0.0000000 )
        q(   22 ) = (  -0.6666667  -0.6666667   0.0000000 )
        q(   23 ) = (   0.6666667   0.6666667   0.0000000 )
        q(   24 ) = (   0.6666667  -0.6666667   0.0000000 )
        q(   25 ) = (   0.0000000   0.6666667   0.6666667 )
        q(   26 ) = (   0.0000000   0.6666667  -0.6666667 )
        q(   27 ) = (   0.0000000  -0.6666667  -0.6666667 )

     Writing epmatq on .epb files


     The .epb files have been correctly written


              band disentanglement is used:  nbndsub =    8

     Writing Hamiltonian, Dynamical matrix and EP vertex in Wann rep to file


     Reading Hamiltonian, Dynamical matrix and EP vertex in Wann rep from file


     Reading interatomic force constants

     IFC last    0.0004688
     Norm of the difference between old and new effective charges:    0.0000000
     Norm of the difference between old and new force-constants:    0.0011483
     Imposed crystal ASR

     Finished reading ifcs


     Finished reading Wann rep data from file

     ===================================================================
     Memory usage:  VmHWM =        99Mb
                   VmPeak =       350Mb
     ===================================================================
     
     Using uniform q-mesh:    6   6   6
     Size of q point mesh for interpolation:        216
     Using uniform k-mesh:    6   6   6
     Size of k point mesh for interpolation:        432
     Max number of k points per pool:              432

     Fermi energy coarse grid =  10.121992 eV

     Skipping the first   10 bands:

     The Fermi level will be determined with   4.00000 electrons

     Fermi energy is calculated from the fine k-mesh: Ef =  11.622357 eV

     Warning: check if difference with Fermi level fine grid makes sense

     ===================================================================

              ibndmin =     1  ebndmin =    -0.040
              ibndmax =     8  ebndmax =     1.463


     Number of ep-matrix elements per pool :        41472 ~=  324.00 Kb (@ 8 bytes/ DP)

     ===================================================================
     Phonon (Imaginary) Self-Energy in the Migdal Approximation
     ===================================================================


     Fermi Surface thickness =  20.000000 eV

     Golden Rule strictly enforced with T =   0.043087 eV
     Gaussian Broadening:   0.200000 eV, ngauss=   1
     DOS =  0.904603 states/spin/eV/Unit Cell at Ef= 11.622357 eV

     ismear =     1 iq =       1 coord.:   0.00000  0.00000  0.00000 wt:   0.00463
     -------------------------------------------------------------------
     lambda___(   1 )=       0.000000   gamma___=       0.000000 meV   omega=     -0.0000 meV
     lambda_tr(   1 )=       0.000000   gamma_tr=       0.000000 meV   omega=     -0.0000 meV
     lambda___(   2 )=       0.000000   gamma___=       0.000000 meV   omega=     -0.0000 meV
     lambda_tr(   2 )=       0.000000   gamma_tr=       0.000000 meV   omega=     -0.0000 meV
     lambda___(   3 )=       0.000000   gamma___=       0.000000 meV   omega=      0.0000 meV
     lambda_tr(   3 )=       0.000000   gamma_tr=       0.000000 meV   omega=      0.0000 meV
     lambda___( tot )=       0.000000
     lambda_tr( tot )=       0.000000
     -------------------------------------------------------------------


     Number of (k,k+q) pairs on the Fermi surface:      216 out of      216


     ===================================================================
     Electron (Imaginary) Self-Energy in the Migdal Approximation
     ===================================================================


     Fermi Surface thickness =  20.000000 eV

     Golden Rule strictly enforced with T =   0.043087 eV
     Gaussian Broadening:   0.200000 eV, ngauss=   1
 

     ismear =     1 iq =       2 coord.:   0.00000  0.00000  0.16667 wt:   0.00463
     -------------------------------------------------------------------
     lambda___(   1 )=       0.016910   gamma___=       0.000153 meV   omega=      1.7871 meV
     lambda_tr(   1 )=       0.017077   gamma_tr=       0.000155 meV   omega=      1.7871 meV
     lambda___(   2 )=       0.016910   gamma___=       0.000153 meV   omega=      1.7871 meV
     lambda_tr(   2 )=       0.017077   gamma_tr=       0.000155 meV   omega=      1.7871 meV
     lambda___(   3 )=       0.021479   gamma___=       0.001106 meV   omega=      4.2564 meV
     lambda_tr(   3 )=       0.021287   gamma_tr=       0.001096 meV   omega=      4.2564 meV
     lambda___( tot )=       0.055298
     lambda_tr( tot )=       0.055440
     -------------------------------------------------------------------


     Number of (k,k+q) pairs on the Fermi surface:      216 out of      216


     ismear =     1 iq =       3 coord.:   0.00000  0.00000  0.33333 wt:   0.00463
     -------------------------------------------------------------------
     lambda___(   1 )=       0.165074   gamma___=       0.005383 meV   omega=      3.3875 meV
     lambda_tr(   1 )=      -7.022129   gamma_tr=      -0.228998 meV   omega=      3.3875 meV
     lambda___(   2 )=       0.165074   gamma___=       0.005383 meV   omega=      3.3875 meV
     lambda_tr(   2 )=      -7.022129   gamma_tr=      -0.228998 meV   omega=      3.3875 meV
     lambda___(   3 )=       0.112805   gamma___=       0.018140 meV   omega=      7.5222 meV
     lambda_tr(   3 )=      -2.173530   gamma_tr=      -0.349512 meV   omega=      7.5222 meV
     lambda___( tot )=       0.442954
     lambda_tr( tot )=     -16.217788
     -------------------------------------------------------------------


     Number of (k,k+q) pairs on the Fermi surface:      216 out of      216


     ismear =     1 iq =       4 coord.:   0.00000  0.00000  0.50000 wt:   0.00463
     -------------------------------------------------------------------
     lambda___(   1 )=       0.000000   gamma___=       0.000000 meV   omega=      4.0697 meV
     lambda_tr(   1 )=       0.000000   gamma_tr=       0.000000 meV   omega=      4.0697 meV
     lambda___(   2 )=       0.000000   gamma___=       0.000000 meV   omega=      4.0697 meV
     lambda_tr(   2 )=       0.000000   gamma_tr=       0.000000 meV   omega=      4.0697 meV
     lambda___(   3 )=       0.000000   gamma___=       0.000000 meV   omega=      8.7711 meV
     lambda_tr(   3 )=       0.000000   gamma_tr=       0.000000 meV   omega=      8.7711 meV
     lambda___( tot )=       0.000000
     lambda_tr( tot )=       0.000000
     -------------------------------------------------------------------


     Number of (k,k+q) pairs on the Fermi surface:      216 out of      216


     ismear =     1 iq =       5 coord.:   0.00000  0.00000  0.66667 wt:   0.00463
     -------------------------------------------------------------------
     lambda___(   1 )=       0.161538   gamma___=       0.005268 meV   omega=      3.3875 meV
     lambda_tr(   1 )=      -6.468803   gamma_tr=      -0.210953 meV   omega=      3.3875 meV
     lambda___(   2 )=       0.161538   gamma___=       0.005268 meV   omega=      3.3875 meV
     lambda_tr(   2 )=      -6.468803   gamma_tr=      -0.210953 meV   omega=      3.3875 meV
     lambda___(   3 )=       0.112839   gamma___=       0.018145 meV   omega=      7.5222 meV
     lambda_tr(   3 )=      -2.060071   gamma_tr=      -0.331267 meV   omega=      7.5222 meV
     lambda___( tot )=       0.435915
     lambda_tr( tot )=     -14.997676
     -------------------------------------------------------------------


     Number of (k,k+q) pairs on the Fermi surface:      216 out of      216


     ismear =     1 iq =       6 coord.:   0.00000  0.00000  0.83333 wt:   0.00463
     -------------------------------------------------------------------
     lambda___(   1 )=       0.023345   gamma___=       0.000212 meV   omega=      1.7871 meV
     lambda_tr(   1 )=       0.023287   gamma_tr=       0.000211 meV   omega=      1.7871 meV
     lambda___(   2 )=       0.023345   gamma___=       0.000212 meV   omega=      1.7871 meV
     lambda_tr(   2 )=       0.023287   gamma_tr=       0.000211 meV   omega=      1.7871 meV
     lambda___(   3 )=       0.022575   gamma___=       0.001162 meV   omega=      4.2564 meV
     lambda_tr(   3 )=       0.022494   gamma_tr=       0.001158 meV   omega=      4.2564 meV
     lambda___( tot )=       0.069265
     lambda_tr( tot )=       0.069069
     -------------------------------------------------------------------


     Number of (k,k+q) pairs on the Fermi surface:      216 out of      216


     ismear =     1 iq =       7 coord.:   0.00000  0.16667  0.00000 wt:   0.00463
     -------------------------------------------------------------------
     lambda___(   1 )=       0.024304   gamma___=       0.000221 meV   omega=      1.7871 meV
     lambda_tr(   1 )=       0.024325   gamma_tr=       0.000221 meV   omega=      1.7871 meV
     lambda___(   2 )=       0.024304   gamma___=       0.000221 meV   omega=      1.7871 meV
     lambda_tr(   2 )=       0.024325   gamma_tr=       0.000221 meV   omega=      1.7871 meV
     lambda___(   3 )=       0.021830   gamma___=       0.001124 meV   omega=      4.2564 meV
     lambda_tr(   3 )=       0.021725   gamma_tr=       0.001119 meV   omega=      4.2564 meV
     lambda___( tot )=       0.070438
     lambda_tr( tot )=       0.070375
     -------------------------------------------------------------------


     Number of (k,k+q) pairs on the Fermi surface:      216 out of      216


     ismear =     1 iq =       8 coord.:   0.00000  0.16667  0.16667 wt:   0.00463
     -------------------------------------------------------------------
     lambda___(   1 )=       0.011396   gamma___=       0.000109 meV   omega=      1.8366 meV
     lambda_tr(   1 )=       0.130084   gamma_tr=       0.001247 meV   omega=      1.8366 meV
     lambda___(   2 )=       0.011396   gamma___=       0.000109 meV   omega=      1.8366 meV
     lambda_tr(   2 )=       0.130084   gamma_tr=       0.001247 meV   omega=      1.8366 meV
     lambda___(   3 )=       0.145708   gamma___=       0.010570 meV   omega=      5.0522 meV
     lambda_tr(   3 )=       0.057745   gamma_tr=       0.004189 meV   omega=      5.0522 meV
     lambda___( tot )=       0.168499
     lambda_tr( tot )=       0.317913
     -------------------------------------------------------------------


     Number of (k,k+q) pairs on the Fermi surface:      216 out of      216


     ismear =     1 iq =       9 coord.:   0.00000  0.16667  0.33333 wt:   0.00463
     -------------------------------------------------------------------
     lambda___(   1 )=       0.019113   gamma___=       0.000577 meV   omega=      3.2583 meV
     lambda_tr(   1 )=       0.088372   gamma_tr=       0.002666 meV   omega=      3.2583 meV
     lambda___(   2 )=       0.029326   gamma___=       0.001192 meV   omega=      3.7812 meV
     lambda_tr(   2 )=       0.145001   gamma_tr=       0.005892 meV   omega=      3.7812 meV
     lambda___(   3 )=       0.006779   gamma___=       0.001010 meV   omega=      7.2397 meV
     lambda_tr(   3 )=      -0.014336   gamma_tr=      -0.002135 meV   omega=      7.2397 meV
     lambda___( tot )=       0.055218
     lambda_tr( tot )=       0.219037
     -------------------------------------------------------------------


     Number of (k,k+q) pairs on the Fermi surface:      216 out of      216


     ismear =     1 iq =      10 coord.:   0.00000  0.16667  0.50000 wt:   0.00463
     -------------------------------------------------------------------
     lambda___(   1 )=       0.225493   gamma___=       0.012042 meV   omega=      4.3349 meV
     lambda_tr(   1 )=       0.170523   gamma_tr=       0.009107 meV   omega=      4.3349 meV
     lambda___(   2 )=       0.060579   gamma___=       0.004904 meV   omega=      5.3373 meV
     lambda_tr(   2 )=      -0.111323   gamma_tr=      -0.009012 meV   omega=      5.3373 meV
     lambda___(   3 )=       0.157789   gamma___=       0.031995 meV   omega=      8.4470 meV
     lambda_tr(   3 )=      -0.215357   gamma_tr=      -0.043669 meV   omega=      8.4470 meV
     lambda___( tot )=       0.443862
     lambda_tr( tot )=      -0.156156
     -------------------------------------------------------------------


     Number of (k,k+q) pairs on the Fermi surface:      216 out of      216


     ismear =     1 iq =      11 coord.:   0.00000  0.16667  0.66667 wt:   0.00463
     -------------------------------------------------------------------
     lambda___(   1 )=       0.048352   gamma___=       0.002450 meV   omega=      4.2226 meV
     lambda_tr(   1 )=       0.206972   gamma_tr=       0.010488 meV   omega=      4.2226 meV
     lambda___(   2 )=       0.034795   gamma___=       0.002594 meV   omega=      5.1214 meV
     lambda_tr(   2 )=      -0.062928   gamma_tr=      -0.004691 meV   omega=      5.1214 meV
     lambda___(   3 )=       0.008436   gamma___=       0.001553 meV   omega=      8.0497 meV
     lambda_tr(   3 )=      -0.012301   gamma_tr=      -0.002265 meV   omega=      8.0497 meV
     lambda___( tot )=       0.091583
     lambda_tr( tot )=       0.131743
     -------------------------------------------------------------------


     Number of (k,k+q) pairs on the Fermi surface:      216 out of      216


     ismear =     1 iq =      12 coord.:   0.00000  0.16667  0.83333 wt:   0.00463
     -------------------------------------------------------------------
     lambda___(   1 )=      -0.743759   gamma___=      -0.020028 meV   omega=      3.0782 meV
     lambda_tr(   1 )=      -1.507253   gamma_tr=      -0.040587 meV   omega=      3.0782 meV
     lambda___(   2 )=       0.185612   gamma___=       0.005618 meV   omega=      3.2635 meV
     lambda_tr(   2 )=      -0.652395   gamma_tr=      -0.019747 meV   omega=      3.2635 meV
     lambda___(   3 )=       0.037164   gamma___=       0.004189 meV   omega=      6.2976 meV
     lambda_tr(   3 )=      -0.008067   gamma_tr=      -0.000909 meV   omega=      6.2976 meV
     lambda___( tot )=      -0.520983
     lambda_tr( tot )=      -2.167716
     -------------------------------------------------------------------


     Number of (k,k+q) pairs on the Fermi surface:      216 out of      216


     ismear =     1 iq =      13 coord.:   0.00000  0.33333  0.00000 wt:   0.00463
     -------------------------------------------------------------------
     lambda___(   1 )=       0.157337   gamma___=       0.005131 meV   omega=      3.3875 meV
     lambda_tr(   1 )=      -6.265082   gamma_tr=      -0.204310 meV   omega=      3.3875 meV
     lambda___(   2 )=       0.157337   gamma___=       0.005131 meV   omega=      3.3875 meV
     lambda_tr(   2 )=      -6.265082   gamma_tr=      -0.204310 meV   omega=      3.3875 meV
     lambda___(   3 )=       0.117178   gamma___=       0.018843 meV   omega=      7.5222 meV
     lambda_tr(   3 )=      -2.073383   gamma_tr=      -0.333408 meV   omega=      7.5222 meV
     lambda___( tot )=       0.431851
     lambda_tr( tot )=     -14.603548
     -------------------------------------------------------------------


     Number of (k,k+q) pairs on the Fermi surface:      216 out of      216


     ismear =     1 iq =      14 coord.:   0.00000  0.33333  0.16667 wt:   0.00463
     -------------------------------------------------------------------
     lambda___(   1 )=       0.012409   gamma___=       0.000374 meV   omega=      3.2583 meV
     lambda_tr(   1 )=       0.051740   gamma_tr=       0.001561 meV   omega=      3.2583 meV
     lambda___(   2 )=       0.027204   gamma___=       0.001105 meV   omega=      3.7812 meV
     lambda_tr(   2 )=       0.146014   gamma_tr=       0.005933 meV   omega=      3.7812 meV
     lambda___(   3 )=       0.006881   gamma___=       0.001025 meV   omega=      7.2397 meV
     lambda_tr(   3 )=      -0.013453   gamma_tr=      -0.002004 meV   omega=      7.2397 meV
     lambda___( tot )=       0.046494
     lambda_tr( tot )=       0.184300
     -------------------------------------------------------------------


     Number of (k,k+q) pairs on the Fermi surface:      216 out of      216


     ismear =     1 iq =      15 coord.:   0.00000  0.33333  0.33333 wt:   0.00463
     -------------------------------------------------------------------
     lambda___(   1 )=       0.473123   gamma___=       0.021220 meV   omega=      3.9727 meV
     lambda_tr(   1 )=       0.477273   gamma_tr=       0.021406 meV   omega=      3.9727 meV
     lambda___(   2 )=       0.473123   gamma___=       0.021220 meV   omega=      3.9727 meV
     lambda_tr(   2 )=       0.477273   gamma_tr=       0.021406 meV   omega=      3.9727 meV
     lambda___(   3 )=       0.018253   gamma___=       0.003676 meV   omega=      8.4186 meV
     lambda_tr(   3 )=       0.015068   gamma_tr=       0.003035 meV   omega=      8.4186 meV
     lambda___( tot )=       0.964499
     lambda_tr( tot )=       0.969615
     -------------------------------------------------------------------


     Number of (k,k+q) pairs on the Fermi surface:      216 out of      216


     ismear =     1 iq =      16 coord.:   0.00000  0.33333  0.50000 wt:   0.00463
     -------------------------------------------------------------------
     lambda___(   1 )=       0.033202   gamma___=       0.002163 meV   omega=      4.7874 meV
     lambda_tr(   1 )=       0.139406   gamma_tr=       0.009080 meV   omega=      4.7874 meV
     lambda___(   2 )=       0.012969   gamma___=       0.001186 meV   omega=      5.6726 meV
     lambda_tr(   2 )=      -0.005490   gamma_tr=      -0.000502 meV   omega=      5.6726 meV
     lambda___(   3 )=       0.009826   gamma___=       0.002197 meV   omega=      8.8695 meV
     lambda_tr(   3 )=      -0.002119   gamma_tr=      -0.000474 meV   omega=      8.8695 meV
     lambda___( tot )=       0.055997
     lambda_tr( tot )=       0.131797
     -------------------------------------------------------------------


     Number of (k,k+q) pairs on the Fermi surface:      216 out of      216


     ismear =     1 iq =      17 coord.:   0.00000  0.33333  0.66667 wt:   0.00463
     -------------------------------------------------------------------
     lambda___(   1 )=       0.098749   gamma___=       0.006766 meV   omega=      4.9101 meV
     lambda_tr(   1 )=       2.986240   gamma_tr=       0.204601 meV   omega=      4.9101 meV
     lambda___(   2 )=       0.106662   gamma___=       0.016731 meV   omega=      7.4294 meV
     lambda_tr(   2 )=       0.304001   gamma_tr=       0.047686 meV   omega=      7.4294 meV
     lambda___(   3 )=       0.111381   gamma___=       0.018572 meV   omega=      7.6599 meV
     lambda_tr(   3 )=       1.581086   gamma_tr=       0.263639 meV   omega=      7.6599 meV
     lambda___( tot )=       0.316791
     lambda_tr( tot )=       4.871326
     -------------------------------------------------------------------


     Number of (k,k+q) pairs on the Fermi surface:      216 out of      216


     ismear =     1 iq =      18 coord.:   0.00000  0.33333  0.83333 wt:   0.00463
     -------------------------------------------------------------------
     lambda___(   1 )=       0.050588   gamma___=       0.002563 meV   omega=      4.2226 meV
     lambda_tr(   1 )=       0.214861   gamma_tr=       0.010887 meV   omega=      4.2226 meV
     lambda___(   2 )=       0.034680   gamma___=       0.002585 meV   omega=      5.1214 meV
     lambda_tr(   2 )=      -0.055590   gamma_tr=      -0.004144 meV   omega=      5.1214 meV
     lambda___(   3 )=       0.008210   gamma___=       0.001512 meV   omega=      8.0497 meV
     lambda_tr(   3 )=      -0.013079   gamma_tr=      -0.002408 meV   omega=      8.0497 meV
     lambda___( tot )=       0.093478
     lambda_tr( tot )=       0.146192
     -------------------------------------------------------------------


     Number of (k,k+q) pairs on the Fermi surface:      216 out of      216


     ismear =     1 iq =      19 coord.:   0.00000  0.50000  0.00000 wt:   0.00463
     -------------------------------------------------------------------
     lambda___(   1 )=       0.000000   gamma___=       0.000000 meV   omega=      4.0697 meV
     lambda_tr(   1 )=       0.000000   gamma_tr=       0.000000 meV   omega=      4.0697 meV
     lambda___(   2 )=       0.000000   gamma___=       0.000000 meV   omega=      4.0697 meV
     lambda_tr(   2 )=       0.000000   gamma_tr=       0.000000 meV   omega=      4.0697 meV
     lambda___(   3 )=       0.000000   gamma___=       0.000000 meV   omega=      8.7711 meV
     lambda_tr(   3 )=       0.000000   gamma_tr=       0.000000 meV   omega=      8.7711 meV
     lambda___( tot )=       0.000000
     lambda_tr( tot )=       0.000000
     -------------------------------------------------------------------


     Number of (k,k+q) pairs on the Fermi surface:      216 out of      216


     ismear =     1 iq =      20 coord.:   0.00000  0.50000  0.16667 wt:   0.00463
     -------------------------------------------------------------------
     lambda___(   1 )=       0.039153   gamma___=       0.002091 meV   omega=      4.3349 meV
     lambda_tr(   1 )=      -0.018396   gamma_tr=      -0.000982 meV   omega=      4.3349 meV
     lambda___(   2 )=       0.076979   gamma___=       0.006232 meV   omega=      5.3373 meV
     lambda_tr(   2 )=      -0.044212   gamma_tr=      -0.003579 meV   omega=      5.3373 meV
     lambda___(   3 )=       0.068873   gamma___=       0.013966 meV   omega=      8.4470 meV
     lambda_tr(   3 )=      -0.286323   gamma_tr=      -0.058059 meV   omega=      8.4470 meV
     lambda___( tot )=       0.185005
     lambda_tr( tot )=      -0.348932
     -------------------------------------------------------------------


     Number of (k,k+q) pairs on the Fermi surface:      216 out of      216


     ismear =     1 iq =      21 coord.:   0.00000  0.50000  0.33333 wt:   0.00463
     -------------------------------------------------------------------
     lambda___(   1 )=       0.030142   gamma___=       0.001963 meV   omega=      4.7874 meV
     lambda_tr(   1 )=       0.111675   gamma_tr=       0.007274 meV   omega=      4.7874 meV
     lambda___(   2 )=       0.013201   gamma___=       0.001207 meV   omega=      5.6726 meV
     lambda_tr(   2 )=      -0.005042   gamma_tr=      -0.000461 meV   omega=      5.6726 meV
     lambda___(   3 )=       0.008969   gamma___=       0.002005 meV   omega=      8.8695 meV
     lambda_tr(   3 )=      -0.002188   gamma_tr=      -0.000489 meV   omega=      8.8695 meV
     lambda___( tot )=       0.052312
     lambda_tr( tot )=       0.104445
     -------------------------------------------------------------------


     Number of (k,k+q) pairs on the Fermi surface:      216 out of      216


     ismear =     1 iq =      22 coord.:   0.00000  0.50000  0.50000 wt:   0.00463
     -------------------------------------------------------------------
     lambda___(   1 )=       0.984920   gamma___=       0.069466 meV   omega=      4.9818 meV
     lambda_tr(   1 )=       6.374150   gamma_tr=       0.449569 meV   omega=      4.9818 meV
     lambda___(   2 )=       0.984920   gamma___=       0.069466 meV   omega=      4.9818 meV
     lambda_tr(   2 )=       6.374150   gamma_tr=       0.449569 meV   omega=      4.9818 meV
     lambda___(   3 )=       0.463548   gamma___=       0.119478 meV   omega=      9.5234 meV
     lambda_tr(   3 )=       2.687572   gamma_tr=       0.692713 meV   omega=      9.5234 meV
     lambda___( tot )=       2.433388
     lambda_tr( tot )=      15.435872
     -------------------------------------------------------------------


     Number of (k,k+q) pairs on the Fermi surface:      216 out of      216


     ismear =     1 iq =      23 coord.:   0.00000  0.50000  0.66667 wt:   0.00463
     -------------------------------------------------------------------
     lambda___(   1 )=       0.031592   gamma___=       0.002058 meV   omega=      4.7874 meV
     lambda_tr(   1 )=       0.121783   gamma_tr=       0.007932 meV   omega=      4.7874 meV
     lambda___(   2 )=       0.014528   gamma___=       0.001329 meV   omega=      5.6726 meV
     lambda_tr(   2 )=      -0.005802   gamma_tr=      -0.000531 meV   omega=      5.6726 meV
     lambda___(   3 )=       0.009201   gamma___=       0.002057 meV   omega=      8.8695 meV
     lambda_tr(   3 )=      -0.001521   gamma_tr=      -0.000340 meV   omega=      8.8695 meV
     lambda___( tot )=       0.055321
     lambda_tr( tot )=       0.114460
     -------------------------------------------------------------------


     Number of (k,k+q) pairs on the Fermi surface:      216 out of      216


     ismear =     1 iq =      24 coord.:   0.00000  0.50000  0.83333 wt:   0.00463
     -------------------------------------------------------------------
     lambda___(   1 )=       0.128893   gamma___=       0.006883 meV   omega=      4.3349 meV
     lambda_tr(   1 )=       0.160115   gamma_tr=       0.008551 meV   omega=      4.3349 meV
     lambda___(   2 )=       0.093695   gamma___=       0.007585 meV   omega=      5.3373 meV
     lambda_tr(   2 )=      -0.043730   gamma_tr=      -0.003540 meV   omega=      5.3373 meV
     lambda___(   3 )=       0.121681   gamma___=       0.024674 meV   omega=      8.4470 meV
     lambda_tr(   3 )=      -0.241528   gamma_tr=      -0.048975 meV   omega=      8.4470 meV
     lambda___( tot )=       0.344269
     lambda_tr( tot )=      -0.125143
     -------------------------------------------------------------------


     Number of (k,k+q) pairs on the Fermi surface:      216 out of      216


     ismear =     1 iq =      25 coord.:   0.00000  0.66667  0.00000 wt:   0.00463
     -------------------------------------------------------------------
     lambda___(   1 )=       0.157338   gamma___=       0.005131 meV   omega=      3.3875 meV
     lambda_tr(   1 )=      -6.265161   gamma_tr=      -0.204312 meV   omega=      3.3875 meV
     lambda___(   2 )=       0.157338   gamma___=       0.005131 meV   omega=      3.3875 meV
     lambda_tr(   2 )=      -6.265161   gamma_tr=      -0.204312 meV   omega=      3.3875 meV
     lambda___(   3 )=       0.117203   gamma___=       0.018847 meV   omega=      7.5222 meV
     lambda_tr(   3 )=      -2.073392   gamma_tr=      -0.333409 meV   omega=      7.5222 meV
     lambda___( tot )=       0.431879
     lambda_tr( tot )=     -14.603714
     -------------------------------------------------------------------


     Number of (k,k+q) pairs on the Fermi surface:      216 out of      216


     ismear =     1 iq =      26 coord.:   0.00000  0.66667  0.16667 wt:   0.00463
     -------------------------------------------------------------------
     lambda___(   1 )=       0.043489   gamma___=       0.002204 meV   omega=      4.2226 meV
     lambda_tr(   1 )=       0.191047   gamma_tr=       0.009681 meV   omega=      4.2226 meV
     lambda___(   2 )=       0.030276   gamma___=       0.002257 meV   omega=      5.1214 meV
     lambda_tr(   2 )=      -0.058992   gamma_tr=      -0.004397 meV   omega=      5.1214 meV
     lambda___(   3 )=       0.007829   gamma___=       0.001442 meV   omega=      8.0497 meV
     lambda_tr(   3 )=      -0.014165   gamma_tr=      -0.002608 meV   omega=      8.0497 meV
     lambda___( tot )=       0.081595
     lambda_tr( tot )=       0.117890
     -------------------------------------------------------------------


     Number of (k,k+q) pairs on the Fermi surface:      216 out of      216


     ismear =     1 iq =      27 coord.:   0.00000  0.66667  0.33333 wt:   0.00463
     -------------------------------------------------------------------
     lambda___(   1 )=       0.069575   gamma___=       0.004767 meV   omega=      4.9101 meV
     lambda_tr(   1 )=       2.071265   gamma_tr=       0.141912 meV   omega=      4.9101 meV
     lambda___(   2 )=       0.088056   gamma___=       0.013813 meV   omega=      7.4294 meV
     lambda_tr(   2 )=       0.237373   gamma_tr=       0.037235 meV   omega=      7.4294 meV
     lambda___(   3 )=       0.093241   gamma___=       0.015548 meV   omega=      7.6599 meV
     lambda_tr(   3 )=       1.356776   gamma_tr=       0.226236 meV   omega=      7.6599 meV
     lambda___( tot )=       0.250872
     lambda_tr( tot )=       3.665414
     -------------------------------------------------------------------


     Number of (k,k+q) pairs on the Fermi surface:      216 out of      216


     ismear =     1 iq =      28 coord.:   0.00000  0.66667  0.50000 wt:   0.00463
     -------------------------------------------------------------------
     lambda___(   1 )=       0.029523   gamma___=       0.001923 meV   omega=      4.7874 meV
     lambda_tr(   1 )=       0.099648   gamma_tr=       0.006491 meV   omega=      4.7874 meV
     lambda___(   2 )=       0.013907   gamma___=       0.001272 meV   omega=      5.6726 meV
     lambda_tr(   2 )=      -0.006486   gamma_tr=      -0.000593 meV   omega=      5.6726 meV
     lambda___(   3 )=       0.008559   gamma___=       0.001913 meV   omega=      8.8695 meV
     lambda_tr(   3 )=      -0.002285   gamma_tr=      -0.000511 meV   omega=      8.8695 meV
     lambda___( tot )=       0.051988
     lambda_tr( tot )=       0.090877
     -------------------------------------------------------------------


     Number of (k,k+q) pairs on the Fermi surface:      216 out of      216


     ismear =     1 iq =      29 coord.:   0.00000  0.66667  0.66667 wt:   0.00463
     -------------------------------------------------------------------
     lambda___(   1 )=       0.443865   gamma___=       0.019908 meV   omega=      3.9727 meV
     lambda_tr(   1 )=       0.448510   gamma_tr=       0.020116 meV   omega=      3.9727 meV
     lambda___(   2 )=       0.443865   gamma___=       0.019908 meV   omega=      3.9727 meV
     lambda_tr(   2 )=       0.448510   gamma_tr=       0.020116 meV   omega=      3.9727 meV
     lambda___(   3 )=       0.017118   gamma___=       0.003448 meV   omega=      8.4186 meV
     lambda_tr(   3 )=       0.014265   gamma_tr=       0.002873 meV   omega=      8.4186 meV
     lambda___( tot )=       0.904849
     lambda_tr( tot )=       0.911285
     -------------------------------------------------------------------


     Number of (k,k+q) pairs on the Fermi surface:      216 out of      216


     ismear =     1 iq =      30 coord.:   0.00000  0.66667  0.83333 wt:   0.00463
     -------------------------------------------------------------------
     lambda___(   1 )=       0.008750   gamma___=       0.000264 meV   omega=      3.2583 meV
     lambda_tr(   1 )=       0.023761   gamma_tr=       0.000717 meV   omega=      3.2583 meV
     lambda___(   2 )=       0.027170   gamma___=       0.001104 meV   omega=      3.7812 meV
     lambda_tr(   2 )=       0.146642   gamma_tr=       0.005958 meV   omega=      3.7812 meV
     lambda___(   3 )=       0.006416   gamma___=       0.000956 meV   omega=      7.2397 meV
     lambda_tr(   3 )=      -0.012220   gamma_tr=      -0.001820 meV   omega=      7.2397 meV
     lambda___( tot )=       0.042335
     lambda_tr( tot )=       0.158183
     -------------------------------------------------------------------


     Number of (k,k+q) pairs on the Fermi surface:      216 out of      216


     ismear =     1 iq =      31 coord.:   0.00000  0.83333  0.00000 wt:   0.00463
     -------------------------------------------------------------------
     lambda___(   1 )=       0.014076   gamma___=       0.000128 meV   omega=      1.7871 meV
     lambda_tr(   1 )=       0.014196   gamma_tr=       0.000129 meV   omega=      1.7871 meV
     lambda___(   2 )=       0.014076   gamma___=       0.000128 meV   omega=      1.7871 meV
     lambda_tr(   2 )=       0.014196   gamma_tr=       0.000129 meV   omega=      1.7871 meV
     lambda___(   3 )=       0.021436   gamma___=       0.001104 meV   omega=      4.2564 meV
     lambda_tr(   3 )=       0.021306   gamma_tr=       0.001097 meV   omega=      4.2564 meV
     lambda___( tot )=       0.049588
     lambda_tr( tot )=       0.049698
     -------------------------------------------------------------------


     Number of (k,k+q) pairs on the Fermi surface:      216 out of      216


     ismear =     1 iq =      32 coord.:   0.00000  0.83333  0.16667 wt:   0.00463
     -------------------------------------------------------------------
     lambda___(   1 )=      -0.625537   gamma___=      -0.016844 meV   omega=      3.0782 meV
     lambda_tr(   1 )=      -1.427246   gamma_tr=      -0.038432 meV   omega=      3.0782 meV
     lambda___(   2 )=       0.108304   gamma___=       0.003278 meV   omega=      3.2635 meV
     lambda_tr(   2 )=      -0.732935   gamma_tr=      -0.022184 meV   omega=      3.2635 meV
     lambda___(   3 )=       0.063911   gamma___=       0.007203 meV   omega=      6.2976 meV
     lambda_tr(   3 )=       0.021561   gamma_tr=       0.002430 meV   omega=      6.2976 meV
     lambda___( tot )=      -0.453322
     lambda_tr( tot )=      -2.138619
     -------------------------------------------------------------------


     Number of (k,k+q) pairs on the Fermi surface:      216 out of      216


     ismear =     1 iq =      33 coord.:   0.00000  0.83333  0.33333 wt:   0.00463
     -------------------------------------------------------------------
     lambda___(   1 )=       0.040832   gamma___=       0.002069 meV   omega=      4.2226 meV
     lambda_tr(   1 )=       0.193648   gamma_tr=       0.009813 meV   omega=      4.2226 meV
     lambda___(   2 )=       0.032595   gamma___=       0.002430 meV   omega=      5.1214 meV
     lambda_tr(   2 )=      -0.057543   gamma_tr=      -0.004289 meV   omega=      5.1214 meV
     lambda___(   3 )=       0.008527   gamma___=       0.001570 meV   omega=      8.0497 meV
     lambda_tr(   3 )=      -0.013158   gamma_tr=      -0.002423 meV   omega=      8.0497 meV
     lambda___( tot )=       0.081955
     lambda_tr( tot )=       0.122947
     -------------------------------------------------------------------


     Number of (k,k+q) pairs on the Fermi surface:      216 out of      216


     ismear =     1 iq =      34 coord.:   0.00000  0.83333  0.50000 wt:   0.00463
     -------------------------------------------------------------------
     lambda___(   1 )=       0.140775   gamma___=       0.007518 meV   omega=      4.3349 meV
     lambda_tr(   1 )=       0.134848   gamma_tr=       0.007201 meV   omega=      4.3349 meV
     lambda___(   2 )=       0.037769   gamma___=       0.003058 meV   omega=      5.3373 meV
     lambda_tr(   2 )=      -0.079303   gamma_tr=      -0.006420 meV   omega=      5.3373 meV
     lambda___(   3 )=       0.043327   gamma___=       0.008785 meV   omega=      8.4470 meV
     lambda_tr(   3 )=      -0.299946   gamma_tr=      -0.060821 meV   omega=      8.4470 meV
     lambda___( tot )=       0.221870
     lambda_tr( tot )=      -0.244401
     -------------------------------------------------------------------


     Number of (k,k+q) pairs on the Fermi surface:      216 out of      216


     ismear =     1 iq =      35 coord.:   0.00000  0.83333  0.66667 wt:   0.00463
     -------------------------------------------------------------------
     lambda___(   1 )=       0.002546   gamma___=       0.000077 meV   omega=      3.2583 meV
     lambda_tr(   1 )=      -0.007774   gamma_tr=      -0.000235 meV   omega=      3.2583 meV
     lambda___(   2 )=       0.026912   gamma___=       0.001094 meV   omega=      3.7812 meV
     lambda_tr(   2 )=       0.143356   gamma_tr=       0.005825 meV   omega=      3.7812 meV
     lambda___(   3 )=       0.006618   gamma___=       0.000986 meV   omega=      7.2397 meV
     lambda_tr(   3 )=      -0.011640   gamma_tr=      -0.001734 meV   omega=      7.2397 meV
     lambda___( tot )=       0.036076
     lambda_tr( tot )=       0.123942
     -------------------------------------------------------------------


     Number of (k,k+q) pairs on the Fermi surface:      216 out of      216


     ismear =     1 iq =      36 coord.:   0.00000  0.83333  0.83333 wt:   0.00463
     -------------------------------------------------------------------
     lambda___(   1 )=       0.070279   gamma___=       0.000674 meV   omega=      1.8366 meV
     lambda_tr(   1 )=       0.160270   gamma_tr=       0.001536 meV   omega=      1.8366 meV
     lambda___(   2 )=       0.070279   gamma___=       0.000674 meV   omega=      1.8366 meV
     lambda_tr(   2 )=       0.160270   gamma_tr=       0.001536 meV   omega=      1.8366 meV
     lambda___(   3 )=       0.140718   gamma___=       0.010208 meV   omega=      5.0522 meV
     lambda_tr(   3 )=       0.060525   gamma_tr=       0.004390 meV   omega=      5.0522 meV
     lambda___( tot )=       0.281275
     lambda_tr( tot )=       0.381064
     -------------------------------------------------------------------


     Number of (k,k+q) pairs on the Fermi surface:      216 out of      216


     ismear =     1 iq =      37 coord.:   0.16667  0.00000  0.00000 wt:   0.00463
     -------------------------------------------------------------------
     lambda___(   1 )=       0.020027   gamma___=       0.000182 meV   omega=      1.7871 meV
     lambda_tr(   1 )=       0.020058   gamma_tr=       0.000182 meV   omega=      1.7871 meV
     lambda___(   2 )=       0.020027   gamma___=       0.000182 meV   omega=      1.7871 meV
     lambda_tr(   2 )=       0.020058   gamma_tr=       0.000182 meV   omega=      1.7871 meV
     lambda___(   3 )=       0.021511   gamma___=       0.001108 meV   omega=      4.2564 meV
     lambda_tr(   3 )=       0.021377   gamma_tr=       0.001101 meV   omega=      4.2564 meV
     lambda___( tot )=       0.061565
     lambda_tr( tot )=       0.061494
     -------------------------------------------------------------------


     Number of (k,k+q) pairs on the Fermi surface:      216 out of      216


     ismear =     1 iq =      38 coord.:   0.16667  0.00000  0.16667 wt:   0.00463
     -------------------------------------------------------------------
     lambda___(   1 )=      -0.043083   gamma___=      -0.000413 meV   omega=      1.8366 meV
     lambda_tr(   1 )=       0.096797   gamma_tr=       0.000928 meV   omega=      1.8366 meV
     lambda___(   2 )=      -0.043083   gamma___=      -0.000413 meV   omega=      1.8366 meV
     lambda_tr(   2 )=       0.096797   gamma_tr=       0.000928 meV   omega=      1.8366 meV
     lambda___(   3 )=       0.140276   gamma___=       0.010176 meV   omega=      5.0522 meV
     lambda_tr(   3 )=       0.055855   gamma_tr=       0.004052 meV   omega=      5.0522 meV
     lambda___( tot )=       0.054110
     lambda_tr( tot )=       0.249450
     -------------------------------------------------------------------


     Number of (k,k+q) pairs on the Fermi surface:      216 out of      216


     ismear =     1 iq =      39 coord.:   0.16667  0.00000  0.33333 wt:   0.00463
     -------------------------------------------------------------------
     lambda___(   1 )=       0.016283   gamma___=       0.000491 meV   omega=      3.2583 meV
     lambda_tr(   1 )=       0.066644   gamma_tr=       0.002011 meV   omega=      3.2583 meV
     lambda___(   2 )=       0.026819   gamma___=       0.001090 meV   omega=      3.7812 meV
     lambda_tr(   2 )=       0.145673   gamma_tr=       0.005919 meV   omega=      3.7812 meV
     lambda___(   3 )=       0.006688   gamma___=       0.000996 meV   omega=      7.2397 meV
     lambda_tr(   3 )=      -0.013737   gamma_tr=      -0.002046 meV   omega=      7.2397 meV
     lambda___( tot )=       0.049790
     lambda_tr( tot )=       0.198580
     -------------------------------------------------------------------


     Number of (k,k+q) pairs on the Fermi surface:      216 out of      216


     ismear =     1 iq =      40 coord.:   0.16667  0.00000  0.50000 wt:   0.00463
     -------------------------------------------------------------------
     lambda___(   1 )=      -0.149525   gamma___=      -0.007985 meV   omega=      4.3349 meV
     lambda_tr(   1 )=      -0.025219   gamma_tr=      -0.001347 meV   omega=      4.3349 meV
     lambda___(   2 )=       0.057105   gamma___=       0.004623 meV   omega=      5.3373 meV
     lambda_tr(   2 )=      -0.068681   gamma_tr=      -0.005560 meV   omega=      5.3373 meV
     lambda___(   3 )=       0.054778   gamma___=       0.011107 meV   omega=      8.4470 meV
     lambda_tr(   3 )=      -0.300212   gamma_tr=      -0.060875 meV   omega=      8.4470 meV
     lambda___( tot )=      -0.037642
     lambda_tr( tot )=      -0.394111
     -------------------------------------------------------------------


     Number of (k,k+q) pairs on the Fermi surface:      216 out of      216


     ismear =     1 iq =      41 coord.:   0.16667  0.00000  0.66667 wt:   0.00463
     -------------------------------------------------------------------
     lambda___(   1 )=       0.045621   gamma___=       0.002312 meV   omega=      4.2226 meV
     lambda_tr(   1 )=       0.195957   gamma_tr=       0.009930 meV   omega=      4.2226 meV
     lambda___(   2 )=       0.032572   gamma___=       0.002428 meV   omega=      5.1214 meV
     lambda_tr(   2 )=      -0.059898   gamma_tr=      -0.004465 meV   omega=      5.1214 meV
     lambda___(   3 )=       0.008738   gamma___=       0.001609 meV   omega=      8.0497 meV
     lambda_tr(   3 )=      -0.013613   gamma_tr=      -0.002507 meV   omega=      8.0497 meV
     lambda___( tot )=       0.086931
     lambda_tr( tot )=       0.122446
     -------------------------------------------------------------------


     Number of (k,k+q) pairs on the Fermi surface:      216 out of      216


     ismear =     1 iq =      42 coord.:   0.16667  0.00000  0.83333 wt:   0.00463
     -------------------------------------------------------------------
     lambda___(   1 )=      -1.266197   gamma___=      -0.034096 meV   omega=      3.0782 meV
     lambda_tr(   1 )=      -2.016876   gamma_tr=      -0.054310 meV   omega=      3.0782 meV
     lambda___(   2 )=       0.294942   gamma___=       0.008927 meV   omega=      3.2635 meV
     lambda_tr(   2 )=      -0.564455   gamma_tr=      -0.017085 meV   omega=      3.2635 meV
     lambda___(   3 )=       0.031493   gamma___=       0.003550 meV   omega=      6.2976 meV
     lambda_tr(   3 )=      -0.010885   gamma_tr=      -0.001227 meV   omega=      6.2976 meV
     lambda___( tot )=      -0.939763
     lambda_tr( tot )=      -2.592216
     -------------------------------------------------------------------


     Number of (k,k+q) pairs on the Fermi surface:      216 out of      216


     ismear =     1 iq =      43 coord.:   0.16667  0.16667  0.00000 wt:   0.00463
     -------------------------------------------------------------------
     lambda___(   1 )=       0.069506   gamma___=       0.000666 meV   omega=      1.8366 meV
     lambda_tr(   1 )=       0.156770   gamma_tr=       0.001503 meV   omega=      1.8366 meV
     lambda___(   2 )=       0.069506   gamma___=       0.000666 meV   omega=      1.8366 meV
     lambda_tr(   2 )=       0.156770   gamma_tr=       0.001503 meV   omega=      1.8366 meV
     lambda___(   3 )=       0.140933   gamma___=       0.010223 meV   omega=      5.0522 meV
     lambda_tr(   3 )=       0.058537   gamma_tr=       0.004246 meV   omega=      5.0522 meV
     lambda___( tot )=       0.279944
     lambda_tr( tot )=       0.372077
     -------------------------------------------------------------------


     Number of (k,k+q) pairs on the Fermi surface:      216 out of      216


     ismear =     1 iq =      44 coord.:   0.16667  0.16667  0.16667 wt:   0.00463
     -------------------------------------------------------------------
     lambda___(   1 )=       0.016791   gamma___=       0.000152 meV   omega=      1.7871 meV
     lambda_tr(   1 )=       0.016948   gamma_tr=       0.000154 meV   omega=      1.7871 meV
     lambda___(   2 )=       0.016791   gamma___=       0.000152 meV   omega=      1.7871 meV
     lambda_tr(   2 )=       0.016948   gamma_tr=       0.000154 meV   omega=      1.7871 meV
     lambda___(   3 )=       0.021471   gamma___=       0.001105 meV   omega=      4.2564 meV
     lambda_tr(   3 )=       0.021321   gamma_tr=       0.001098 meV   omega=      4.2564 meV
     lambda___( tot )=       0.055053
     lambda_tr( tot )=       0.055217
     -------------------------------------------------------------------


     Number of (k,k+q) pairs on the Fermi surface:      216 out of      216


     ismear =     1 iq =      45 coord.:   0.16667  0.16667  0.33333 wt:   0.00463
     -------------------------------------------------------------------
     lambda___(   1 )=      -0.186144   gamma___=      -0.005012 meV   omega=      3.0782 meV
     lambda_tr(   1 )=      -1.049366   gamma_tr=      -0.028257 meV   omega=      3.0782 meV
     lambda___(   2 )=       0.647367   gamma___=       0.019594 meV   omega=      3.2635 meV
     lambda_tr(   2 )=      -0.314169   gamma_tr=      -0.009509 meV   omega=      3.2635 meV
     lambda___(   3 )=       0.135567   gamma___=       0.015280 meV   omega=      6.2976 meV
     lambda_tr(   3 )=       0.094587   gamma_tr=       0.010661 meV   omega=      6.2976 meV
     lambda___( tot )=       0.596789
     lambda_tr( tot )=      -1.268948
     -------------------------------------------------------------------


     Number of (k,k+q) pairs on the Fermi surface:      216 out of      216


     ismear =     1 iq =      46 coord.:   0.16667  0.16667  0.50000 wt:   0.00463
     -------------------------------------------------------------------
     lambda___(   1 )=       0.040189   gamma___=       0.002036 meV   omega=      4.2226 meV
     lambda_tr(   1 )=       0.203671   gamma_tr=       0.010320 meV   omega=      4.2226 meV
     lambda___(   2 )=       0.032721   gamma___=       0.002439 meV   omega=      5.1214 meV
     lambda_tr(   2 )=      -0.063564   gamma_tr=      -0.004738 meV   omega=      5.1214 meV
     lambda___(   3 )=       0.008653   gamma___=       0.001593 meV   omega=      8.0497 meV
     lambda_tr(   3 )=      -0.012329   gamma_tr=      -0.002270 meV   omega=      8.0497 meV
     lambda___( tot )=       0.081563
     lambda_tr( tot )=       0.127778
     -------------------------------------------------------------------


     Number of (k,k+q) pairs on the Fermi surface:      216 out of      216


     ismear =     1 iq =      47 coord.:   0.16667  0.16667  0.66667 wt:   0.00463
     -------------------------------------------------------------------
     lambda___(   1 )=       0.266909   gamma___=       0.014254 meV   omega=      4.3349 meV
     lambda_tr(   1 )=       0.116306   gamma_tr=       0.006211 meV   omega=      4.3349 meV
     lambda___(   2 )=       0.042666   gamma___=       0.003454 meV   omega=      5.3373 meV
     lambda_tr(   2 )=      -0.108283   gamma_tr=      -0.008766 meV   omega=      5.3373 meV
     lambda___(   3 )=       0.093241   gamma___=       0.018907 meV   omega=      8.4470 meV
     lambda_tr(   3 )=      -0.261447   gamma_tr=      -0.053014 meV   omega=      8.4470 meV
     lambda___( tot )=       0.402816
     lambda_tr( tot )=      -0.253424
     -------------------------------------------------------------------


     Number of (k,k+q) pairs on the Fermi surface:      216 out of      216


     ismear =     1 iq =      48 coord.:   0.16667  0.16667  0.83333 wt:   0.00463
     -------------------------------------------------------------------
     lambda___(   1 )=       0.003548   gamma___=       0.000107 meV   omega=      3.2583 meV
     lambda_tr(   1 )=       0.001475   gamma_tr=       0.000044 meV   omega=      3.2583 meV
     lambda___(   2 )=       0.028046   gamma___=       0.001140 meV   omega=      3.7812 meV
     lambda_tr(   2 )=       0.149948   gamma_tr=       0.006093 meV   omega=      3.7812 meV
     lambda___(   3 )=       0.006936   gamma___=       0.001033 meV   omega=      7.2397 meV
     lambda_tr(   3 )=      -0.013072   gamma_tr=      -0.001947 meV   omega=      7.2397 meV
     lambda___( tot )=       0.038530
     lambda_tr( tot )=       0.138351
     -------------------------------------------------------------------


     Number of (k,k+q) pairs on the Fermi surface:      216 out of      216


     ismear =     1 iq =      49 coord.:   0.16667  0.33333  0.00000 wt:   0.00463
     -------------------------------------------------------------------
     lambda___(   1 )=       0.007185   gamma___=       0.000217 meV   omega=      3.2583 meV
     lambda_tr(   1 )=       0.006438   gamma_tr=       0.000194 meV   omega=      3.2583 meV
     lambda___(   2 )=       0.027118   gamma___=       0.001102 meV   omega=      3.7812 meV
     lambda_tr(   2 )=       0.148585   gamma_tr=       0.006037 meV   omega=      3.7812 meV
     lambda___(   3 )=       0.006697   gamma___=       0.000998 meV   omega=      7.2397 meV
     lambda_tr(   3 )=      -0.013113   gamma_tr=      -0.001953 meV   omega=      7.2397 meV
     lambda___( tot )=       0.041000
     lambda_tr( tot )=       0.141911
     -------------------------------------------------------------------


     Number of (k,k+q) pairs on the Fermi surface:      216 out of      216


     ismear =     1 iq =      50 coord.:   0.16667  0.33333  0.16667 wt:   0.00463
     -------------------------------------------------------------------
     lambda___(   1 )=      -0.878270   gamma___=      -0.023650 meV   omega=      3.0782 meV
     lambda_tr(   1 )=      -1.662838   gamma_tr=      -0.044776 meV   omega=      3.0782 meV
     lambda___(   2 )=      -0.024525   gamma___=      -0.000742 meV   omega=      3.2635 meV
     lambda_tr(   2 )=      -0.863668   gamma_tr=      -0.026141 meV   omega=      3.2635 meV
     lambda___(   3 )=       0.066526   gamma___=       0.007498 meV   omega=      6.2976 meV
     lambda_tr(   3 )=       0.023613   gamma_tr=       0.002661 meV   omega=      6.2976 meV
     lambda___( tot )=      -0.836270
     lambda_tr( tot )=      -2.502894
     -------------------------------------------------------------------


     Number of (k,k+q) pairs on the Fermi surface:      216 out of      216


     ismear =     1 iq =      51 coord.:   0.16667  0.33333  0.33333 wt:   0.00463
     -------------------------------------------------------------------
     lambda___(   1 )=       0.013717   gamma___=       0.000414 meV   omega=      3.2583 meV
     lambda_tr(   1 )=       0.058750   gamma_tr=       0.001772 meV   omega=      3.2583 meV
     lambda___(   2 )=       0.027829   gamma___=       0.001131 meV   omega=      3.7812 meV
     lambda_tr(   2 )=       0.144538   gamma_tr=       0.005873 meV   omega=      3.7812 meV
     lambda___(   3 )=       0.006851   gamma___=       0.001020 meV   omega=      7.2397 meV
     lambda_tr(   3 )=      -0.014270   gamma_tr=      -0.002126 meV   omega=      7.2397 meV
     lambda___( tot )=       0.048397
     lambda_tr( tot )=       0.189017
     -------------------------------------------------------------------


     Number of (k,k+q) pairs on the Fermi surface:      216 out of      216


     ismear =     1 iq =      52 coord.:   0.16667  0.33333  0.50000 wt:   0.00463
     -------------------------------------------------------------------
     lambda___(   1 )=       0.125856   gamma___=       0.007495 meV   omega=      4.5777 meV
     lambda_tr(   1 )=      -0.072736   gamma_tr=      -0.004332 meV   omega=      4.5777 meV
     lambda___(   2 )=       0.473748   gamma___=       0.039757 meV   omega=      5.4341 meV
     lambda_tr(   2 )=      -1.020595   gamma_tr=      -0.085649 meV   omega=      5.4341 meV
     lambda___(   3 )=       0.115385   gamma___=       0.021622 meV   omega=      8.1203 meV
     lambda_tr(   3 )=       0.501005   gamma_tr=       0.093884 meV   omega=      8.1203 meV
     lambda___( tot )=       0.714989
     lambda_tr( tot )=      -0.592327
     -------------------------------------------------------------------


     Number of (k,k+q) pairs on the Fermi surface:      216 out of      216


     ismear =     1 iq =      53 coord.:   0.16667  0.33333  0.66667 wt:   0.00463
     -------------------------------------------------------------------
     lambda___(   1 )=       0.006073   gamma___=       0.000457 meV   omega=      5.1442 meV
     lambda_tr(   1 )=       0.013573   gamma_tr=       0.001021 meV   omega=      5.1442 meV
     lambda___(   2 )=       0.005156   gamma___=       0.000693 meV   omega=      6.8777 meV
     lambda_tr(   2 )=      -0.000268   gamma_tr=      -0.000036 meV   omega=      6.8777 meV
     lambda___(   3 )=       0.016990   gamma___=       0.003100 meV   omega=      8.0133 meV
     lambda_tr(   3 )=       0.077203   gamma_tr=       0.014089 meV   omega=      8.0133 meV
     lambda___( tot )=       0.028220
     lambda_tr( tot )=       0.090508
     -------------------------------------------------------------------


     Number of (k,k+q) pairs on the Fermi surface:      216 out of      216


     ismear =     1 iq =      54 coord.:   0.16667  0.33333  0.83333 wt:   0.00463
     -------------------------------------------------------------------
     lambda___(   1 )=      -0.145774   gamma___=      -0.008681 meV   omega=      4.5777 meV
     lambda_tr(   1 )=      -0.359922   gamma_tr=      -0.021434 meV   omega=      4.5777 meV
     lambda___(   2 )=       0.394558   gamma___=       0.033112 meV   omega=      5.4341 meV
     lambda_tr(   2 )=      -1.127502   gamma_tr=      -0.094621 meV   omega=      5.4341 meV
     lambda___(   3 )=       0.173846   gamma___=       0.032577 meV   omega=      8.1203 meV
     lambda_tr(   3 )=       0.525719   gamma_tr=       0.098515 meV   omega=      8.1203 meV
     lambda___( tot )=       0.422630
     lambda_tr( tot )=      -0.961705
     -------------------------------------------------------------------


     Number of (k,k+q) pairs on the Fermi surface:      216 out of      216


     ismear =     1 iq =      55 coord.:   0.16667  0.50000  0.00000 wt:   0.00463
     -------------------------------------------------------------------
     lambda___(   1 )=       0.267369   gamma___=       0.014279 meV   omega=      4.3349 meV
     lambda_tr(   1 )=       0.215516   gamma_tr=       0.011509 meV   omega=      4.3349 meV
     lambda___(   2 )=       0.055722   gamma___=       0.004511 meV   omega=      5.3373 meV
     lambda_tr(   2 )=      -0.092624   gamma_tr=      -0.007498 meV   omega=      5.3373 meV
     lambda___(   3 )=       0.068051   gamma___=       0.013799 meV   omega=      8.4470 meV
     lambda_tr(   3 )=      -0.283229   gamma_tr=      -0.057431 meV   omega=      8.4470 meV
     lambda___( tot )=       0.391141
     lambda_tr( tot )=      -0.160336
     -------------------------------------------------------------------


     Number of (k,k+q) pairs on the Fermi surface:      216 out of      216


     ismear =     1 iq =      56 coord.:   0.16667  0.50000  0.16667 wt:   0.00463
     -------------------------------------------------------------------
     lambda___(   1 )=       0.044592   gamma___=       0.002260 meV   omega=      4.2226 meV
     lambda_tr(   1 )=       0.198057   gamma_tr=       0.010036 meV   omega=      4.2226 meV
     lambda___(   2 )=       0.033609   gamma___=       0.002505 meV   omega=      5.1214 meV
     lambda_tr(   2 )=      -0.055419   gamma_tr=      -0.004131 meV   omega=      5.1214 meV
     lambda___(   3 )=       0.008367   gamma___=       0.001541 meV   omega=      8.0497 meV
     lambda_tr(   3 )=      -0.014614   gamma_tr=      -0.002691 meV   omega=      8.0497 meV
     lambda___( tot )=       0.086567
     lambda_tr( tot )=       0.128023
     -------------------------------------------------------------------


     Number of (k,k+q) pairs on the Fermi surface:      216 out of      216


     ismear =     1 iq =      57 coord.:   0.16667  0.50000  0.33333 wt:   0.00463
     -------------------------------------------------------------------
     lambda___(   1 )=      -0.072272   gamma___=      -0.004304 meV   omega=      4.5777 meV
     lambda_tr(   1 )=      -0.253507   gamma_tr=      -0.015097 meV   omega=      4.5777 meV
     lambda___(   2 )=       0.322570   gamma___=       0.027070 meV   omega=      5.4341 meV
     lambda_tr(   2 )=      -1.231915   gamma_tr=      -0.103383 meV   omega=      5.4341 meV
     lambda___(   3 )=       0.132970   gamma___=       0.024917 meV   omega=      8.1203 meV
     lambda_tr(   3 )=       0.484024   gamma_tr=       0.090702 meV   omega=      8.1203 meV
     lambda___( tot )=       0.383268
     lambda_tr( tot )=      -1.001398
     -------------------------------------------------------------------


     Number of (k,k+q) pairs on the Fermi surface:      216 out of      216


     ismear =     1 iq =      58 coord.:   0.16667  0.50000  0.50000 wt:   0.00463
     -------------------------------------------------------------------
     lambda___(   1 )=       0.031953   gamma___=       0.002081 meV   omega=      4.7874 meV
     lambda_tr(   1 )=       0.127697   gamma_tr=       0.008317 meV   omega=      4.7874 meV
     lambda___(   2 )=       0.012991   gamma___=       0.001188 meV   omega=      5.6726 meV
     lambda_tr(   2 )=      -0.005107   gamma_tr=      -0.000467 meV   omega=      5.6726 meV
     lambda___(   3 )=       0.009428   gamma___=       0.002108 meV   omega=      8.8695 meV
     lambda_tr(   3 )=      -0.002159   gamma_tr=      -0.000483 meV   omega=      8.8695 meV
     lambda___( tot )=       0.054372
     lambda_tr( tot )=       0.120431
     -------------------------------------------------------------------


     Number of (k,k+q) pairs on the Fermi surface:      216 out of      216


     ismear =     1 iq =      59 coord.:   0.16667  0.50000  0.66667 wt:   0.00463
     -------------------------------------------------------------------
     lambda___(   1 )=       0.121775   gamma___=       0.010502 meV   omega=      5.5086 meV
     lambda_tr(   1 )=       0.123686   gamma_tr=       0.010666 meV   omega=      5.5086 meV
     lambda___(   2 )=       0.084280   gamma___=       0.009852 meV   omega=      6.4134 meV
     lambda_tr(   2 )=       0.081883   gamma_tr=       0.009571 meV   omega=      6.4134 meV
     lambda___(   3 )=       0.083605   gamma___=       0.017599 meV   omega=      8.6064 meV
     lambda_tr(   3 )=       0.091097   gamma_tr=       0.019176 meV   omega=      8.6064 meV
     lambda___( tot )=       0.289661
     lambda_tr( tot )=       0.296665
     -------------------------------------------------------------------


     Number of (k,k+q) pairs on the Fermi surface:      216 out of      216


     ismear =     1 iq =      60 coord.:   0.16667  0.50000  0.83333 wt:   0.00463
     -------------------------------------------------------------------
     lambda___(   1 )=       0.005574   gamma___=       0.000419 meV   omega=      5.1442 meV
     lambda_tr(   1 )=       0.012107   gamma_tr=       0.000911 meV   omega=      5.1442 meV
     lambda___(   2 )=       0.004979   gamma___=       0.000669 meV   omega=      6.8777 meV
     lambda_tr(   2 )=      -0.000028   gamma_tr=      -0.000004 meV   omega=      6.8777 meV
     lambda___(   3 )=       0.016913   gamma___=       0.003086 meV   omega=      8.0133 meV
     lambda_tr(   3 )=       0.076444   gamma_tr=       0.013950 meV   omega=      8.0133 meV
     lambda___( tot )=       0.027466
     lambda_tr( tot )=       0.088523
     -------------------------------------------------------------------


     Number of (k,k+q) pairs on the Fermi surface:      216 out of      216


     ismear =     1 iq =      61 coord.:   0.16667  0.66667  0.00000 wt:   0.00463
     -------------------------------------------------------------------
     lambda___(   1 )=       0.040548   gamma___=       0.002055 meV   omega=      4.2226 meV
     lambda_tr(   1 )=       0.188285   gamma_tr=       0.009541 meV   omega=      4.2226 meV
     lambda___(   2 )=       0.032856   gamma___=       0.002449 meV   omega=      5.1214 meV
     lambda_tr(   2 )=      -0.063411   gamma_tr=      -0.004727 meV   omega=      5.1214 meV
     lambda___(   3 )=       0.008107   gamma___=       0.001493 meV   omega=      8.0497 meV
     lambda_tr(   3 )=      -0.014104   gamma_tr=      -0.002597 meV   omega=      8.0497 meV
     lambda___( tot )=       0.081511
     lambda_tr( tot )=       0.110770
     -------------------------------------------------------------------


     Number of (k,k+q) pairs on the Fermi surface:      216 out of      216


     ismear =     1 iq =      62 coord.:   0.16667  0.66667  0.16667 wt:   0.00463
     -------------------------------------------------------------------
     lambda___(   1 )=      -0.056758   gamma___=      -0.003031 meV   omega=      4.3349 meV
     lambda_tr(   1 )=       0.100079   gamma_tr=       0.005345 meV   omega=      4.3349 meV
     lambda___(   2 )=       0.059939   gamma___=       0.004852 meV   omega=      5.3373 meV
     lambda_tr(   2 )=      -0.075338   gamma_tr=      -0.006099 meV   omega=      5.3373 meV
     lambda___(   3 )=       0.017306   gamma___=       0.003509 meV   omega=      8.4470 meV
     lambda_tr(   3 )=      -0.319338   gamma_tr=      -0.064753 meV   omega=      8.4470 meV
     lambda___( tot )=       0.020487
     lambda_tr( tot )=      -0.294597
     -------------------------------------------------------------------


     Number of (k,k+q) pairs on the Fermi surface:      216 out of      216


     ismear =     1 iq =      63 coord.:   0.16667  0.66667  0.33333 wt:   0.00463
     -------------------------------------------------------------------
     lambda___(   1 )=       0.004567   gamma___=       0.000343 meV   omega=      5.1442 meV
     lambda_tr(   1 )=       0.011056   gamma_tr=       0.000831 meV   omega=      5.1442 meV
     lambda___(   2 )=       0.004343   gamma___=       0.000584 meV   omega=      6.8777 meV
     lambda_tr(   2 )=       0.000181   gamma_tr=       0.000024 meV   omega=      6.8777 meV
     lambda___(   3 )=       0.016159   gamma___=       0.002949 meV   omega=      8.0133 meV
     lambda_tr(   3 )=       0.073536   gamma_tr=       0.013419 meV   omega=      8.0133 meV
     lambda___( tot )=       0.025068
     lambda_tr( tot )=       0.084773
     -------------------------------------------------------------------


     Number of (k,k+q) pairs on the Fermi surface:      216 out of      216


     ismear =     1 iq =      64 coord.:   0.16667  0.66667  0.50000 wt:   0.00463
     -------------------------------------------------------------------
     lambda___(   1 )=       0.078113   gamma___=       0.006736 meV   omega=      5.5086 meV
     lambda_tr(   1 )=       0.079595   gamma_tr=       0.006864 meV   omega=      5.5086 meV
     lambda___(   2 )=       0.038395   gamma___=       0.004488 meV   omega=      6.4134 meV
     lambda_tr(   2 )=       0.036777   gamma_tr=       0.004299 meV   omega=      6.4134 meV
     lambda___(   3 )=       0.082514   gamma___=       0.017369 meV   omega=      8.6064 meV
     lambda_tr(   3 )=       0.088026   gamma_tr=       0.018529 meV   omega=      8.6064 meV
     lambda___( tot )=       0.199022
     lambda_tr( tot )=       0.204398
     -------------------------------------------------------------------


     Number of (k,k+q) pairs on the Fermi surface:      216 out of      216


     ismear =     1 iq =      65 coord.:   0.16667  0.66667  0.66667 wt:   0.00463
     -------------------------------------------------------------------
     lambda___(   1 )=       0.031706   gamma___=       0.002065 meV   omega=      4.7874 meV
[...]
      215        7      6.8732    159.0198     64.0399      1.0439     -0.0420
      216        7      7.7957    128.8986     37.6813      1.0737     -0.0686
  
        1        8      8.2862    105.9410      0.1216      0.9687      0.0323
        2        8      7.7982    130.1036     39.3611      1.0788     -0.0730
        3        8      6.7126    172.9864     88.4500      1.0927     -0.0848
        4        8      6.1174    170.8653      9.3583      0.9162      0.0915
        5        8      6.7126    171.5784     93.4332      1.0951     -0.0868
        6        8      7.7982    128.0686     37.6130      1.0745     -0.0693
        7        8      7.7982    128.9494     38.6485      1.0764     -0.0710
        8        8      6.7129    143.1695    125.6263      1.1944     -0.1628
        9        8      5.5908    200.9887    192.1262      1.4624     -0.3162
       10        8      4.6703    193.5782    171.6228      1.3851     -0.2780
       11        8      5.4617    140.3143    168.6115      1.3546     -0.2618
       12        8      6.8817    160.4722     63.2306      1.0379     -0.0365
       13        8      6.7126    171.4447     93.8076      1.0998     -0.0907
       14        8      5.5908    199.7936    191.2973      1.4616     -0.3158
       15        8      3.4267    142.8590    116.6471      1.0857     -0.0789
       16        8      2.3802     74.1426    219.3945      1.3065     -0.2346
       17        8      3.4954    171.0467    162.2324      1.1579     -0.1364
       18        8      5.4617    139.4554    162.5974      1.3316     -0.2490
       19        8      6.1174    170.5140      9.3134      0.9169      0.0907
       20        8      4.6703    192.0223    173.0439      1.3966     -0.2840
       21        8      2.3802     74.3871    217.3309      1.3008     -0.2312
       22        8      1.7131    187.1336     16.2890      0.8438      0.1851
       23        8      2.3802     71.5840    220.1345      1.3063     -0.2345
       24        8      4.6703    193.9587    174.9532      1.4038     -0.2877
       25        8      6.7126    173.0559     92.4186      1.0945     -0.0863
       26        8      5.4617    140.1074    168.5000      1.3562     -0.2626
       27        8      3.4954    171.9060    163.9351      1.1724     -0.1471
       28        8      2.3802     73.2773    218.2998      1.3064     -0.2345
       29        8      3.4267    140.6246    128.8842      1.1201     -0.1073
       30        8      5.5908    203.4393    192.7703      1.4635     -0.3167
       31        8      7.7982    128.3983     37.3706      1.0727     -0.0678
       32        8      6.8817    162.8782     66.1350      1.0435     -0.0417
       33        8      5.4617    141.0803    163.1664      1.3390     -0.2532
       34        8      4.6703    193.2091    176.8022      1.4117     -0.2916
       35        8      5.5908    202.7282    190.8706      1.4559     -0.3131
       36        8      6.7129    142.8884    120.8675      1.1818     -0.1538
       37        8      7.7982    128.1117     37.2627      1.0725     -0.0676
       38        8      6.7129    142.7151    126.2063      1.1978     -0.1651
       39        8      5.5908    202.1425    197.0797      1.4873     -0.3276
       40        8      4.6703    193.2356    174.7343      1.4021     -0.2868
       41        8      5.4617    140.0772    166.5587      1.3457     -0.2569
       42        8      6.8817    159.7484     61.6265      1.0366     -0.0353
       43        8      6.7121    142.2972    123.9652      1.1908     -0.1602
       44        8      7.7982    129.4804     41.9754      1.0876     -0.0806
       45        8      6.8827    162.1868     64.8860      1.0406     -0.0390
       46        8      5.4623    142.0973    163.4289      1.3403     -0.2539
       47        8      4.6689    192.3589    177.5950      1.4148     -0.2932
       48        8      5.5902    201.4453    192.2395      1.4628     -0.3164
       49        8      5.5902    198.3450    189.7635      1.4579     -0.3141
       50        8      6.8817    161.2881     64.5541      1.0405     -0.0389
       51        8      5.5908    201.3651    194.8811      1.4758     -0.3224
       52        8      4.0623    202.6761    302.3854      1.7594     -0.4316
       53        8      2.9909    210.1269    379.4433      2.0145     -0.5036
       54        8      4.0609    198.8459    303.1755      1.7715     -0.4355
       55        8      4.6689    191.3132    170.0249      1.3791     -0.2749
       56        8      5.4617    140.9631    161.4518      1.3285     -0.2473
       57        8      4.0621    201.0301    302.8815      1.7641     -0.4331
       58        8      2.3802     73.0849    220.2749      1.3134     -0.2386
       59        8      1.4397    191.2468    151.3988      0.9974      0.0026
       60        8      2.9909    210.6392    377.2948      1.9855     -0.4963
       61        8      5.4623    140.7326    166.3704      1.3492     -0.2588
       62        8      4.6703    194.4578    177.0292      1.4119     -0.2917
       63        8      2.9903    208.1688    379.7072      2.0372     -0.5091
       64        8      1.4368    194.0428    152.4286      0.9987      0.0013
       65        8      2.3802     72.1242    218.3886      1.3020     -0.2319
       66        8      4.0623    203.4009    305.8609      1.7787     -0.4378
       67        8      6.8827    162.3675     64.8125      1.0408     -0.0392
       68        8      5.5908    202.9453    198.8305      1.4877     -0.3278
       69        8      4.0621    201.4464    304.5307      1.7809     -0.4385
       70        8      2.9903    207.4215    376.0804      1.9939     -0.4985
       71        8      4.0621    202.3868    303.6906      1.7547     -0.4301
       72        8      5.5908    202.3545    189.9632      1.4502     -0.3104
       73        8      6.7126    170.8765     90.4740      1.0933     -0.0853
       74        8      5.5908    201.9009    197.6475      1.4861     -0.3271
       75        8      3.4267    143.2266    117.9084      1.0854     -0.0787
       76        8      2.3802     74.4978    218.5613      1.3052     -0.2338
       77        8      3.4954    170.3238    160.3440      1.1545     -0.1338
       78        8      5.4617    140.5843    163.2305      1.3367     -0.2519
       79        8      5.5902    199.1032    192.5180      1.4686     -0.3191
       80        8      6.8817    160.0094     64.1683      1.0412     -0.0396
       81        8      5.5908    201.5020    198.9231      1.4973     -0.3321
       82        8      4.0623    201.0688    303.1986      1.7763     -0.4370
       83        8      2.9909    209.2744    377.7282      2.0115     -0.5029
       84        8      4.0609    199.9676    304.4623      1.7739     -0.4363
       85        8      3.4267    139.7911    118.4577      1.0881     -0.0810
       86        8      5.5902    201.8305    195.7460      1.4815     -0.3250
       87        8      6.7126    172.5872     92.0616      1.1002     -0.0911
       88        8      5.4623    141.9793    164.5834      1.3425     -0.2551
       89        8      3.4954    171.8765    159.1389      1.1485     -0.1293
       90        8      2.3795     74.3130    216.2877      1.2913     -0.2256
       91        8      2.3795     75.0753    218.5399      1.2991     -0.2302
       92        8      4.0609    200.2578    300.3214      1.7594     -0.4316
       93        8      5.4617    141.4400    162.8477      1.3346     -0.2507
       94        8      4.6703    194.1659    172.9253      1.3920     -0.2816
       95        8      2.9909    209.2120    382.6225      2.0428     -0.5105
       96        8      1.4395    196.3037    147.8041      0.9889      0.0113
       97        8      3.4954    171.7964    159.0908      1.1547     -0.1340
       98        8      2.9909    211.8502    377.9647      2.0069     -0.5017
       99        8      3.4954    173.1087    157.9542      1.1433     -0.1253
      100        8      2.9903    210.6308    383.1890      2.0462     -0.5113
      101        8      3.4954    172.4473    164.8584      1.1713     -0.1463
      102        8      2.9909    208.8368    376.3896      1.9904     -0.4976
      103        8      5.4623    140.3961    167.9632      1.3529     -0.2609
      104        8      4.0623    201.9356    303.5441      1.7617     -0.4324
      105        8      2.3802     73.7169    220.4804      1.3031     -0.2326
      106        8      1.4368    193.0694    149.9511      0.9923      0.0078
      107        8      2.9903    210.2951    383.9497      2.0442     -0.5108
      108        8      4.6703    194.0550    174.0532      1.3991     -0.2853
      109        8      6.1174    171.0083      9.4111      0.9161      0.0916
      110        8      4.6703    193.1898    173.8614      1.3971     -0.2843
      111        8      2.3802     74.9089    219.6456      1.3057     -0.2341
      112        8      1.7131    186.8149     16.3285      0.8437      0.1853
      113        8      2.3802     72.9821    221.4698      1.3100     -0.2367
      114        8      4.6703    194.5787    171.5472      1.3852     -0.2781
      115        8      4.6689    192.1495    175.2650      1.4031     -0.2873
      116        8      5.4617    138.8900    163.3799      1.3356     -0.2513
      117        8      4.0621    199.3557    300.5455      1.7634     -0.4329
      118        8      2.3802     75.4312    220.1855      1.3147     -0.2394
      119        8      1.4397    193.6943    150.3038      0.9940      0.0060
      120        8      2.9909    213.5382    383.6718      2.0338     -0.5083
      121        8      2.3795     72.8968    218.9677      1.2982     -0.2297
      122        8      4.0609    199.2214    301.6987      1.7694     -0.4348
      123        8      5.4617    140.1865    160.9441      1.3286     -0.2474
      124        8      4.6703    192.1164    174.4867      1.4040     -0.2877
      125        8      2.9909    209.6389    377.5371      2.0127     -0.5032
      126        8      1.4395    194.2764    147.4897      0.9862      0.0140
      127        8      1.7143    187.0396     15.9074      0.8438      0.1851
      128        8      2.3795     73.6919    218.7853      1.3021     -0.2320
      129        8      4.6689    194.0231    173.1897      1.3896     -0.2804
      130        8      6.1174    170.4061      9.3359      0.9165      0.0911
      131        8      4.6689    192.9628    174.5517      1.3970     -0.2842
      132        8      2.3795     74.1940    217.9022      1.2989     -0.2301
      133        8      2.3795     75.6016    219.6915      1.3108     -0.2371
      134        8      1.4395    194.3963    150.5855      0.9962      0.0038
      135        8      2.9909    212.9481    380.6971      2.0154     -0.5038
      136        8      4.6703    193.0287    173.8699      1.3990     -0.2852
      137        8      5.4617    139.9156    162.5636      1.3322     -0.2494
      138        8      4.0609    200.2449    305.6816      1.7863     -0.4402
      139        8      4.6689    192.6149    176.5675      1.4072     -0.2893
      140        8      2.9909    210.4739    377.0259      2.0154     -0.5038
      141        8      1.4397    195.3915    148.3317      0.9870      0.0131
      142        8      2.3802     74.0155    220.5619      1.3049     -0.2337
      143        8      4.0621    201.2144    298.7185      1.7397     -0.4252
      144        8      5.4617    140.8933    161.4355      1.3291     -0.2476
      145        8      6.7126    172.5917     93.4820      1.1015     -0.0921
      146        8      5.4617    141.4288    164.8238      1.3433     -0.2556
      147        8      3.4954    172.1046    154.5520      1.1351     -0.1191
      148        8      2.3802     73.0540    219.0109      1.2998     -0.2306
      149        8      3.4267    139.4556    122.0191      1.1000     -0.0909
      150        8      5.5908    201.2244    194.0703      1.4772     -0.3230
      151        8      5.4623    141.3970    163.7264      1.3384     -0.2528
      152        8      4.6703    193.0383    175.6009      1.4095     -0.2905
      153        8      2.9903    207.4394    378.8285      2.0478     -0.5117
      154        8      1.4368    194.7606    148.4358      0.9914      0.0086
      155        8      2.3802     72.6552    220.8794      1.3051     -0.2338
      156        8      4.0623    201.1285    301.1521      1.7575     -0.4310
      157        8      3.4954    171.7432    155.8444      1.1339     -0.1181
      158        8      2.9909    209.7655    377.8941      2.0143     -0.5035
      159        8      3.4954    170.3610    161.8481      1.1642     -0.1411
      160        8      2.9903    207.4446    373.5219      1.9907     -0.4977
      161        8      3.4954    171.7332    156.0746      1.1424     -0.1246
      162        8      2.9909    213.7393    380.9396      2.0124     -0.5031
      163        8      2.3795     75.1353    218.5651      1.2979     -0.2295
      164        8      1.4395    191.6264    148.5013      0.9922      0.0079
      165        8      2.9909    209.3240    377.0902      1.9957     -0.4989
      166        8      4.6703    193.3232    176.0716      1.4091     -0.2903
      167        8      5.4617    140.2482    165.1022      1.3412     -0.2544
      168        8      4.0609    201.2624    305.7765      1.7842     -0.4395
      169        8      3.4267    142.4232    115.6381      1.0791     -0.0733
      170        8      2.3795     75.4394    218.8941      1.3060     -0.2343
      171        8      3.4954    169.2677    158.8167      1.1519     -0.1318
      172        8      5.4623    140.5435    165.7586      1.3486     -0.2585
      173        8      6.7126    171.8274     91.7989      1.0922     -0.0844
      174        8      5.5902    200.8869    197.8082      1.4930     -0.3302
      175        8      5.5902    201.1213    200.2754      1.5020     -0.3342
      176        8      4.0609    200.5614    302.9263      1.7810     -0.4385
      177        8      2.9909    211.4215    377.6089      2.0017     -0.5004
      178        8      4.0623    200.9499    302.2507      1.7562     -0.4306
      179        8      5.5908    200.4973    189.7205      1.4524     -0.3115
      180        8      6.8817    159.5476     62.7709      1.0402     -0.0386
      181        8      7.7982    129.3288     40.9332      1.0842     -0.0777
      182        8      6.8817    161.0394     64.1037      1.0410     -0.0394
      183        8      5.4617    141.5335    158.8706      1.3235     -0.2444
      184        8      4.6703    193.8599    177.6465      1.4179     -0.2947
      185        8      5.5908    202.2458    193.9417      1.4683     -0.3190
      186        8      6.7129    143.0708    124.0953      1.1920     -0.1611
      187        8      6.8827    162.1744     65.0317      1.0396     -0.0381
      188        8      5.5908    202.1950    195.9123      1.4779     -0.3234
      189        8      4.0621    201.3394    300.1731      1.7537     -0.4298
      190        8      2.9903    211.0378    381.7802      2.0416     -0.5102
      191        8      4.0621    200.5715    304.0241      1.7618     -0.4324
      192        8      5.5908    200.2572    192.2334      1.4687     -0.3191
      193        8      5.4623    140.6364    163.7472      1.3364     -0.2517
      194        8      4.0623    200.3141    300.4248      1.7552     -0.4303
      195        8      2.3802     74.5391    217.2512      1.3042     -0.2333
      196        8      1.4368    192.7375    150.9867      0.9959      0.0042
      197        8      2.9903    211.9399    382.5578      2.0293     -0.5072
      198        8      4.6703    193.4406    171.2850      1.3851     -0.2780
      199        8      4.6689    191.8637    176.5194      1.4083     -0.2899
      200        8      2.9909    207.8676    376.0920      2.0129     -0.5032
      201        8      1.4397    196.1510    150.0251      0.9934      0.0066
      202        8      2.3802     73.7176    216.8271      1.2960     -0.2284
      203        8      4.0621    203.4984    304.0063      1.7614     -0.4323
      204        8      5.4617    141.0620    163.0592      1.3366     -0.2518
      205        8      5.5902    201.5036    196.1665      1.4770     -0.3229
      206        8      4.0609    200.8257    301.6364      1.7713     -0.4354
      207        8      2.9909    208.1986    375.6191      1.9915     -0.4979
      208        8      4.0623    202.2168    301.4077      1.7502     -0.4286
      209        8      5.5908    203.3192    189.3669      1.4443     -0.3076
      210        8      6.8817    160.8574     62.7095      1.0382     -0.0368
      211        8      6.7121    142.7834    127.1186      1.2009     -0.1673
      212        8      5.5902    201.4475    195.9299      1.4824     -0.3254
      213        8      4.6689    192.6305    169.5258      1.3749     -0.2726
      214        8      5.4623    139.8016    166.4901      1.3477     -0.2580
      215        8      6.8827    159.9713     61.8477      1.0364     -0.0351
      216        8      7.7982    128.6398     37.5219      1.0735     -0.0685
  
     ===================================================================
     Memory usage:  VmHWM =        99Mb
                   VmPeak =       350Mb
     ===================================================================


     ===================================================================
     Eliashberg Spectral Function in the Migdal Approximation
     ===================================================================

     lambda :    0.2410879
     lambda_tr :    0.5958451
 
     Estimated Allen-Dynes Tc
 
     logavg =    0.0003772 l_a2F =    0.2411450
     mu =   0.10 Tc =         0.001792481299 K
     mu =   0.12 Tc =         0.000183603479 K
     mu =   0.14 Tc =         0.000005094008 K
     mu =   0.16 Tc =         0.000000007930 K
     mu =   0.18 Tc =         0.000000000000 K
     mu =   0.20 Tc =         0.000000000000 K
     a2F          :      0.20s CPU      0.20s WALL (       1 calls)
 
     Unfolding on the coarse grid
     elphon_wrap  :    494.69s CPU    498.10s WALL (       1 calls)
 
     INITIALIZATION: 
 
     init_vloc    :      0.05s CPU      0.05s WALL (      29 calls)
     init_us_1    :      3.57s CPU      3.56s WALL (      29 calls)
 
 
     Electron-Phonon interpolation
     ephwann      :      8.04s CPU      8.37s WALL (       1 calls)
     ep-interp    :      7.43s CPU      7.69s WALL (     216 calls)
     PH SELF-ENER :      0.90s CPU      0.91s WALL (     216 calls)
 
     Ham: step 1  :      0.00s CPU      0.00s WALL (       1 calls)
     Ham: step 2  :      0.01s CPU      0.01s WALL (       1 calls)
     ep: step 1   :      0.02s CPU      0.02s WALL (      81 calls)
     ep: step 2   :      0.03s CPU      0.04s WALL (      81 calls)
     DynW2B       :      0.01s CPU      0.01s WALL (     216 calls)
     HamW2B       :      2.24s CPU      2.31s WALL (   93744 calls)
     ephW2Bp      :      0.16s CPU      0.32s WALL (     216 calls)
 
 
     Total program execution
     EPW          :  8m55.30s CPU     8m59.32s WALL

                                                                                          
 Please consider citing:                                                                  
 S. Ponce, E. R. Margine, C. Verdi and F. Giustino, Comput. Phys. Commun. 209, 116 (2016) 
                                                                                          
 In addition, if you used anisotropic Eliashberg superconductivity please cite:           
              E. R. Margine and F. Giustino, Phys. Rev. B 87, 024505 (2013)               
              if you used transport properties (scattering rates, mobility) please cite:  
              S. Ponce, E. R. Margine and F. Giustino, Phys. Rev. B 97, 121201 (2018)     
