                                                                                      
                                       ``:oss/                                        
                           `.+s+.     .+ys--yh+     `./ss+.                           
                          -sh//yy+`   +yy   +yy    -+h+-oyy                           
                          -yh- .oyy/.-sh.   .syo-.:sy-  /yh                           
                 `.-.`    `yh+   -oyyyo.     `/syys:    oys      `.`                  
               `/+ssys+-` `sh+      `                   oys`   .:osyo`                
               -yh- ./syyooyo`                          .sys+/oyo--yh/                
               `yy+    .-:-.                             `-/+/:`  -sh-                
                /yh.                                              oys                 
          ``..---hho---------`   .---------..`      `.-----.`    -hd+---.             
       `./osmNMMMMMMMMMMMMMMMs. +NNMMMMMMMMNNmh+.   yNMMMMMNm-  oNMMMMMNmo++:`        
       +sy--/sdMMMhyyyyyyyNMMh- .oyNMMmyyyyyhNMMm+` -yMMMdyyo:` .oyyNMMNhs+syy`       
       -yy/   /MMM+.`-+/``mMMy-   `mMMh:`````.dMMN:` `MMMy-`-dhhy```mMMy:``+hs        
        -yy+` /MMMo:-mMM+`-oo/.    mMMh:     `dMMN/`  dMMm:`dMMMMy..MMMo-.+yo`        
         .sys`/MMMMNNMMMs-         mMMmyooooymMMNo:   oMMM/sMMMMMM++MMN//oh:          
          `sh+/MMMhyyMMMs- `-`     mMMMMMMMMMNmy+-`   -MMMhMMMsmMMmdMMd/yy+           
    `-/+++oyy-/MMM+.`/hh/.`mNm:`   mMMd+/////:-.`      NMMMMMd/:NMMMMMy:/yyo/:.`      
   +os+//:-..-oMMMo:--:::-/MMMo. .-mMMd+---`           hMMMMN+. oMMMMMo. `-+osyso:`   
   syo     `mNMMMMMNNNNNNNNMMMo.oNNMMMMMNNNN:`         +MMMMs:`  dMMMN/`     ``:syo   
   /yh`     :syyyyyyyyyyyyyyyy+.`+syyyyyyyyo:`         .oyys:`   .oyys:`        +yh   
   -yh-        ````````````````    `````````              ``        ``          oys   
   -+h/------------------------::::::::://////++++++++++++++++++++++///////::::/yd:   
   shdddddddddddddddddddddddddddddhhhhhhhhyyyyyssssssssssssssssyyyyyyyhhhhhhhddddh`   
                                                                                      
  S. Ponce, E. R. Margine, C. Verdi, and F. Giustino, http://arxiv.org/abs/1604.03525 
                                                                                      

     Program EPW v.4.0.0 (svn rev. 12493) starts on 21Jun2016 at 16:50:49 

     This program is part of the open-source Quantum ESPRESSO suite
     for quantum simulation of materials; please cite
         "P. Giannozzi et al., J. Phys.:Condens. Matter 21 395502 (2009);
          URL http://www.quantum-espresso.org", 
     in publications or presentations arising from this work. More details at
     http://www.quantum-espresso.org/quote

           HOST :    @host@
           ARCH :    x86_64
             CC :    cc
            CPP :    cpp
            F90 :    mpif90
            F77 :    gfortran
         DFLAGS :    -D__GFORTRAN -D__STD_F95 -D__FFTW -D__MPI -D__PARA
      BLAS LIBS :    /home/sponce/program/espresso/BLAS/blas.a
    LAPACK LIBS :    /home/sponce/program/espresso/lapack-3.2/lapack.a
       FFT LIBS :    
      MASS LIBS :    

     Parallel version (MPI), running on     1 processors

     Reading data from directory:
     ./pb.save

   Info: using nr1, nr2, nr3 values from input

   Info: using nr1, nr2, nr3 values from input

     IMPORTANT: XC functional enforced from input :
     Exchange-correlation      = PZ ( 1  1  0  0 0 0)
     Any further DFT definition will be discarded
     Please, verify this is what you really want


     G-vector sticks info
     --------------------
     sticks:   dense  smooth     PW     G-vecs:    dense   smooth      PW
     Sum         703     703    211                12387    12387    2109


     --                                                                         

     bravais-lattice index     =            2
     lattice parameter (a_0)   =       9.2700  a.u.
     unit-cell volume          =     199.1495 (a.u.)^3
     number of atoms/cell      =            1
     number of atomic types    =            1
     kinetic-energy cut-off    =      60.0000  Ry
     charge density cut-off    =     240.0000  Ry
     convergence threshold     =      0.0E+00
     beta                      =       0.0000
     number of iterations used =            0
     Exchange-correlation      = PZ ( 1  1  0  0 0 0)


     celldm(1)=    9.27000  celldm(2)=    0.00000  celldm(3)=    0.00000
     celldm(4)=    0.00000  celldm(5)=    0.00000  celldm(6)=    0.00000

     crystal axes: (cart. coord. in units of a_0)
               a(1) = ( -0.5000  0.0000  0.5000 )  
               a(2) = (  0.0000  0.5000  0.5000 )  
               a(3) = ( -0.5000  0.5000  0.0000 )  

     reciprocal axes: (cart. coord. in units 2 pi/a_0)
               b(1) = ( -1.0000 -1.0000  1.0000 )  
               b(2) = (  1.0000  1.0000  1.0000 )  
               b(3) = ( -1.0000  1.0000 -1.0000 )  


     Atoms inside the unit cell: 

   Cartesian axes

     site n.  atom      mass           positions (a_0 units)
        1        Pb 207.2175   tau( 1) = (    0.00000    0.00000    0.00000  )

     49 Sym.Ops. (with q -> -q+G )


     G cutoff =  522.4094  (  12387 G-vectors)     FFT grid: ( 36, 36, 36)
     number of k points=   27  gaussian broad. (Ry)=  0.0200     ngauss =   1
                       cart. coord. in units 2pi/a_0
        k(    1) = (   0.0000000   0.0000000   0.0000000), wk =   0.0370370
        k(    2) = (  -0.3333333   0.3333333  -0.3333333), wk =   0.0370370
        k(    3) = (  -0.6666667   0.6666667  -0.6666667), wk =   0.0370370
        k(    4) = (   0.3333333   0.3333333   0.3333333), wk =   0.0370370
        k(    5) = (   0.0000000   0.6666667   0.0000000), wk =   0.0370370
        k(    6) = (  -0.3333333   1.0000000  -0.3333333), wk =   0.0370370
        k(    7) = (   0.6666667   0.6666667   0.6666667), wk =   0.0370370
        k(    8) = (   0.3333333   1.0000000   0.3333333), wk =   0.0370370
        k(    9) = (   0.0000000   1.3333333   0.0000000), wk =   0.0370370
        k(   10) = (  -0.3333333  -0.3333333   0.3333333), wk =   0.0370370
        k(   11) = (  -0.6666667   0.0000000   0.0000000), wk =   0.0370370
        k(   12) = (  -1.0000000   0.3333333  -0.3333333), wk =   0.0370370
        k(   13) = (   0.0000000   0.0000000   0.6666667), wk =   0.0370370
        k(   14) = (  -0.3333333   0.3333333   0.3333333), wk =   0.0370370
        k(   15) = (  -0.6666667   0.6666667  -0.0000000), wk =   0.0370370
        k(   16) = (   0.3333333   0.3333333   1.0000000), wk =   0.0370370
        k(   17) = (   0.0000000   0.6666667   0.6666667), wk =   0.0370370
        k(   18) = (  -0.3333333   1.0000000   0.3333333), wk =   0.0370370
        k(   19) = (  -0.6666667  -0.6666667   0.6666667), wk =   0.0370370
        k(   20) = (  -1.0000000  -0.3333333   0.3333333), wk =   0.0370370
        k(   21) = (  -1.3333333   0.0000000   0.0000000), wk =   0.0370370
        k(   22) = (  -0.3333333  -0.3333333   1.0000000), wk =   0.0370370
        k(   23) = (  -0.6666667  -0.0000000   0.6666667), wk =   0.0370370
        k(   24) = (  -1.0000000   0.3333333   0.3333333), wk =   0.0370370
        k(   25) = (   0.0000000   0.0000000   1.3333333), wk =   0.0370370
        k(   26) = (  -0.3333333   0.3333333   1.0000000), wk =   0.0370370
        k(   27) = (  -0.6666667   0.6666667   0.6666667), wk =   0.0370370

     PseudoPot. # 1 for Pb read from file:
     ./pb_s.UPF
     MD5 check sum: 7774f596943a2055f0d8d19eea6f2ae8
     Pseudo is Norm-conserving, Zval = 14.0
     Generated using "atomic" code by A. Dal Corso  (Quantum ESPRESSO distribution)
     Using radial grid of 1281 points,  4 beta functions with: 
                l(1) =   2
                l(2) =   2
                l(3) =   1
                l(4) =   1
     EPW          :     0.75s CPU         0.38s WALL

     EPW          :     1.98s CPU         0.99s WALL

     No wavefunction gauge setting applied
     -------------------------------------------------------------------
     Wannierization on  3 x  3 x  3 electronic grid
     -------------------------------------------------------------------

     Spin CASE ( non-collinear )

     Initializing Wannier90


     Initial Wannier projections

     (   0.00000   0.00000   0.00000) :  l =  -3 mr =   1
     (   0.00000   0.00000   0.00000) :  l =  -3 mr =   1
     (   0.00000   0.00000   0.00000) :  l =  -3 mr =   2
     (   0.00000   0.00000   0.00000) :  l =  -3 mr =   2

      - Number of bands is ( 22)
      - Number of wannier functions is (  8)
      - All guiding functions are given 
      - All neighbours are found 

     AMN
      k points =    27 in    1 pools
            1 of   27 on ionode
            2 of   27 on ionode
            3 of   27 on ionode
            4 of   27 on ionode
            5 of   27 on ionode
            6 of   27 on ionode
            7 of   27 on ionode
            8 of   27 on ionode
            9 of   27 on ionode
           10 of   27 on ionode
           11 of   27 on ionode
           12 of   27 on ionode
           13 of   27 on ionode
           14 of   27 on ionode
           15 of   27 on ionode
           16 of   27 on ionode
           17 of   27 on ionode
           18 of   27 on ionode
           19 of   27 on ionode
           20 of   27 on ionode
           21 of   27 on ionode
           22 of   27 on ionode
           23 of   27 on ionode
           24 of   27 on ionode
           25 of   27 on ionode
           26 of   27 on ionode
           27 of   27 on ionode

     AMN calculated

     MMN
      k points =    27 in    1 pools
            1 of   27 on ionode
            2 of   27 on ionode
            3 of   27 on ionode
            4 of   27 on ionode
            5 of   27 on ionode
            6 of   27 on ionode
            7 of   27 on ionode
            8 of   27 on ionode
            9 of   27 on ionode
           10 of   27 on ionode
           11 of   27 on ionode
           12 of   27 on ionode
           13 of   27 on ionode
           14 of   27 on ionode
           15 of   27 on ionode
           16 of   27 on ionode
           17 of   27 on ionode
           18 of   27 on ionode
           19 of   27 on ionode
           20 of   27 on ionode
           21 of   27 on ionode
           22 of   27 on ionode
           23 of   27 on ionode
           24 of   27 on ionode
           25 of   27 on ionode
           26 of   27 on ionode
           27 of   27 on ionode
     MMN calculated

     Running Wannier90

     Wannier Function centers (cartesian, alat) and spreads (ang):

     (   0.08272   0.08272   0.08273) :   1.60662
     (  -0.08273  -0.08272   0.08271) :   1.60665
     (   0.08273  -0.08272  -0.08272) :   1.60662
     (  -0.08272   0.08273  -0.08272) :   1.60666
     (  -0.08273  -0.08272   0.08271) :   1.60664
     (   0.08272   0.08272   0.08273) :   1.60662
     (  -0.08272   0.08273  -0.08272) :   1.60666
     (   0.08273  -0.08272  -0.08272) :   1.60662

     -------------------------------------------------------------------
     WANNIER      :     73.92s CPU     37.01s WALL (       1 calls)
     -------------------------------------------------------------------

     Dipole matrix elements calculated


     Calculating kmap and kgmap
     Progress  kmap: ###########################
     Progress kgmap: ########################################
     kmaps        :     15.80s CPU      7.91s WALL (       1 calls)
     Symmetries of bravais lattice:  48
     Symmetries of crystal:          48


     ===================================================================
     irreducible q point #    1
     ===================================================================

     Symmetries of small group of q: 48
          in addition sym. q -> -q+G:

     Number of q in the star =    1
     List of q in the star:
          1   0.000000000   0.000000000   0.000000000
        Imposing acoustic sum rule on the dynamical matrix

        q(    1 ) = (   0.0000000   0.0000000   0.0000000 )


     ===================================================================
     irreducible q point #    2
     ===================================================================

     Symmetries of small group of q:  6

     Number of q in the star =    8
     List of q in the star:
          1  -0.333333333   0.333333333  -0.333333333
          2   0.333333333   0.333333333  -0.333333333
          3   0.333333333   0.333333333   0.333333333
          4  -0.333333333   0.333333333   0.333333333
          5   0.333333333  -0.333333333   0.333333333
          6  -0.333333333  -0.333333333  -0.333333333
          7   0.333333333  -0.333333333  -0.333333333
          8  -0.333333333  -0.333333333   0.333333333

        q(    2 ) = (  -0.3333333   0.3333333  -0.3333333 )
        q(    3 ) = (   0.3333333   0.3333333  -0.3333333 )
        q(    4 ) = (   0.3333333   0.3333333   0.3333333 )
        q(    5 ) = (  -0.3333333   0.3333333   0.3333333 )
        q(    6 ) = (   0.3333333  -0.3333333   0.3333333 )
        q(    7 ) = (  -0.3333333  -0.3333333  -0.3333333 )
        q(    8 ) = (   0.3333333  -0.3333333  -0.3333333 )
        q(    9 ) = (  -0.3333333  -0.3333333   0.3333333 )


     ===================================================================
     irreducible q point #    3
     ===================================================================

     Symmetries of small group of q:  8

     Number of q in the star =    6
     List of q in the star:
          1   0.000000000   0.666666667   0.000000000
          2  -0.666666667   0.000000000   0.000000000
          3   0.000000000  -0.666666667   0.000000000
          4   0.000000000   0.000000000   0.666666667
          5   0.000000000   0.000000000  -0.666666667
          6   0.666666667   0.000000000   0.000000000

        q(   10 ) = (   0.0000000   0.6666667   0.0000000 )
        q(   11 ) = (  -0.6666667   0.0000000   0.0000000 )
        q(   12 ) = (   0.0000000  -0.6666667   0.0000000 )
        q(   13 ) = (   0.0000000   0.0000000   0.6666667 )
        q(   14 ) = (   0.0000000   0.0000000  -0.6666667 )
        q(   15 ) = (   0.6666667   0.0000000   0.0000000 )


     ===================================================================
     irreducible q point #    4
     ===================================================================

     Symmetries of small group of q:  4

     Number of q in the star =   12
     List of q in the star:
          1   0.666666667   0.000000000   0.666666667
          2   0.666666667   0.000000000  -0.666666667
          3  -0.666666667   0.000000000  -0.666666667
          4  -0.666666667   0.000000000   0.666666667
          5   0.000000000  -0.666666667   0.666666667
          6  -0.666666667   0.666666667   0.000000000
          7  -0.666666667  -0.666666667   0.000000000
          8   0.666666667   0.666666667   0.000000000
          9   0.666666667  -0.666666667   0.000000000
         10   0.000000000   0.666666667   0.666666667
         11   0.000000000   0.666666667  -0.666666667
         12   0.000000000  -0.666666667  -0.666666667

        q(   16 ) = (   0.6666667   0.0000000   0.6666667 )
        q(   17 ) = (   0.6666667   0.0000000  -0.6666667 )
        q(   18 ) = (  -0.6666667   0.0000000  -0.6666667 )
        q(   19 ) = (  -0.6666667   0.0000000   0.6666667 )
        q(   20 ) = (   0.0000000  -0.6666667   0.6666667 )
        q(   21 ) = (  -0.6666667   0.6666667   0.0000000 )
        q(   22 ) = (  -0.6666667  -0.6666667   0.0000000 )
        q(   23 ) = (   0.6666667   0.6666667   0.0000000 )
        q(   24 ) = (   0.6666667  -0.6666667   0.0000000 )
        q(   25 ) = (   0.0000000   0.6666667   0.6666667 )
        q(   26 ) = (   0.0000000   0.6666667  -0.6666667 )
        q(   27 ) = (   0.0000000  -0.6666667  -0.6666667 )

     Writing epmatq on .epb files


              band disentanglement is used:  nbndsub =    8

     Writing Hamiltonian, Dynamical matrix and EP vertex in Wann rep to file


     Reading Hamiltonian, Dynamical matrix and EP vertex in Wann rep from file


     Finished reading Wann rep data from file

     Using uniform q-mesh:    6   6   6
     Size of q point mesh for interpolation:        216
     Using uniform k-mesh:    6   6   6
     Size of k point mesh for interpolation:        432
     Max number of k points per pool:              432

     Fermi energy coarse grid =  10.121992 eV

     Skipping the first   10 bands:

     The Fermi level will be determined with   4.00000 electrons

     Fermi energy is calculated from the fine k-mesh: Ef =  11.669393 eV

     Warning: check if difference with Fermi level fine grid makes sense

     ===================================================================

              ibndmin =     3  ebndmin =     0.495
              ibndmax =     8  ebndmax =     1.265


     Number of ep-matrix elements per pool :        23328 ~=  182.25 Kb (@ 8 bytes/ DP)

     ===================================================================
     Phonon (Imaginary) Self-Energy in the Migdal Approximation
     ===================================================================


     Fermi Surface thickness =   6.000000 eV

     Golden Rule strictly enforced with T =   0.172347 eV
     Gaussian Broadening:   1.000000 eV, ngauss=   1
     DOS =  0.292657 states/spin/eV/Unit Cell at Ef= 11.669393 eV

     ismear =     1 iq =       1 coord.:   0.00000  0.00000  0.00000 wt:   0.00463
     -------------------------------------------------------------------
     lambda(   1 )=       0.000000   gamma=       0.000000 meV   omega=      0.0000 meV
     lambda(   2 )=       0.000000   gamma=       0.000000 meV   omega=      0.0000 meV
     lambda(   3 )=       0.000000   gamma=       0.000000 meV   omega=      0.0000 meV
     lambda( tot )=       0.000000
     -------------------------------------------------------------------


     Number of (k,k+q) pairs on the Fermi surface:      216 out of      216


     ===================================================================
     Electron (Imaginary) Self-Energy in the Migdal Approximation
     ===================================================================


     Fermi Surface thickness =   6.000000 eV

     Golden Rule strictly enforced with T =   0.172347 eV
     Gaussian Broadening:   1.000000 eV, ngauss=   1
     DOS =  0.292657 states/spin/eV/Unit Cell at Ef= 11.669393 eV
 

     ismear =     1 iq =       2 coord.:   0.00000  0.00000  0.16667 wt:   0.00463
     -------------------------------------------------------------------
     lambda(   1 )=       0.000000   gamma=       0.000000 meV   omega=     -1.2052 meV
     lambda(   2 )=       0.000000   gamma=       0.000000 meV   omega=     -1.2052 meV
     lambda(   3 )=       0.000000   gamma=       0.000000 meV   omega=      0.4924 meV
     lambda( tot )=       0.000000
     -------------------------------------------------------------------


     Number of (k,k+q) pairs on the Fermi surface:      216 out of      216


     ismear =     1 iq =       3 coord.:   0.00000  0.00000  0.33333 wt:   0.00463
     -------------------------------------------------------------------
     lambda(   1 )=       0.322202   gamma=       0.001711 meV   omega=      2.4032 meV
     lambda(   2 )=       0.322024   gamma=       0.001710 meV   omega=      2.4032 meV
     lambda(   3 )=       0.913674   gamma=       0.009285 meV   omega=      3.3246 meV
     lambda( tot )=       1.557900
     -------------------------------------------------------------------


     Number of (k,k+q) pairs on the Fermi surface:      216 out of      216


     ismear =     1 iq =       4 coord.:   0.00000  0.00000  0.50000 wt:   0.00463
     -------------------------------------------------------------------
     lambda(   1 )=      -0.239620   gamma=      -0.003185 meV   omega=      3.8020 meV
     lambda(   2 )=      -0.253244   gamma=      -0.003366 meV   omega=      3.8020 meV
     lambda(   3 )=       0.202333   gamma=       0.004022 meV   omega=      4.6498 meV
     lambda( tot )=      -0.290531
     -------------------------------------------------------------------


     Number of (k,k+q) pairs on the Fermi surface:      216 out of      216


     ismear =     1 iq =       5 coord.:   0.00000  0.00000  0.66667 wt:   0.00463
     -------------------------------------------------------------------
     lambda(   1 )=       0.263364   gamma=       0.001398 meV   omega=      2.4032 meV
     lambda(   2 )=       0.257183   gamma=       0.001366 meV   omega=      2.4032 meV
     lambda(   3 )=       0.866368   gamma=       0.008804 meV   omega=      3.3246 meV
     lambda( tot )=       1.386915
     -------------------------------------------------------------------


     Number of (k,k+q) pairs on the Fermi surface:      216 out of      216


     ismear =     1 iq =       6 coord.:   0.00000  0.00000  0.83333 wt:   0.00463
     -------------------------------------------------------------------
     lambda(   1 )=       0.000000   gamma=       0.000000 meV   omega=     -1.2052 meV
     lambda(   2 )=       0.000000   gamma=       0.000000 meV   omega=     -1.2052 meV
     lambda(   3 )=       0.000000   gamma=       0.000000 meV   omega=      0.4924 meV
     lambda( tot )=       0.000000
     -------------------------------------------------------------------


     Number of (k,k+q) pairs on the Fermi surface:      216 out of      216


     ismear =     1 iq =       7 coord.:   0.00000  0.16667  0.00000 wt:   0.00463
     -------------------------------------------------------------------
     lambda(   1 )=       0.000000   gamma=       0.000000 meV   omega=     -1.2052 meV
     lambda(   2 )=       0.000000   gamma=       0.000000 meV   omega=     -1.2052 meV
     lambda(   3 )=       0.000000   gamma=       0.000000 meV   omega=      0.4924 meV
     lambda( tot )=       0.000000
     -------------------------------------------------------------------


     Number of (k,k+q) pairs on the Fermi surface:      216 out of      216


     ismear =     1 iq =       8 coord.:   0.00000  0.16667  0.16667 wt:   0.00463
     -------------------------------------------------------------------
     lambda(   1 )=       0.000000   gamma=       0.000000 meV   omega=     -3.2687 meV
     lambda(   2 )=       0.000000   gamma=       0.000000 meV   omega=     -3.2687 meV
     lambda(   3 )=       1.166035   gamma=       0.016930 meV   omega=      3.9739 meV
     lambda( tot )=       1.166035
     -------------------------------------------------------------------


     Number of (k,k+q) pairs on the Fermi surface:      216 out of      216


     ismear =     1 iq =       9 coord.:   0.00000  0.16667  0.33333 wt:   0.00463
     -------------------------------------------------------------------
     lambda(   1 )=       0.000000   gamma=       0.000000 meV   omega=     -3.0769 meV
     lambda(   2 )=       0.000000   gamma=       0.000000 meV   omega=     -2.8895 meV
     lambda(   3 )=       0.400277   gamma=       0.010761 meV   omega=      5.4074 meV
     lambda( tot )=       0.400277
     -------------------------------------------------------------------


     Number of (k,k+q) pairs on the Fermi surface:      216 out of      216


     ismear =     1 iq =      10 coord.:   0.00000  0.16667  0.50000 wt:   0.00463
     -------------------------------------------------------------------
     lambda(   1 )=      -1.913321   gamma=      -0.013459 meV   omega=      2.7660 meV
     lambda(   2 )=      -1.388982   gamma=      -0.014198 meV   omega=      3.3343 meV
     lambda(   3 )=      -0.326533   gamma=      -0.009896 meV   omega=      5.7413 meV
     lambda( tot )=      -3.628836
     -------------------------------------------------------------------


     Number of (k,k+q) pairs on the Fermi surface:      216 out of      216


     ismear =     1 iq =      11 coord.:   0.00000  0.16667  0.66667 wt:   0.00463
     -------------------------------------------------------------------
     lambda(   1 )=       0.225178   gamma=       0.002510 meV   omega=      3.4821 meV
     lambda(   2 )=       2.481746   gamma=       0.030620 meV   omega=      3.6633 meV
     lambda(   3 )=      -0.405986   gamma=      -0.007056 meV   omega=      4.3479 meV
     lambda( tot )=       2.300938
     -------------------------------------------------------------------


     Number of (k,k+q) pairs on the Fermi surface:      216 out of      216


     ismear =     1 iq =      12 coord.:   0.00000  0.16667  0.83333 wt:   0.00463
     -------------------------------------------------------------------
     lambda(   1 )=       0.000000   gamma=       0.000000 meV   omega=     -2.7557 meV
     lambda(   2 )=       2.172299   gamma=       0.011052 meV   omega=      2.3523 meV
     lambda(   3 )=      -0.720776   gamma=      -0.006041 meV   omega=      3.0193 meV
     lambda( tot )=       1.451523
     -------------------------------------------------------------------


     Number of (k,k+q) pairs on the Fermi surface:      216 out of      216


     ismear =     1 iq =      13 coord.:   0.00000  0.33333  0.00000 wt:   0.00463
     -------------------------------------------------------------------
     lambda(   1 )=       0.252372   gamma=       0.001340 meV   omega=      2.4032 meV
     lambda(   2 )=       0.268688   gamma=       0.001427 meV   omega=      2.4032 meV
     lambda(   3 )=       0.858990   gamma=       0.008729 meV   omega=      3.3246 meV
     lambda( tot )=       1.380050
     -------------------------------------------------------------------


     Number of (k,k+q) pairs on the Fermi surface:      216 out of      216


     ismear =     1 iq =      14 coord.:   0.00000  0.33333  0.16667 wt:   0.00463
     -------------------------------------------------------------------
     lambda(   1 )=       0.000000   gamma=       0.000000 meV   omega=     -3.0769 meV
     lambda(   2 )=       0.000000   gamma=       0.000000 meV   omega=     -2.8895 meV
     lambda(   3 )=       0.079050   gamma=       0.002125 meV   omega=      5.4074 meV
     lambda( tot )=       0.079050
     -------------------------------------------------------------------


     Number of (k,k+q) pairs on the Fermi surface:      216 out of      216


     ismear =     1 iq =      15 coord.:   0.00000  0.33333  0.33333 wt:   0.00463
     -------------------------------------------------------------------
     lambda(   1 )=       0.000000   gamma=       0.000000 meV   omega=     -4.5024 meV
     lambda(   2 )=       0.000000   gamma=       0.000000 meV   omega=     -4.5024 meV
     lambda(   3 )=       0.211587   gamma=       0.010201 meV   omega=      7.2413 meV
     lambda( tot )=       0.211587
     -------------------------------------------------------------------


     Number of (k,k+q) pairs on the Fermi surface:      216 out of      216


     ismear =     1 iq =      16 coord.:   0.00000  0.33333  0.50000 wt:   0.00463
     -------------------------------------------------------------------
     lambda(   1 )=       0.000000   gamma=       0.000000 meV   omega=     -3.0271 meV
     lambda(   2 )=       0.000000   gamma=       0.000000 meV   omega=     -2.7907 meV
     lambda(   3 )=       0.343339   gamma=       0.019220 meV   omega=      7.8031 meV
     lambda( tot )=       0.343339
     -------------------------------------------------------------------


     Number of (k,k+q) pairs on the Fermi surface:      216 out of      216


     ismear =     1 iq =      17 coord.:   0.00000  0.33333  0.66667 wt:   0.00463
     -------------------------------------------------------------------
     lambda(   1 )=       0.575172   gamma=       0.004910 meV   omega=      3.0471 meV
     lambda(   2 )=       0.145753   gamma=       0.001793 meV   omega=      3.6582 meV
     lambda(   3 )=       0.146285   gamma=       0.005736 meV   omega=      6.5304 meV
     lambda( tot )=       0.867211
     -------------------------------------------------------------------


     Number of (k,k+q) pairs on the Fermi surface:      216 out of      216


     ismear =     1 iq =      18 coord.:   0.00000  0.33333  0.83333 wt:   0.00463
     -------------------------------------------------------------------
     lambda(   1 )=       0.684169   gamma=       0.007627 meV   omega=      3.4821 meV
     lambda(   2 )=       2.410488   gamma=       0.029741 meV   omega=      3.6633 meV
     lambda(   3 )=      -0.398613   gamma=      -0.006928 meV   omega=      4.3479 meV
     lambda( tot )=       2.696044
     -------------------------------------------------------------------


     Number of (k,k+q) pairs on the Fermi surface:      216 out of      216


     ismear =     1 iq =      19 coord.:   0.00000  0.50000  0.00000 wt:   0.00463
     -------------------------------------------------------------------
     lambda(   1 )=      -0.399549   gamma=      -0.005310 meV   omega=      3.8020 meV
     lambda(   2 )=      -0.383505   gamma=      -0.005097 meV   omega=      3.8020 meV
     lambda(   3 )=      -0.745166   gamma=      -0.014812 meV   omega=      4.6498 meV
     lambda( tot )=      -1.528220
     -------------------------------------------------------------------


     Number of (k,k+q) pairs on the Fermi surface:      216 out of      216


     ismear =     1 iq =      20 coord.:   0.00000  0.50000  0.16667 wt:   0.00463
     -------------------------------------------------------------------
     lambda(   1 )=      -2.000717   gamma=      -0.014074 meV   omega=      2.7660 meV
     lambda(   2 )=      -2.403508   gamma=      -0.024568 meV   omega=      3.3343 meV
     lambda(   3 )=      -0.357530   gamma=      -0.010835 meV   omega=      5.7413 meV
     lambda( tot )=      -4.761756
     -------------------------------------------------------------------


     Number of (k,k+q) pairs on the Fermi surface:      216 out of      216


     ismear =     1 iq =      21 coord.:   0.00000  0.50000  0.33333 wt:   0.00463
     -------------------------------------------------------------------
     lambda(   1 )=       0.000000   gamma=       0.000000 meV   omega=     -3.0271 meV
     lambda(   2 )=       0.000000   gamma=       0.000000 meV   omega=     -2.7907 meV
     lambda(   3 )=       0.187973   gamma=       0.010523 meV   omega=      7.8031 meV
     lambda( tot )=       0.187973
     -------------------------------------------------------------------


     Number of (k,k+q) pairs on the Fermi surface:      216 out of      216


     ismear =     1 iq =      22 coord.:   0.00000  0.50000  0.50000 wt:   0.00463
     -------------------------------------------------------------------
     lambda(   1 )=       0.000000   gamma=       0.000000 meV   omega=     -4.3788 meV
     lambda(   2 )=       0.000000   gamma=       0.000000 meV   omega=     -4.3788 meV
     lambda(   3 )=       0.079771   gamma=       0.005375 meV   omega=      8.5608 meV
     lambda( tot )=       0.079771
     -------------------------------------------------------------------


     Number of (k,k+q) pairs on the Fermi surface:      216 out of      216


     ismear =     1 iq =      23 coord.:   0.00000  0.50000  0.66667 wt:   0.00463
     -------------------------------------------------------------------
     lambda(   1 )=       0.000000   gamma=       0.000000 meV   omega=     -3.0271 meV
     lambda(   2 )=       0.000000   gamma=       0.000000 meV   omega=     -2.7907 meV
     lambda(   3 )=       0.334563   gamma=       0.018729 meV   omega=      7.8031 meV
     lambda( tot )=       0.334563
     -------------------------------------------------------------------


     Number of (k,k+q) pairs on the Fermi surface:      216 out of      216


     ismear =     1 iq =      24 coord.:   0.00000  0.50000  0.83333 wt:   0.00463
     -------------------------------------------------------------------
     lambda(   1 )=      -2.055622   gamma=      -0.014460 meV   omega=      2.7660 meV
     lambda(   2 )=      -2.935915   gamma=      -0.030010 meV   omega=      3.3343 meV
     lambda(   3 )=      -0.436685   gamma=      -0.013234 meV   omega=      5.7413 meV
     lambda( tot )=      -5.428221
     -------------------------------------------------------------------


     Number of (k,k+q) pairs on the Fermi surface:      216 out of      216


     ismear =     1 iq =      25 coord.:   0.00000  0.66667  0.00000 wt:   0.00463
     -------------------------------------------------------------------
     lambda(   1 )=       0.266478   gamma=       0.001415 meV   omega=      2.4032 meV
     lambda(   2 )=       0.254404   gamma=       0.001351 meV   omega=      2.4032 meV
     lambda(   3 )=       0.858914   gamma=       0.008728 meV   omega=      3.3246 meV
     lambda( tot )=       1.379796
     -------------------------------------------------------------------


     Number of (k,k+q) pairs on the Fermi surface:      216 out of      216


     ismear =     1 iq =      26 coord.:   0.00000  0.66667  0.16667 wt:   0.00463
     -------------------------------------------------------------------
     lambda(   1 )=      -0.033033   gamma=      -0.000368 meV   omega=      3.4821 meV
     lambda(   2 )=       1.766035   gamma=       0.021790 meV   omega=      3.6633 meV
     lambda(   3 )=      -0.345561   gamma=      -0.006006 meV   omega=      4.3479 meV
     lambda( tot )=       1.387441
     -------------------------------------------------------------------


     Number of (k,k+q) pairs on the Fermi surface:      216 out of      216


     ismear =     1 iq =      27 coord.:   0.00000  0.66667  0.33333 wt:   0.00463
     -------------------------------------------------------------------
     lambda(   1 )=       0.508228   gamma=       0.004339 meV   omega=      3.0471 meV
     lambda(   2 )=       0.136530   gamma=       0.001680 meV   omega=      3.6582 meV
     lambda(   3 )=       0.128948   gamma=       0.005056 meV   omega=      6.5304 meV
     lambda( tot )=       0.773706
     -------------------------------------------------------------------


     Number of (k,k+q) pairs on the Fermi surface:      216 out of      216


     ismear =     1 iq =      28 coord.:   0.00000  0.66667  0.50000 wt:   0.00463
     -------------------------------------------------------------------
     lambda(   1 )=       0.000000   gamma=       0.000000 meV   omega=     -3.0271 meV
     lambda(   2 )=       0.000000   gamma=       0.000000 meV   omega=     -2.7907 meV
     lambda(   3 )=       0.155569   gamma=       0.008709 meV   omega=      7.8031 meV
     lambda( tot )=       0.155569
     -------------------------------------------------------------------


     Number of (k,k+q) pairs on the Fermi surface:      216 out of      216


     ismear =     1 iq =      29 coord.:   0.00000  0.66667  0.66667 wt:   0.00463
     -------------------------------------------------------------------
     lambda(   1 )=       0.000000   gamma=       0.000000 meV   omega=     -4.5024 meV
     lambda(   2 )=       0.000000   gamma=       0.000000 meV   omega=     -4.5024 meV
     lambda(   3 )=       0.194640   gamma=       0.009384 meV   omega=      7.2413 meV
     lambda( tot )=       0.194640
     -------------------------------------------------------------------


     Number of (k,k+q) pairs on the Fermi surface:      216 out of      216


     ismear =     1 iq =      30 coord.:   0.00000  0.66667  0.83333 wt:   0.00463
     -------------------------------------------------------------------
     lambda(   1 )=       0.000000   gamma=       0.000000 meV   omega=     -3.0769 meV
     lambda(   2 )=       0.000000   gamma=       0.000000 meV   omega=     -2.8895 meV
     lambda(   3 )=       0.194559   gamma=       0.005230 meV   omega=      5.4074 meV
     lambda( tot )=       0.194559
     -------------------------------------------------------------------


     Number of (k,k+q) pairs on the Fermi surface:      216 out of      216


     ismear =     1 iq =      31 coord.:   0.00000  0.83333  0.00000 wt:   0.00463
     -------------------------------------------------------------------
     lambda(   1 )=       0.000000   gamma=       0.000000 meV   omega=     -1.2052 meV
     lambda(   2 )=       0.000000   gamma=       0.000000 meV   omega=     -1.2052 meV
     lambda(   3 )=       0.000000   gamma=       0.000000 meV   omega=      0.4924 meV
     lambda( tot )=       0.000000
     -------------------------------------------------------------------


     Number of (k,k+q) pairs on the Fermi surface:      216 out of      216


     ismear =     1 iq =      32 coord.:   0.00000  0.83333  0.16667 wt:   0.00463
     -------------------------------------------------------------------
     lambda(   1 )=       0.000000   gamma=       0.000000 meV   omega=     -2.7557 meV
     lambda(   2 )=       4.467563   gamma=       0.022729 meV   omega=      2.3523 meV
     lambda(   3 )=      -0.179533   gamma=      -0.001505 meV   omega=      3.0193 meV
     lambda( tot )=       4.288029
     -------------------------------------------------------------------


     Number of (k,k+q) pairs on the Fermi surface:      216 out of      216


     ismear =     1 iq =      33 coord.:   0.00000  0.83333  0.33333 wt:   0.00463
     -------------------------------------------------------------------
     lambda(   1 )=       0.449709   gamma=       0.005013 meV   omega=      3.4821 meV
     lambda(   2 )=       1.781955   gamma=       0.021986 meV   omega=      3.6633 meV
     lambda(   3 )=      -0.193893   gamma=      -0.003370 meV   omega=      4.3479 meV
     lambda( tot )=       2.037771
     -------------------------------------------------------------------


     Number of (k,k+q) pairs on the Fermi surface:      216 out of      216


     ismear =     1 iq =      34 coord.:   0.00000  0.83333  0.50000 wt:   0.00463
     -------------------------------------------------------------------
     lambda(   1 )=      -2.657769   gamma=      -0.018696 meV   omega=      2.7660 meV
     lambda(   2 )=      -2.064889   gamma=      -0.021107 meV   omega=      3.3343 meV
     lambda(   3 )=      -0.461566   gamma=      -0.013988 meV   omega=      5.7413 meV
     lambda( tot )=      -5.184223
     -------------------------------------------------------------------


     Number of (k,k+q) pairs on the Fermi surface:      216 out of      216


     ismear =     1 iq =      35 coord.:   0.00000  0.83333  0.66667 wt:   0.00463
     -------------------------------------------------------------------
     lambda(   1 )=       0.000000   gamma=       0.000000 meV   omega=     -3.0769 meV
     lambda(   2 )=       0.000000   gamma=       0.000000 meV   omega=     -2.8895 meV
     lambda(   3 )=      -0.053808   gamma=      -0.001447 meV   omega=      5.4074 meV
     lambda( tot )=      -0.053808
     -------------------------------------------------------------------


     Number of (k,k+q) pairs on the Fermi surface:      216 out of      216


     ismear =     1 iq =      36 coord.:   0.00000  0.83333  0.83333 wt:   0.00463
     -------------------------------------------------------------------
     lambda(   1 )=       0.000000   gamma=       0.000000 meV   omega=     -3.2687 meV
     lambda(   2 )=       0.000000   gamma=       0.000000 meV   omega=     -3.2687 meV
     lambda(   3 )=       0.480926   gamma=       0.006983 meV   omega=      3.9739 meV
     lambda( tot )=       0.480926
     -------------------------------------------------------------------


     Number of (k,k+q) pairs on the Fermi surface:      216 out of      216


     ismear =     1 iq =      37 coord.:   0.16667  0.00000  0.00000 wt:   0.00463
     -------------------------------------------------------------------
     lambda(   1 )=       0.000000   gamma=       0.000000 meV   omega=     -1.2052 meV
     lambda(   2 )=       0.000000   gamma=       0.000000 meV   omega=     -1.2052 meV
     lambda(   3 )=       0.000000   gamma=       0.000000 meV   omega=      0.4924 meV
     lambda( tot )=       0.000000
     -------------------------------------------------------------------


     Number of (k,k+q) pairs on the Fermi surface:      216 out of      216


     ismear =     1 iq =      38 coord.:   0.16667  0.00000  0.16667 wt:   0.00463
     -------------------------------------------------------------------
     lambda(   1 )=       0.000000   gamma=       0.000000 meV   omega=     -3.2687 meV
     lambda(   2 )=       0.000000   gamma=       0.000000 meV   omega=     -3.2687 meV
     lambda(   3 )=       1.175551   gamma=       0.017068 meV   omega=      3.9739 meV
     lambda( tot )=       1.175551
     -------------------------------------------------------------------


     Number of (k,k+q) pairs on the Fermi surface:      216 out of      216


     ismear =     1 iq =      39 coord.:   0.16667  0.00000  0.33333 wt:   0.00463
     -------------------------------------------------------------------
     lambda(   1 )=       0.000000   gamma=       0.000000 meV   omega=     -3.0769 meV
     lambda(   2 )=       0.000000   gamma=       0.000000 meV   omega=     -2.8895 meV
     lambda(   3 )=       0.141326   gamma=       0.003799 meV   omega=      5.4074 meV
     lambda( tot )=       0.141326
     -------------------------------------------------------------------


     Number of (k,k+q) pairs on the Fermi surface:      216 out of      216


     ismear =     1 iq =      40 coord.:   0.16667  0.00000  0.50000 wt:   0.00463
     -------------------------------------------------------------------
     lambda(   1 )=      -1.747054   gamma=      -0.012289 meV   omega=      2.7660 meV
     lambda(   2 )=      -2.770220   gamma=      -0.028317 meV   omega=      3.3343 meV
     lambda(   3 )=      -0.378945   gamma=      -0.011484 meV   omega=      5.7413 meV
     lambda( tot )=      -4.896219
     -------------------------------------------------------------------


     Number of (k,k+q) pairs on the Fermi surface:      216 out of      216


     ismear =     1 iq =      41 coord.:   0.16667  0.00000  0.66667 wt:   0.00463
     -------------------------------------------------------------------
     lambda(   1 )=       0.624959   gamma=       0.006967 meV   omega=      3.4821 meV
     lambda(   2 )=       2.839633   gamma=       0.035036 meV   omega=      3.6633 meV
     lambda(   3 )=       0.217442   gamma=       0.003779 meV   omega=      4.3479 meV
     lambda( tot )=       3.682034
     -------------------------------------------------------------------


     Number of (k,k+q) pairs on the Fermi surface:      216 out of      216


     ismear =     1 iq =      42 coord.:   0.16667  0.00000  0.83333 wt:   0.00463
     -------------------------------------------------------------------
     lambda(   1 )=       0.000000   gamma=       0.000000 meV   omega=     -2.7557 meV
     lambda(   2 )=       3.083529   gamma=       0.015688 meV   omega=      2.3523 meV
     lambda(   3 )=      -0.749410   gamma=      -0.006281 meV   omega=      3.0193 meV
     lambda( tot )=       2.334119
     -------------------------------------------------------------------


     Number of (k,k+q) pairs on the Fermi surface:      216 out of      216


     ismear =     1 iq =      43 coord.:   0.16667  0.16667  0.00000 wt:   0.00463
     -------------------------------------------------------------------
     lambda(   1 )=       0.000000   gamma=       0.000000 meV   omega=     -3.2687 meV
     lambda(   2 )=       0.000000   gamma=       0.000000 meV   omega=     -3.2687 meV
     lambda(   3 )=       1.449680   gamma=       0.021048 meV   omega=      3.9739 meV
     lambda( tot )=       1.449680
     -------------------------------------------------------------------


     Number of (k,k+q) pairs on the Fermi surface:      216 out of      216


     ismear =     1 iq =      44 coord.:   0.16667  0.16667  0.16667 wt:   0.00463
     -------------------------------------------------------------------
     lambda(   1 )=       0.000000   gamma=       0.000000 meV   omega=     -1.2052 meV
     lambda(   2 )=       0.000000   gamma=       0.000000 meV   omega=     -1.2052 meV
     lambda(   3 )=       0.000000   gamma=       0.000000 meV   omega=      0.4924 meV
     lambda( tot )=       0.000000
     -------------------------------------------------------------------


     Number of (k,k+q) pairs on the Fermi surface:      216 out of      216


     ismear =     1 iq =      45 coord.:   0.16667  0.16667  0.33333 wt:   0.00463
     -------------------------------------------------------------------
     lambda(   1 )=       0.000000   gamma=       0.000000 meV   omega=     -2.7557 meV
     lambda(   2 )=       3.826295   gamma=       0.019466 meV   omega=      2.3523 meV
     lambda(   3 )=      -0.016728   gamma=      -0.000140 meV   omega=      3.0193 meV
     lambda( tot )=       3.809566
     -------------------------------------------------------------------


     Number of (k,k+q) pairs on the Fermi surface:      216 out of      216


     ismear =     1 iq =      46 coord.:   0.16667  0.16667  0.50000 wt:   0.00463
     -------------------------------------------------------------------
     lambda(   1 )=      -0.042145   gamma=      -0.000470 meV   omega=      3.4821 meV
     lambda(   2 )=       1.580248   gamma=       0.019497 meV   omega=      3.6633 meV
     lambda(   3 )=      -0.541382   gamma=      -0.009410 meV   omega=      4.3479 meV
     lambda( tot )=       0.996721
     -------------------------------------------------------------------


     Number of (k,k+q) pairs on the Fermi surface:      216 out of      216


     ismear =     1 iq =      47 coord.:   0.16667  0.16667  0.66667 wt:   0.00463
     -------------------------------------------------------------------
     lambda(   1 )=      -1.880069   gamma=      -0.013225 meV   omega=      2.7660 meV
     lambda(   2 )=      -2.083679   gamma=      -0.021299 meV   omega=      3.3343 meV
     lambda(   3 )=      -0.546226   gamma=      -0.016554 meV   omega=      5.7413 meV
     lambda( tot )=      -4.509973
     -------------------------------------------------------------------


     Number of (k,k+q) pairs on the Fermi surface:      216 out of      216


     ismear =     1 iq =      48 coord.:   0.16667  0.16667  0.83333 wt:   0.00463
     -------------------------------------------------------------------
     lambda(   1 )=       0.000000   gamma=       0.000000 meV   omega=     -3.0769 meV
     lambda(   2 )=       0.000000   gamma=       0.000000 meV   omega=     -2.8895 meV
     lambda(   3 )=      -0.186222   gamma=      -0.005006 meV   omega=      5.4074 meV
     lambda( tot )=      -0.186222
     -------------------------------------------------------------------


     Number of (k,k+q) pairs on the Fermi surface:      216 out of      216


     ismear =     1 iq =      49 coord.:   0.16667  0.33333  0.00000 wt:   0.00463
     -------------------------------------------------------------------
     lambda(   1 )=       0.000000   gamma=       0.000000 meV   omega=     -3.0769 meV
     lambda(   2 )=       0.000000   gamma=       0.000000 meV   omega=     -2.8895 meV
     lambda(   3 )=      -0.190545   gamma=      -0.005122 meV   omega=      5.4074 meV
     lambda( tot )=      -0.190545
     -------------------------------------------------------------------


     Number of (k,k+q) pairs on the Fermi surface:      216 out of      216


     ismear =     1 iq =      50 coord.:   0.16667  0.33333  0.16667 wt:   0.00463
     -------------------------------------------------------------------
     lambda(   1 )=       0.000000   gamma=       0.000000 meV   omega=     -2.7557 meV
     lambda(   2 )=       3.151635   gamma=       0.016034 meV   omega=      2.3523 meV
     lambda(   3 )=      -0.568466   gamma=      -0.004765 meV   omega=      3.0193 meV
     lambda( tot )=       2.583169
     -------------------------------------------------------------------


     Number of (k,k+q) pairs on the Fermi surface:      216 out of      216


     ismear =     1 iq =      51 coord.:   0.16667  0.33333  0.33333 wt:   0.00463
     -------------------------------------------------------------------
     lambda(   1 )=       0.000000   gamma=       0.000000 meV   omega=     -3.0769 meV
     lambda(   2 )=       0.000000   gamma=       0.000000 meV   omega=     -2.8895 meV
     lambda(   3 )=       0.188935   gamma=       0.005079 meV   omega=      5.4074 meV
     lambda( tot )=       0.188935
     -------------------------------------------------------------------


     Number of (k,k+q) pairs on the Fermi surface:      216 out of      216


     ismear =     1 iq =      52 coord.:   0.16667  0.33333  0.50000 wt:   0.00463
     -------------------------------------------------------------------
     lambda(   1 )=       0.000000   gamma=       0.000000 meV   omega=     -2.1690 meV
     lambda(   2 )=      -7.917353   gamma=      -0.025999 meV   omega=      1.8899 meV
     lambda(   3 )=      -0.167937   gamma=      -0.006436 meV   omega=      6.4564 meV
     lambda( tot )=      -8.085290
     -------------------------------------------------------------------


     Number of (k,k+q) pairs on the Fermi surface:      216 out of      216


     ismear =     1 iq =      53 coord.:   0.16667  0.33333  0.66667 wt:   0.00463
     -------------------------------------------------------------------
     lambda(   1 )=    -232.768128   gamma=      -0.168408 meV   omega=      0.8871 meV
     lambda(   2 )=      -0.588320   gamma=      -0.017099 meV   omega=      5.6224 meV
     lambda(   3 )=       0.256030   gamma=       0.007748 meV   omega=      5.7371 meV
     lambda( tot )=    -233.100419
     -------------------------------------------------------------------


     Number of (k,k+q) pairs on the Fermi surface:      216 out of      216


     ismear =     1 iq =      54 coord.:   0.16667  0.33333  0.83333 wt:   0.00463
     -------------------------------------------------------------------
     lambda(   1 )=       0.000000   gamma=       0.000000 meV   omega=     -2.1690 meV
     lambda(   2 )=     -23.297811   gamma=      -0.076504 meV   omega=      1.8899 meV
     lambda(   3 )=      -0.315780   gamma=      -0.012102 meV   omega=      6.4564 meV
     lambda( tot )=     -23.613591
     -------------------------------------------------------------------


     Number of (k,k+q) pairs on the Fermi surface:      216 out of      216


     ismear =     1 iq =      55 coord.:   0.16667  0.50000  0.00000 wt:   0.00463
     -------------------------------------------------------------------
     lambda(   1 )=      -2.435302   gamma=      -0.017131 meV   omega=      2.7660 meV
     lambda(   2 )=      -2.591480   gamma=      -0.026489 meV   omega=      3.3343 meV
     lambda(   3 )=      -0.516529   gamma=      -0.015654 meV   omega=      5.7413 meV
     lambda( tot )=      -5.543310
     -------------------------------------------------------------------


     Number of (k,k+q) pairs on the Fermi surface:      216 out of      216


     ismear =     1 iq =      56 coord.:   0.16667  0.50000  0.16667 wt:   0.00463
     -------------------------------------------------------------------
     lambda(   1 )=       0.747300   gamma=       0.008331 meV   omega=      3.4821 meV
     lambda(   2 )=       2.350851   gamma=       0.029005 meV   omega=      3.6633 meV
     lambda(   3 )=      -0.097626   gamma=      -0.001697 meV   omega=      4.3479 meV
     lambda( tot )=       3.000525
     -------------------------------------------------------------------


     Number of (k,k+q) pairs on the Fermi surface:      216 out of      216


     ismear =     1 iq =      57 coord.:   0.16667  0.50000  0.33333 wt:   0.00463
     -------------------------------------------------------------------
     lambda(   1 )=       0.000000   gamma=       0.000000 meV   omega=     -2.1690 meV
     lambda(   2 )=     -13.224478   gamma=      -0.043426 meV   omega=      1.8899 meV
     lambda(   3 )=      -0.273551   gamma=      -0.010484 meV   omega=      6.4564 meV
     lambda( tot )=     -13.498028
     -------------------------------------------------------------------


     Number of (k,k+q) pairs on the Fermi surface:      216 out of      216


     ismear =     1 iq =      58 coord.:   0.16667  0.50000  0.50000 wt:   0.00463
     -------------------------------------------------------------------
     lambda(   1 )=       0.000000   gamma=       0.000000 meV   omega=     -3.0271 meV
     lambda(   2 )=       0.000000   gamma=       0.000000 meV   omega=     -2.7907 meV
     lambda(   3 )=       0.311406   gamma=       0.017433 meV   omega=      7.8031 meV
     lambda( tot )=       0.311406
     -------------------------------------------------------------------


     Number of (k,k+q) pairs on the Fermi surface:      216 out of      216


     ismear =     1 iq =      59 coord.:   0.16667  0.50000  0.66667 wt:   0.00463
     -------------------------------------------------------------------
     lambda(   1 )=       0.000000   gamma=       0.000000 meV   omega=     -2.8475 meV
     lambda(   2 )=      -2.596552   gamma=      -0.027803 meV   omega=      3.4127 meV
     lambda(   3 )=      -0.563406   gamma=      -0.029980 meV   omega=      7.6077 meV
     lambda( tot )=      -3.159958
     -------------------------------------------------------------------


     Number of (k,k+q) pairs on the Fermi surface:      216 out of      216


     ismear =     1 iq =      60 coord.:   0.16667  0.50000  0.83333 wt:   0.00463
     -------------------------------------------------------------------
     lambda(   1 )=    -218.485496   gamma=      -0.158074 meV   omega=      0.8871 meV
     lambda(   2 )=      -0.635856   gamma=      -0.018480 meV   omega=      5.6224 meV
     lambda(   3 )=       0.339668   gamma=       0.010279 meV   omega=      5.7371 meV
     lambda( tot )=    -218.781685
     -------------------------------------------------------------------


     Number of (k,k+q) pairs on the Fermi surface:      216 out of      216


     ismear =     1 iq =      61 coord.:   0.16667  0.66667  0.00000 wt:   0.00463
     -------------------------------------------------------------------
     lambda(   1 )=       0.455372   gamma=       0.005076 meV   omega=      3.4821 meV
     lambda(   2 )=       1.743903   gamma=       0.021517 meV   omega=      3.6633 meV
     lambda(   3 )=      -0.565031   gamma=      -0.009821 meV   omega=      4.3479 meV
     lambda( tot )=       1.634245
     -------------------------------------------------------------------


     Number of (k,k+q) pairs on the Fermi surface:      216 out of      216


     ismear =     1 iq =      62 coord.:   0.16667  0.66667  0.16667 wt:   0.00463
     -------------------------------------------------------------------
     lambda(   1 )=      -1.660498   gamma=      -0.011681 meV   omega=      2.7660 meV
     lambda(   2 )=      -2.270544   gamma=      -0.023209 meV   omega=      3.3343 meV
     lambda(   3 )=      -0.402228   gamma=      -0.012190 meV   omega=      5.7413 meV
     lambda( tot )=      -4.333271
     -------------------------------------------------------------------


     Number of (k,k+q) pairs on the Fermi surface:      216 out of      216


     ismear =     1 iq =      63 coord.:   0.16667  0.66667  0.33333 wt:   0.00463
     -------------------------------------------------------------------
     lambda(   1 )=    -212.013995   gamma=      -0.153392 meV   omega=      0.8871 meV
     lambda(   2 )=      -0.744679   gamma=      -0.021643 meV   omega=      5.6224 meV
     lambda(   3 )=       0.238647   gamma=       0.007222 meV   omega=      5.7371 meV
     lambda( tot )=    -212.520028
     -------------------------------------------------------------------


     Number of (k,k+q) pairs on the Fermi surface:      216 out of      216


     ismear =     1 iq =      64 coord.:   0.16667  0.66667  0.50000 wt:   0.00463
     -------------------------------------------------------------------
     lambda(   1 )=       0.000000   gamma=       0.000000 meV   omega=     -2.8475 meV
     lambda(   2 )=      -3.528131   gamma=      -0.037778 meV   omega=      3.4127 meV
     lambda(   3 )=      -0.471191   gamma=      -0.025073 meV   omega=      7.6077 meV
     lambda( tot )=      -3.999323
     -------------------------------------------------------------------


     Number of (k,k+q) pairs on the Fermi surface:      216 out of      216


     ismear =     1 iq =      65 coord.:   0.16667  0.66667  0.66667 wt:   0.00463
     -------------------------------------------------------------------
     lambda(   1 )=       0.000000   gamma=       0.000000 meV   omega=     -3.0271 meV
     lambda(   2 )=       0.000000   gamma=       0.000000 meV   omega=     -2.7907 meV
     lambda(   3 )=       0.260482   gamma=       0.014582 meV   omega=      7.8031 meV
     lambda( tot )=       0.260482
     -------------------------------------------------------------------


     Number of (k,k+q) pairs on the Fermi surface:      216 out of      216


     ismear =     1 iq =      66 coord.:   0.16667  0.66667  0.83333 wt:   0.00463
     -------------------------------------------------------------------
     lambda(   1 )=       0.000000   gamma=       0.000000 meV   omega=     -2.1690 meV
     lambda(   2 )=     -11.717234   gamma=      -0.038476 meV   omega=      1.8899 meV
     lambda(   3 )=      -0.179788   gamma=      -0.006891 meV   omega=      6.4564 meV
     lambda( tot )=     -11.897022
     -------------------------------------------------------------------


     Number of (k,k+q) pairs on the Fermi surface:      216 out of      216


     ismear =     1 iq =      67 coord.:   0.16667  0.83333  0.00000 wt:   0.00463
     -------------------------------------------------------------------
     lambda(   1 )=       0.000000   gamma=       0.000000 meV   omega=     -2.7557 meV
     lambda(   2 )=       5.111448   gamma=       0.026005 meV   omega=      2.3523 meV
     lambda(   3 )=      -0.302793   gamma=      -0.002538 meV   omega=      3.0193 meV
     lambda( tot )=       4.808655
     -------------------------------------------------------------------


     Number of (k,k+q) pairs on the Fermi surface:      216 out of      216


     ismear =     1 iq =      68 coord.:   0.16667  0.83333  0.16667 wt:   0.00463
     -------------------------------------------------------------------
     lambda(   1 )=       0.000000   gamma=       0.000000 meV   omega=     -3.0769 meV
     lambda(   2 )=       0.000000   gamma=       0.000000 meV   omega=     -2.8895 meV
     lambda(   3 )=       0.051518   gamma=       0.001385 meV   omega=      5.4074 meV
     lambda( tot )=       0.051518
     -------------------------------------------------------------------


     Number of (k,k+q) pairs on the Fermi surface:      216 out of      216


     ismear =     1 iq =      69 coord.:   0.16667  0.83333  0.33333 wt:   0.00463
     -------------------------------------------------------------------
     lambda(   1 )=       0.000000   gamma=       0.000000 meV   omega=     -2.1690 meV
     lambda(   2 )=     -16.023460   gamma=      -0.052617 meV   omega=      1.8899 meV
     lambda(   3 )=      -0.080363   gamma=      -0.003080 meV   omega=      6.4564 meV
     lambda( tot )=     -16.103823
     -------------------------------------------------------------------


     Number of (k,k+q) pairs on the Fermi surface:      216 out of      216


     ismear =     1 iq =      70 coord.:   0.16667  0.83333  0.50000 wt:   0.00463
     -------------------------------------------------------------------
     lambda(   1 )=    -217.008099   gamma=      -0.157005 meV   omega=      0.8871 meV
     lambda(   2 )=      -0.733053   gamma=      -0.021305 meV   omega=      5.6224 meV
     lambda(   3 )=       0.217302   gamma=       0.006576 meV   omega=      5.7371 meV
     lambda( tot )=    -217.523849
     -------------------------------------------------------------------


     Number of (k,k+q) pairs on the Fermi surface:      216 out of      216


     ismear =     1 iq =      71 coord.:   0.16667  0.83333  0.66667 wt:   0.00463
     -------------------------------------------------------------------
     lambda(   1 )=       0.000000   gamma=       0.000000 meV   omega=     -2.1690 meV
     lambda(   2 )=     -18.760361   gamma=      -0.061604 meV   omega=      1.8899 meV
     lambda(   3 )=      -0.259793   gamma=      -0.009957 meV   omega=      6.4564 meV
     lambda( tot )=     -19.020153
     -------------------------------------------------------------------


     Number of (k,k+q) pairs on the Fermi surface:      216 out of      216


     ismear =     1 iq =      72 coord.:   0.16667  0.83333  0.83333 wt:   0.00463
     -------------------------------------------------------------------
     lambda(   1 )=       0.000000   gamma=       0.000000 meV   omega=     -3.0769 meV
     lambda(   2 )=       0.000000   gamma=       0.000000 meV   omega=     -2.8895 meV
     lambda(   3 )=      -0.050620   gamma=      -0.001361 meV   omega=      5.4074 meV
     lambda( tot )=      -0.050620
     -------------------------------------------------------------------


     Number of (k,k+q) pairs on the Fermi surface:      216 out of      216


     ismear =     1 iq =      73 coord.:   0.33333  0.00000  0.00000 wt:   0.00463
     -------------------------------------------------------------------
     lambda(   1 )=       0.273900   gamma=       0.001454 meV   omega=      2.4032 meV
     lambda(   2 )=       0.277510   gamma=       0.001474 meV   omega=      2.4032 meV
     lambda(   3 )=       0.877238   gamma=       0.008914 meV   omega=      3.3246 meV
     lambda( tot )=       1.428648
     -------------------------------------------------------------------


     Number of (k,k+q) pairs on the Fermi surface:      216 out of      216


     ismear =     1 iq =      74 coord.:   0.33333  0.00000  0.16667 wt:   0.00463
     -------------------------------------------------------------------
     lambda(   1 )=       0.000000   gamma=       0.000000 meV   omega=     -3.0769 meV
     lambda(   2 )=       0.000000   gamma=       0.000000 meV   omega=     -2.8895 meV
     lambda(   3 )=      -0.034502   gamma=      -0.000928 meV   omega=      5.4074 meV
     lambda( tot )=      -0.034502
     -------------------------------------------------------------------


     Number of (k,k+q) pairs on the Fermi surface:      216 out of      216


     ismear =     1 iq =      75 coord.:   0.33333  0.00000  0.33333 wt:   0.00463
     -------------------------------------------------------------------
     lambda(   1 )=       0.000000   gamma=       0.000000 meV   omega=     -4.5024 meV
     lambda(   2 )=       0.000000   gamma=       0.000000 meV   omega=     -4.5024 meV
     lambda(   3 )=       0.199505   gamma=       0.009618 meV   omega=      7.2413 meV
     lambda( tot )=       0.199505
     -------------------------------------------------------------------


     Number of (k,k+q) pairs on the Fermi surface:      216 out of      216


     ismear =     1 iq =      76 coord.:   0.33333  0.00000  0.50000 wt:   0.00463
     -------------------------------------------------------------------
     lambda(   1 )=       0.000000   gamma=       0.000000 meV   omega=     -3.0271 meV
     lambda(   2 )=       0.000000   gamma=       0.000000 meV   omega=     -2.7907 meV
     lambda(   3 )=       0.296343   gamma=       0.016590 meV   omega=      7.8031 meV
     lambda( tot )=       0.296343
     -------------------------------------------------------------------


     Number of (k,k+q) pairs on the Fermi surface:      216 out of      216


     ismear =     1 iq =      77 coord.:   0.33333  0.00000  0.66667 wt:   0.00463
     -------------------------------------------------------------------
     lambda(   1 )=       0.552627   gamma=       0.004718 meV   omega=      3.0471 meV
     lambda(   2 )=       0.133912   gamma=       0.001648 meV   omega=      3.6582 meV
     lambda(   3 )=       0.131506   gamma=       0.005156 meV   omega=      6.5304 meV
     lambda( tot )=       0.818046
     -------------------------------------------------------------------


     Number of (k,k+q) pairs on the Fermi surface:      216 out of      216


     ismear =     1 iq =      78 coord.:   0.33333  0.00000  0.83333 wt:   0.00463
     -------------------------------------------------------------------
     lambda(   1 )=       0.709681   gamma=       0.007912 meV   omega=      3.4821 meV
     lambda(   2 )=       2.132156   gamma=       0.026307 meV   omega=      3.6633 meV
     lambda(   3 )=      -0.398101   gamma=      -0.006919 meV   omega=      4.3479 meV
     lambda( tot )=       2.443737
     -------------------------------------------------------------------


     Number of (k,k+q) pairs on the Fermi surface:      216 out of      216


     ismear =     1 iq =      79 coord.:   0.33333  0.16667  0.00000 wt:   0.00463
     -------------------------------------------------------------------
     lambda(   1 )=       0.000000   gamma=       0.000000 meV   omega=     -3.0769 meV
     lambda(   2 )=       0.000000   gamma=       0.000000 meV   omega=     -2.8895 meV
     lambda(   3 )=       0.132940   gamma=       0.003574 meV   omega=      5.4074 meV
     lambda( tot )=       0.132940
     -------------------------------------------------------------------


     Number of (k,k+q) pairs on the Fermi surface:      216 out of      216


     ismear =     1 iq =      80 coord.:   0.33333  0.16667  0.16667 wt:   0.00463
     -------------------------------------------------------------------
     lambda(   1 )=       0.000000   gamma=       0.000000 meV   omega=     -2.7557 meV
     lambda(   2 )=       2.319354   gamma=       0.011800 meV   omega=      2.3523 meV
     lambda(   3 )=      -0.505579   gamma=      -0.004238 meV   omega=      3.0193 meV
     lambda( tot )=       1.813775
     -------------------------------------------------------------------


     Number of (k,k+q) pairs on the Fermi surface:      216 out of      216


     ismear =     1 iq =      81 coord.:   0.33333  0.16667  0.33333 wt:   0.00463
     -------------------------------------------------------------------
     lambda(   1 )=       0.000000   gamma=       0.000000 meV   omega=     -3.0769 meV
     lambda(   2 )=       0.000000   gamma=       0.000000 meV   omega=     -2.8895 meV
     lambda(   3 )=       0.057557   gamma=       0.001547 meV   omega=      5.4074 meV
     lambda( tot )=       0.057557
     -------------------------------------------------------------------


     Number of (k,k+q) pairs on the Fermi surface:      216 out of      216


     ismear =     1 iq =      82 coord.:   0.33333  0.16667  0.50000 wt:   0.00463
     -------------------------------------------------------------------
     lambda(   1 )=       0.000000   gamma=       0.000000 meV   omega=     -2.1690 meV
     lambda(   2 )=     -16.468642   gamma=      -0.054079 meV   omega=      1.8899 meV
     lambda(   3 )=      -0.305107   gamma=      -0.011693 meV   omega=      6.4564 meV
     lambda( tot )=     -16.773748
     -------------------------------------------------------------------


     Number of (k,k+q) pairs on the Fermi surface:      216 out of      216


     ismear =     1 iq =      83 coord.:   0.33333  0.16667  0.66667 wt:   0.00463
     -------------------------------------------------------------------
     lambda(   1 )=    -246.193377   gamma=      -0.178121 meV   omega=      0.8871 meV
     lambda(   2 )=      -0.699733   gamma=      -0.020337 meV   omega=      5.6224 meV
     lambda(   3 )=       0.302548   gamma=       0.009156 meV   omega=      5.7371 meV
     lambda( tot )=    -246.590563
     -------------------------------------------------------------------


     Number of (k,k+q) pairs on the Fermi surface:      216 out of      216


     ismear =     1 iq =      84 coord.:   0.33333  0.16667  0.83333 wt:   0.00463
     -------------------------------------------------------------------
     lambda(   1 )=       0.000000   gamma=       0.000000 meV   omega=     -2.1690 meV
     lambda(   2 )=      -9.801449   gamma=      -0.032185 meV   omega=      1.8899 meV
     lambda(   3 )=      -0.309475   gamma=      -0.011861 meV   omega=      6.4564 meV
     lambda( tot )=     -10.110923
     -------------------------------------------------------------------


     Number of (k,k+q) pairs on the Fermi surface:      216 out of      216


     ismear =     1 iq =      85 coord.:   0.33333  0.33333  0.00000 wt:   0.00463
     -------------------------------------------------------------------
     lambda(   1 )=       0.000000   gamma=       0.000000 meV   omega=     -4.5024 meV
     lambda(   2 )=       0.000000   gamma=       0.000000 meV   omega=     -4.5024 meV
     lambda(   3 )=       0.195976   gamma=       0.009448 meV   omega=      7.2413 meV
     lambda( tot )=       0.195976
     -------------------------------------------------------------------


     Number of (k,k+q) pairs on the Fermi surface:      216 out of      216


     ismear =     1 iq =      86 coord.:   0.33333  0.33333  0.16667 wt:   0.00463
     -------------------------------------------------------------------
     lambda(   1 )=       0.000000   gamma=       0.000000 meV   omega=     -3.0769 meV
     lambda(   2 )=       0.000000   gamma=       0.000000 meV   omega=     -2.8895 meV
     lambda(   3 )=       0.130353   gamma=       0.003504 meV   omega=      5.4074 meV
     lambda( tot )=       0.130353
     -------------------------------------------------------------------


     Number of (k,k+q) pairs on the Fermi surface:      216 out of      216


     ismear =     1 iq =      87 coord.:   0.33333  0.33333  0.33333 wt:   0.00463
     -------------------------------------------------------------------
     lambda(   1 )=       0.295539   gamma=       0.001569 meV   omega=      2.4032 meV
     lambda(   2 )=       0.286438   gamma=       0.001521 meV   omega=      2.4032 meV
     lambda(   3 )=       0.887903   gamma=       0.009023 meV   omega=      3.3246 meV
     lambda( tot )=       1.469879
     -------------------------------------------------------------------


     Number of (k,k+q) pairs on the Fermi surface:      216 out of      216


     ismear =     1 iq =      88 coord.:   0.33333  0.33333  0.50000 wt:   0.00463
     -------------------------------------------------------------------
     lambda(   1 )=       0.006784   gamma=       0.000076 meV   omega=      3.4821 meV
     lambda(   2 )=       1.873709   gamma=       0.023118 meV   omega=      3.6633 meV
     lambda(   3 )=      -0.176047   gamma=      -0.003060 meV   omega=      4.3479 meV
     lambda( tot )=       1.704447
     -------------------------------------------------------------------


     Number of (k,k+q) pairs on the Fermi surface:      216 out of      216


     ismear =     1 iq =      89 coord.:   0.33333  0.33333  0.66667 wt:   0.00463
     -------------------------------------------------------------------
     lambda(   1 )=       0.529190   gamma=       0.004518 meV   omega=      3.0471 meV
     lambda(   2 )=       0.133643   gamma=       0.001644 meV   omega=      3.6582 meV
     lambda(   3 )=       0.128181   gamma=       0.005026 meV   omega=      6.5304 meV
     lambda( tot )=       0.791014
     -------------------------------------------------------------------


     Number of (k,k+q) pairs on the Fermi surface:      216 out of      216


     ismear =     1 iq =      90 coord.:   0.33333  0.33333  0.83333 wt:   0.00463
     -------------------------------------------------------------------
     lambda(   1 )=       0.000000   gamma=       0.000000 meV   omega=     -3.0271 meV
     lambda(   2 )=       0.000000   gamma=       0.000000 meV   omega=     -2.7907 meV
     lambda(   3 )=       0.274942   gamma=       0.015391 meV   omega=      7.8031 meV
     lambda( tot )=       0.274942
     -------------------------------------------------------------------


     Number of (k,k+q) pairs on the Fermi surface:      216 out of      216


     ismear =     1 iq =      91 coord.:   0.33333  0.50000  0.00000 wt:   0.00463
     -------------------------------------------------------------------
     lambda(   1 )=       0.000000   gamma=       0.000000 meV   omega=     -3.0271 meV
     lambda(   2 )=       0.000000   gamma=       0.000000 meV   omega=     -2.7907 meV
     lambda(   3 )=       0.258792   gamma=       0.014487 meV   omega=      7.8031 meV
     lambda( tot )=       0.258792
     -------------------------------------------------------------------


     Number of (k,k+q) pairs on the Fermi surface:      216 out of      216


     ismear =     1 iq =      92 coord.:   0.33333  0.50000  0.16667 wt:   0.00463
     -------------------------------------------------------------------
     lambda(   1 )=       0.000000   gamma=       0.000000 meV   omega=     -2.1690 meV
     lambda(   2 )=     -14.965487   gamma=      -0.049143 meV   omega=      1.8899 meV
     lambda(   3 )=      -0.264149   gamma=      -0.010124 meV   omega=      6.4564 meV
     lambda( tot )=     -15.229636
     -------------------------------------------------------------------


     Number of (k,k+q) pairs on the Fermi surface:      216 out of      216


     ismear =     1 iq =      93 coord.:   0.33333  0.50000  0.33333 wt:   0.00463
     -------------------------------------------------------------------
     lambda(   1 )=       0.388159   gamma=       0.004327 meV   omega=      3.4821 meV
     lambda(   2 )=       2.002865   gamma=       0.024712 meV   omega=      3.6633 meV
     lambda(   3 )=      -0.539575   gamma=      -0.009378 meV   omega=      4.3479 meV
     lambda( tot )=       1.851450
     -------------------------------------------------------------------


     Number of (k,k+q) pairs on the Fermi surface:      216 out of      216


     ismear =     1 iq =      94 coord.:   0.33333  0.50000  0.50000 wt:   0.00463
     -------------------------------------------------------------------
     lambda(   1 )=      -2.518762   gamma=      -0.017718 meV   omega=      2.7660 meV
     lambda(   2 )=      -1.658006   gamma=      -0.016948 meV   omega=      3.3343 meV
     lambda(   3 )=      -0.346792   gamma=      -0.010510 meV   omega=      5.7413 meV
     lambda( tot )=      -4.523560
     -------------------------------------------------------------------


     Number of (k,k+q) pairs on the Fermi surface:      216 out of      216


     ismear =     1 iq =      95 coord.:   0.33333  0.50000  0.66667 wt:   0.00463
     -------------------------------------------------------------------
     lambda(   1 )=    -211.156673   gamma=      -0.152772 meV   omega=      0.8871 meV
     lambda(   2 )=      -0.706310   gamma=      -0.020528 meV   omega=      5.6224 meV
     lambda(   3 )=       0.264510   gamma=       0.008005 meV   omega=      5.7371 meV
     lambda( tot )=    -211.598472
     -------------------------------------------------------------------


     Number of (k,k+q) pairs on the Fermi surface:      216 out of      216


     ismear =     1 iq =      96 coord.:   0.33333  0.50000  0.83333 wt:   0.00463
     -------------------------------------------------------------------
     lambda(   1 )=       0.000000   gamma=       0.000000 meV   omega=     -2.8475 meV
     lambda(   2 )=      -6.123411   gamma=      -0.065568 meV   omega=      3.4127 meV
     lambda(   3 )=      -0.567783   gamma=      -0.030213 meV   omega=      7.6077 meV
     lambda( tot )=      -6.691194
     -------------------------------------------------------------------


     Number of (k,k+q) pairs on the Fermi surface:      216 out of      216


     ismear =     1 iq =      97 coord.:   0.33333  0.66667  0.00000 wt:   0.00463
     -------------------------------------------------------------------
     lambda(   1 )=       0.528993   gamma=       0.004516 meV   omega=      3.0471 meV
     lambda(   2 )=       0.133241   gamma=       0.001639 meV   omega=      3.6582 meV
     lambda(   3 )=       0.128190   gamma=       0.005026 meV   omega=      6.5304 meV
     lambda( tot )=       0.790424
     -------------------------------------------------------------------


     Number of (k,k+q) pairs on the Fermi surface:      216 out of      216


     ismear =     1 iq =      98 coord.:   0.33333  0.66667  0.16667 wt:   0.00463
     -------------------------------------------------------------------
     lambda(   1 )=    -237.777437   gamma=      -0.172032 meV   omega=      0.8871 meV
     lambda(   2 )=      -0.735890   gamma=      -0.021388 meV   omega=      5.6224 meV
     lambda(   3 )=       0.279076   gamma=       0.008445 meV   omega=      5.7371 meV
     lambda( tot )=    -238.234252
     -------------------------------------------------------------------


     Number of (k,k+q) pairs on the Fermi surface:      216 out of      216


     ismear =     1 iq =      99 coord.:   0.33333  0.66667  0.33333 wt:   0.00463
     -------------------------------------------------------------------
     lambda(   1 )=       0.552644   gamma=       0.004718 meV   omega=      3.0471 meV
     lambda(   2 )=       0.133469   gamma=       0.001642 meV   omega=      3.6582 meV
     lambda(   3 )=       0.131481   gamma=       0.005155 meV   omega=      6.5304 meV
     lambda( tot )=       0.817593
     -------------------------------------------------------------------


     Number of (k,k+q) pairs on the Fermi surface:      216 out of      216


     ismear =     1 iq =     100 coord.:   0.33333  0.66667  0.50000 wt:   0.00463
     -------------------------------------------------------------------
     lambda(   1 )=    -228.464788   gamma=      -0.165294 meV   omega=      0.8871 meV
     lambda(   2 )=      -0.566469   gamma=      -0.016464 meV   omega=      5.6224 meV
     lambda(   3 )=       0.198353   gamma=       0.006003 meV   omega=      5.7371 meV
     lambda( tot )=    -228.832905
     -------------------------------------------------------------------


     Number of (k,k+q) pairs on the Fermi surface:      216 out of      216


     ismear =     1 iq =     101 coord.:   0.33333  0.66667  0.66667 wt:   0.00463
     -------------------------------------------------------------------
     lambda(   1 )=       0.541272   gamma=       0.004621 meV   omega=      3.0471 meV
     lambda(   2 )=       0.141256   gamma=       0.001738 meV   omega=      3.6582 meV
     lambda(   3 )=       0.137483   gamma=       0.005391 meV   omega=      6.5304 meV
     lambda( tot )=       0.820011
     -------------------------------------------------------------------


     Number of (k,k+q) pairs on the Fermi surface:      216 out of      216


     ismear =     1 iq =     102 coord.:   0.33333  0.66667  0.83333 wt:   0.00463
     -------------------------------------------------------------------
     lambda(   1 )=    -185.186093   gamma=      -0.133982 meV   omega=      0.8871 meV
     lambda(   2 )=      -0.716580   gamma=      -0.020826 meV   omega=      5.6224 meV
     lambda(   3 )=       0.227626   gamma=       0.006888 meV   omega=      5.7371 meV
     lambda( tot )=    -185.675048
     -------------------------------------------------------------------


     Number of (k,k+q) pairs on the Fermi surface:      216 out of      216


[...]
      203        7      3.9744    820.2832   1678.1420      1.4549     -0.3127
      204        7      5.4112    752.8306    653.3561      1.0539     -0.0511
      205        7      5.5412    838.3071    785.6861      1.1041     -0.0942
      206        7      3.9749    815.5973   1664.8366      1.4482     -0.3095
      207        7      2.9124     -6.2374   2938.1021      6.2321     -0.8395
      208        7      3.9744    811.5777   1710.4979      1.4949     -0.3310
      209        7      5.5419    854.2045    763.1669      1.0913     -0.0837
      210        7      6.8267    519.7295    193.0390      0.9736      0.0271
      211        7      6.6651    594.3184    309.5257      1.0085     -0.0084
      212        7      5.5409    835.9275    779.6032      1.1008     -0.0916
      213        7      4.6194    896.6403   1125.5562      1.0040     -0.0040
      214        7      5.4114    751.1061    666.4324      1.0540     -0.0512
      215        7      6.8266    514.5568    189.4553      0.9742      0.0265
      216        7      7.7485    440.8360     25.0030      0.9336      0.0711
  
        1        8      8.2392    282.4874      5.1645      0.9571      0.0449
        2        8      7.7515    441.8516     25.0306      0.9332      0.0716
        3        8      6.6655    767.4907    258.4619      0.9320      0.0730
        4        8      6.0702    633.3237    355.3134      0.9444      0.0589
        5        8      6.6655    758.4970    250.3477      0.9331      0.0717
        6        8      7.7515    443.0532     24.3109      0.9333      0.0714
        7        8      7.7511    444.5755     26.3579      0.9336      0.0711
        8        8      6.6661    587.2909    313.9885      1.0141     -0.0139
        9        8      5.5436    847.6899    774.1906      1.0935     -0.0855
       10        8      4.6226    919.5458   1138.4215      1.0025     -0.0025
       11        8      5.4145    757.1515    682.8263      1.0603     -0.0568
       12        8      6.8345    511.6349    182.5492      0.9727      0.0281
       13        8      6.6655    753.0014    258.3879      0.9374      0.0668
       14        8      5.5438    854.1876    780.7403      1.0992     -0.0903
       15        8      3.3797    288.3066   1124.9892      1.2397     -0.1934
       16        8      2.3329   -217.7155   1466.7354      1.2882     -0.2237
       17        8      3.4484    801.5578   2105.8402      1.8200     -0.4506
       18        8      5.4146    750.5573    666.3884      1.0520     -0.0494
       19        8      6.0704    633.2736    353.5350      0.9439      0.0594
       20        8      4.6232    920.9240   1145.6070      1.0063     -0.0062
       21        8      2.3331   -228.0644   1448.3261      1.2686     -0.2117
       22        8      1.6662     95.7751    537.9498      0.9547      0.0475
       23        8      2.3331   -215.9520   1470.0168      1.2868     -0.2229
       24        8      4.6232    925.2050   1127.1233      0.9971      0.0030
       25        8      6.6655    770.1459    266.6699      0.9338      0.0708
       26        8      5.4146    758.6575    677.6584      1.0595     -0.0561
       27        8      3.4484    839.7877   2158.7018      1.9197     -0.4791
       28        8      2.3329   -232.5924   1453.1849      1.2696     -0.2124
       29        8      3.3797    293.7942   1135.0407      1.2450     -0.1968
       30        8      5.5438    854.6212    773.5691      1.0927     -0.0849
       31        8      7.7511    441.5697     24.3688      0.9330      0.0718
       32        8      6.8345    521.9190    189.5111      0.9699      0.0310
       33        8      5.4145    758.5474    663.7982      1.0529     -0.0502
       34        8      4.6226    921.1217   1138.1145      1.0008     -0.0008
       35        8      5.5436    862.8076    768.2579      1.0913     -0.0837
       36        8      6.6661    591.6784    294.1305      1.0034     -0.0034
       37        8      7.7513    441.4526     25.4933      0.9338      0.0709
       38        8      6.6660    594.0715    302.9947      1.0055     -0.0054
       39        8      5.5441    842.1037    786.2918      1.1042     -0.0944
       40        8      4.6227    912.9646   1145.5246      1.0081     -0.0081
       41        8      5.4143    756.6922    669.2289      1.0564     -0.0534
       42        8      6.8341    514.3142    183.0090      0.9717      0.0291
       43        8      6.6656    598.5749    304.3203      1.0071     -0.0071
       44        8      7.7511    441.7443     24.2874      0.9331      0.0716
       45        8      6.8354    515.7251    180.1368      0.9683      0.0327
       46        8      5.4151    756.4095    658.9207      1.0541     -0.0513
       47        8      4.6222    921.0809   1132.4440      1.0070     -0.0070
       48        8      5.5435    855.3311    776.4023      1.0984     -0.0896
       49        8      5.5433    846.7518    768.0064      1.0935     -0.0855
       50        8      6.8349    513.9970    183.9245      0.9721      0.0288
       51        8      5.5438    857.1407    776.6398      1.0950     -0.0868
       52        8      4.0150    834.9994   1663.6731      1.4673     -0.3185
       53        8      2.9436     41.3062   3000.7492      7.1855     -0.8608
       54        8      4.0141    818.9928   1684.3055      1.4919     -0.3297
       55        8      4.6227    906.3243   1118.8004      1.0029     -0.0029
       56        8      5.4149    758.3558    659.7810      1.0512     -0.0487
       57        8      4.0150    831.4565   1693.9194      1.4964     -0.3317
       58        8      2.3326   -233.1319   1462.0747      1.2778     -0.2174
       59        8      1.3921    -68.2490   1699.0093      1.0336     -0.0325
       60        8      2.9438     37.9111   2986.0157      6.7159     -0.8511
       61        8      5.4153    754.9441    667.9534      1.0581     -0.0549
       62        8      4.6229    910.5741   1138.8344      1.0053     -0.0053
       63        8      2.9432     40.1411   2984.8088      6.5031     -0.8462
       64        8      1.3911    -68.7358   1691.2105      1.0310     -0.0301
       65        8      2.3327   -232.3527   1457.6123      1.2729     -0.2144
       66        8      4.0151    838.0951   1665.5633      1.4613     -0.3157
       67        8      6.8356    519.3570    189.4200      0.9720      0.0288
       68        8      5.5435    842.9380    787.0721      1.1032     -0.0936
       69        8      4.0147    840.4618   1640.3541      1.4531     -0.3118
       70        8      2.9425     36.9612   2979.0583      6.3508     -0.8425
       71        8      4.0145    831.0238   1704.4279      1.5081     -0.3369
       72        8      5.5437    863.0154    776.8574      1.0945     -0.0863
       73        8      6.6655    754.8432    252.9168      0.9346      0.0700
       74        8      5.5437    849.0134    791.4919      1.1049     -0.0950
       75        8      3.3797    296.1682   1133.7832      1.2355     -0.1906
       76        8      2.3331   -215.8623   1441.5584      1.2728     -0.2143
       77        8      3.4484    806.4994   2103.4231      1.8319     -0.4541
       78        8      5.4145    749.8228    659.6601      1.0546     -0.0518
       79        8      5.5436    832.4638    769.4901      1.1000     -0.0909
       80        8      6.8351    513.4552    185.6151      0.9722      0.0286
       81        8      5.5434    849.5714    794.0624      1.1073     -0.0969
       82        8      4.0151    839.7338   1652.8349      1.4641     -0.3170
       83        8      2.9430     31.6465   2968.7337      6.1999     -0.8387
       84        8      4.0140    822.5172   1671.4924      1.4815     -0.3250
       85        8      3.3797    272.3812   1146.9041      1.2481     -0.1988
       86        8      5.5437    833.5109    767.5629      1.0975     -0.0888
       87        8      6.6655    758.1323    254.1057      0.9342      0.0705
       88        8      5.4152    762.3280    661.0260      1.0531     -0.0504
       89        8      3.4484    832.0875   2112.1768      1.8342     -0.4548
       90        8      2.3323   -231.5087   1452.6950      1.2859     -0.2223
       91        8      2.3326   -230.2546   1444.4829      1.2816     -0.2197
       92        8      4.0146    828.0870   1660.6663      1.4724     -0.3208
       93        8      5.4149    752.2048    660.7445      1.0550     -0.0521
       94        8      4.6233    926.2923   1142.5259      1.0002     -0.0002
       95        8      2.9445     25.3771   2998.3182      6.6186     -0.8489
       96        8      1.3926    -51.2989   1676.2892      1.0315     -0.0305
       97        8      3.4484    829.7628   2108.6273      1.8303     -0.4537
       98        8      2.9439     37.0429   2956.4648      6.0266     -0.8341
       99        8      3.4484    809.5153   2100.7314      1.8188     -0.4502
      100        8      2.9443     40.9318   3014.8538      7.4550     -0.8659
      101        8      3.4484    827.2081   2138.9462      1.8713     -0.4656
      102        8      2.9441     24.5634   2981.1075      6.1618     -0.8377
      103        8      5.4151    762.6724    669.4092      1.0571     -0.0541
      104        8      4.0152    839.4828   1650.2960      1.4621     -0.3161
      105        8      2.3325   -212.6502   1449.2414      1.2782     -0.2176
      106        8      1.3905    -61.1142   1690.5220      1.0392     -0.0377
      107        8      2.9435     35.4918   3004.5739      7.1644     -0.8604
      108        8      4.6230    927.8933   1138.6381      0.9990      0.0010
      109        8      6.0704    630.4038    357.2170      0.9444      0.0588
      110        8      4.6233    902.4053   1131.3240      1.0031     -0.0031
      111        8      2.3334   -218.2880   1440.2835      1.2772     -0.2170
      112        8      1.6661     86.3738    541.4420      0.9546      0.0475
      113        8      2.3334   -223.6252   1472.4929      1.3005     -0.2310
      114        8      4.6233    917.9058   1113.7036      1.0013     -0.0013
      115        8      4.6224    910.9969   1125.8242      1.0102     -0.0101
      116        8      5.4150    755.3300    669.9629      1.0554     -0.0525
      117        8      4.0152    830.0662   1669.7901      1.4760     -0.3225
      118        8      2.3327   -218.5274   1436.5608      1.2718     -0.2137
      119        8      1.3916    -65.7439   1697.9044      1.0370     -0.0357
      120        8      2.9438     51.2068   3013.9542      7.6662     -0.8696
      121        8      2.3324   -224.5923   1460.1660      1.2986     -0.2299
      122        8      4.0146    819.0862   1648.2720      1.4731     -0.3212
      123        8      5.4152    750.0327    664.0224      1.0527     -0.0501
      124        8      4.6232    903.8957   1135.6734      1.0053     -0.0053
      125        8      2.9445     39.2757   2957.3523      5.9533     -0.8320
      126        8      1.3926    -66.8354   1701.8723      1.0394     -0.0379
      127        8      1.6668     85.7027    541.5306      0.9548      0.0474
      128        8      2.3325   -225.3043   1451.3650      1.2923     -0.2262
      129        8      4.6230    912.5091   1121.4413      1.0075     -0.0074
      130        8      6.0706    630.3612    356.3064      0.9444      0.0588
      131        8      4.6230    904.8250   1151.7050      1.0063     -0.0062
      132        8      2.3325   -225.3853   1438.3572      1.2687     -0.2118
      133        8      2.3324   -229.4212   1436.2028      1.2659     -0.2100
      134        8      1.3926    -63.7583   1690.2639      1.0359     -0.0346
      135        8      2.9445     50.5861   3011.0707      7.4943     -0.8666
      136        8      4.6232    919.8589   1119.4048      1.0055     -0.0055
      137        8      5.4152    762.5425    667.6819      1.0516     -0.0491
      138        8      4.0146    841.0682   1685.8968      1.4835     -0.3259
      139        8      4.6224    901.9147   1164.4802      1.0112     -0.0111
      140        8      2.9438     38.7196   2956.4966      5.9548     -0.8321
      141        8      1.3916    -68.3806   1703.8763      1.0407     -0.0391
      142        8      2.3327   -220.9677   1477.9646      1.3036     -0.2329
      143        8      4.0152    826.5903   1655.8852      1.4697     -0.3196
      144        8      5.4150    756.9127    665.1262      1.0506     -0.0482
      145        8      6.6655    765.7640    262.7507      0.9340      0.0707
      146        8      5.4145    753.8908    665.6029      1.0531     -0.0504
      147        8      3.4484    829.3676   2099.3535      1.8225     -0.4513
      148        8      2.3331   -233.6287   1462.5687      1.2956     -0.2281
      149        8      3.3797    269.6922   1161.0893      1.2544     -0.2028
      150        8      5.5437    841.1672    761.6682      1.0916     -0.0839
      151        8      5.4151    750.1661    660.6539      1.0563     -0.0533
      152        8      4.6230    918.2432   1137.3024      1.0038     -0.0038
      153        8      2.9435     29.6032   2965.5281      6.1385     -0.8371
      154        8      1.3905    -66.9670   1681.8879      1.0343     -0.0332
      155        8      2.3325   -233.5937   1456.3344      1.2927     -0.2264
      156        8      4.0151    824.3601   1670.1646      1.4865     -0.3273
      157        8      3.4484    800.8791   2089.4425      1.8052     -0.4460
      158        8      2.9441     54.8533   2999.5990      7.3696     -0.8643
      159        8      3.4484    810.5569   2110.6634      1.8471     -0.4586
      160        8      2.9443     30.1619   2959.1525      5.9179     -0.8310
      161        8      3.4484    825.7163   2089.0002      1.8061     -0.4463
      162        8      2.9439     57.3705   3006.3067      7.4534     -0.8658
      163        8      2.3326   -213.9673   1455.4787      1.2873     -0.2232
      164        8      1.3926    -69.8666   1692.5665      1.0411     -0.0395
      165        8      2.9445     51.0865   2998.6166      7.2924     -0.8629
      166        8      4.6233    916.5526   1134.9110      1.0019     -0.0019
      167        8      5.4149    755.1959    666.9964      1.0534     -0.0507
      168        8      4.0146    836.4096   1652.1368      1.4683     -0.3190
      169        8      3.3797    291.3871   1144.9213      1.2392     -0.1930
      170        8      2.3323   -215.4927   1454.6121      1.2871     -0.2230
      171        8      3.4484    796.7015   2084.0061      1.8049     -0.4459
      172        8      5.4152    748.1535    657.8700      1.0563     -0.0533
      173        8      6.6655    766.6857    257.9023      0.9321      0.0729
      174        8      5.5437    852.9232    790.6525      1.1006     -0.0914
      175        8      5.5436    851.5431    800.2903      1.1066     -0.0963
      176        8      4.0140    837.2474   1652.0614      1.4680     -0.3188
      177        8      2.9430     49.6191   2998.5834      7.1321     -0.8598
      178        8      4.0151    820.5213   1676.7190      1.4918     -0.3297
      179        8      5.5434    842.1146    768.7168      1.0959     -0.0875
      180        8      6.8351    516.4501    182.0561      0.9684      0.0326
      181        8      7.7513    442.0799     24.3411      0.9331      0.0717
      182        8      6.8341    514.2493    178.6215      0.9681      0.0329
      183        8      5.4142    752.7432    646.8095      1.0506     -0.0482
      184        8      4.6227    913.1363   1130.3568      1.0062     -0.0062
      185        8      5.5441    847.8387    777.5324      1.0994     -0.0904
      186        8      6.6660    599.9299    304.6691      1.0066     -0.0066
      187        8      6.8356    515.6644    190.3874      0.9749      0.0258
      188        8      5.5437    848.3512    778.6538      1.1006     -0.0914
      189        8      4.0145    837.1047   1652.7242      1.4670     -0.3183
      190        8      2.9425     42.0438   3014.1956      7.5795     -0.8681
      191        8      4.0147    823.2987   1695.5779      1.5018     -0.3341
      192        8      5.5435    843.3476    765.8614      1.0915     -0.0839
      193        8      5.4153    751.3476    663.7355      1.0515     -0.0490
      194        8      4.0151    833.1767   1685.2630      1.5008     -0.3337
      195        8      2.3327   -217.2497   1455.2744      1.2787     -0.2180
      196        8      1.3911    -64.6905   1702.6000      1.0344     -0.0332
      197        8      2.9432     38.0774   3005.3623      7.2186     -0.8615
      198        8      4.6229    904.5016   1122.8110      1.0035     -0.0035
      199        8      4.6227    904.4238   1125.4344      1.0033     -0.0033
      200        8      2.9438     29.8632   2966.0824      6.0861     -0.8357
      201        8      1.3921    -62.7839   1697.7660      1.0326     -0.0316
      202        8      2.3326   -218.1121   1455.4584      1.2778     -0.2174
      203        8      4.0150    841.6093   1661.2985      1.4708     -0.3201
      204        8      5.4149    752.0826    655.1451      1.0542     -0.0514
      205        8      5.5433    839.7029    792.6245      1.1070     -0.0967
      206        8      4.0141    836.6244   1649.6897      1.4645     -0.3172
      207        8      2.9436     28.7238   2967.9434      6.0296     -0.8342
      208        8      4.0150    834.0303   1693.6363      1.5109     -0.3381
      209        8      5.5438    855.6930    769.5908      1.0938     -0.0858
      210        8      6.8349    518.2413    186.2950      0.9711      0.0297
      211        8      6.6656    595.3650    310.7736      1.0087     -0.0086
      212        8      5.5435    837.1984    786.8854      1.1040     -0.0942
      213        8      4.6222    902.6907   1119.5555      1.0005     -0.0005
      214        8      5.4151    750.1700    667.0381      1.0543     -0.0515
      215        8      6.8354    512.2006    181.6922      0.9715      0.0293
      216        8      7.7511    443.3086     24.5726      0.9330      0.0718
  

     ===================================================================
     Eliashberg Spectral Function in the Migdal Approximation
     ===================================================================

     lambda :    0.6690552
     lambda_tr :    2.7645806

     Estimated Allen-Dynes Tc

     logavg =    0.0002494 l_a2F =    0.6691414
     mu =   0.10 Tc =         1.222569430302 K
     mu =   0.12 Tc =         1.014632737569 K
     mu =   0.14 Tc =         0.823411342544 K
     mu =   0.16 Tc =         0.650627478241 K
     mu =   0.18 Tc =         0.497830090525 K
     mu =   0.20 Tc =         0.366262722009 K
     a2F          :      0.25s CPU      0.13s WALL (       1 calls)

     Unfolding on the coarse grid
     elphon_wrap  :   1363.14s CPU    682.35s WALL (       1 calls)

     INITIALIZATION: 

     init_vloc    :      0.24s CPU      0.12s WALL (      29 calls)
     init_us_1    :      8.53s CPU      4.26s WALL (      29 calls)


     Electron-Phonon interpolation
     ephwann      :     31.82s CPU     15.94s WALL (       1 calls)
     ep-interp    :     30.77s CPU     15.41s WALL (     216 calls)
     PH SELF-ENER :      1.07s CPU      0.53s WALL (     216 calls)

     Ham: step 1  :      0.00s CPU      0.00s WALL (       1 calls)
     Ham: step 2  :      0.00s CPU      0.00s WALL (       1 calls)
     ep: step 1   :      0.04s CPU      0.02s WALL (      81 calls)
     ep: step 2   :      0.08s CPU      0.04s WALL (      81 calls)
     DynW2B       :      0.01s CPU      0.01s WALL (     216 calls)
     HamW2B       :      7.96s CPU      3.94s WALL (   93744 calls)
     ephW2Bp      :      0.65s CPU      0.32s WALL (     216 calls)


     Total program execution
     EPW          : 24m30.86s CPU    12m16.30s WALL

