                                                                                      
                                       ``:oss/                                        
                           `.+s+.     .+ys--yh+     `./ss+.                           
                          -sh//yy+`   +yy   +yy    -+h+-oyy                           
                          -yh- .oyy/.-sh.   .syo-.:sy-  /yh                           
                 `.-.`    `yh+   -oyyyo.     `/syys:    oys      `.`                  
               `/+ssys+-` `sh+      `                   oys`   .:osyo`                
               -yh- ./syyooyo`                          .sys+/oyo--yh/                
               `yy+    .-:-.                             `-/+/:`  -sh-                
                /yh.                                              oys                 
          ``..---hho---------`   .---------..`      `.-----.`    -hd+---.             
       `./osmNMMMMMMMMMMMMMMMs. +NNMMMMMMMMNNmh+.   yNMMMMMNm-  oNMMMMMNmo++:`        
       +sy--/sdMMMhyyyyyyyNMMh- .oyNMMmyyyyyhNMMm+` -yMMMdyyo:` .oyyNMMNhs+syy`       
       -yy/   /MMM+.`-+/``mMMy-   `mMMh:`````.dMMN:` `MMMy-`-dhhy```mMMy:``+hs        
        -yy+` /MMMo:-mMM+`-oo/.    mMMh:     `dMMN/`  dMMm:`dMMMMy..MMMo-.+yo`        
         .sys`/MMMMNNMMMs-         mMMmyooooymMMNo:   oMMM/sMMMMMM++MMN//oh:          
          `sh+/MMMhyyMMMs- `-`     mMMMMMMMMMNmy+-`   -MMMhMMMsmMMmdMMd/yy+           
    `-/+++oyy-/MMM+.`/hh/.`mNm:`   mMMd+/////:-.`      NMMMMMd/:NMMMMMy:/yyo/:.`      
   +os+//:-..-oMMMo:--:::-/MMMo. .-mMMd+---`           hMMMMN+. oMMMMMo. `-+osyso:`   
   syo     `mNMMMMMNNNNNNNNMMMo.oNNMMMMMNNNN:`         +MMMMs:`  dMMMN/`     ``:syo   
   /yh`     :syyyyyyyyyyyyyyyy+.`+syyyyyyyyo:`         .oyys:`   .oyys:`        +yh   
   -yh-        ````````````````    `````````              ``        ``          oys   
   -+h/------------------------::::::::://////++++++++++++++++++++++///////::::/yd:   
   shdddddddddddddddddddddddddddddhhhhhhhhyyyyyssssssssssssssssyyyyyyyhhhhhhhddddh`   
                                                                                      
  S. Ponce, E. R. Margine, C. Verdi, and F. Giustino, http://arxiv.org/abs/1604.03525 
                                                                                      

     Program EPW v.4.0.0 (svn rev. 12728) starts on 13Aug2016 at 15:33:50 

     This program is part of the open-source Quantum ESPRESSO suite
     for quantum simulation of materials; please cite
         "P. Giannozzi et al., J. Phys.:Condens. Matter 21 395502 (2009);
          URL http://www.quantum-espresso.org", 
     in publications or presentations arising from this work. More details at
     http://www.quantum-espresso.org/quote

           HOST :    @host@
           ARCH :    x86_64
             CC :    cc
            CPP :    cpp
            F90 :    mpif90
            F77 :    gfortran
         DFLAGS :    -D__GFORTRAN -D__STD_F95 -D__FFTW -D__MPI -D__PARA
      BLAS LIBS :    /home/sponce/program/espresso/BLAS/blas.a
    LAPACK LIBS :    /home/sponce/program/espresso/lapack-3.2/lapack.a
       FFT LIBS :    
      MASS LIBS :    

     Parallel version (MPI), running on     1 processors

     Reading data from directory:
     ./pb.save

   Info: using nr1, nr2, nr3 values from input

   Info: using nr1, nr2, nr3 values from input

     IMPORTANT: XC functional enforced from input :
     Exchange-correlation      = PZ ( 1  1  0  0 0 0)
     Any further DFT definition will be discarded
     Please, verify this is what you really want


     G-vector sticks info
     --------------------
     sticks:   dense  smooth     PW     G-vecs:    dense   smooth      PW
     Sum         703     703    211                12387    12387    2109


     --                                                                         

     bravais-lattice index     =            2
     lattice parameter (a_0)   =       9.2700  a.u.
     unit-cell volume          =     199.1495 (a.u.)^3
     number of atoms/cell      =            1
     number of atomic types    =            1
     kinetic-energy cut-off    =      60.0000  Ry
     charge density cut-off    =     240.0000  Ry
     convergence threshold     =      0.0E+00
     beta                      =       0.0000
     number of iterations used =            0
     Exchange-correlation      = PZ ( 1  1  0  0 0 0)


     celldm(1)=    9.27000  celldm(2)=    0.00000  celldm(3)=    0.00000
     celldm(4)=    0.00000  celldm(5)=    0.00000  celldm(6)=    0.00000

     crystal axes: (cart. coord. in units of a_0)
               a(1) = ( -0.5000  0.0000  0.5000 )  
               a(2) = (  0.0000  0.5000  0.5000 )  
               a(3) = ( -0.5000  0.5000  0.0000 )  

     reciprocal axes: (cart. coord. in units 2 pi/a_0)
               b(1) = ( -1.0000 -1.0000  1.0000 )  
               b(2) = (  1.0000  1.0000  1.0000 )  
               b(3) = ( -1.0000  1.0000 -1.0000 )  


     Atoms inside the unit cell: 

   Cartesian axes

     site n.  atom      mass           positions (a_0 units)
        1        Pb 207.2175   tau( 1) = (    0.00000    0.00000    0.00000  )

     49 Sym.Ops. (with q -> -q+G )


     G cutoff =  522.4094  (  12387 G-vectors)     FFT grid: ( 36, 36, 36)
     number of k points=   27  gaussian broad. (Ry)=  0.0200     ngauss =   1
                       cart. coord. in units 2pi/a_0
        k(    1) = (   0.0000000   0.0000000   0.0000000), wk =   0.0370370
        k(    2) = (  -0.3333333   0.3333333  -0.3333333), wk =   0.0370370
        k(    3) = (  -0.6666667   0.6666667  -0.6666667), wk =   0.0370370
        k(    4) = (   0.3333333   0.3333333   0.3333333), wk =   0.0370370
        k(    5) = (   0.0000000   0.6666667   0.0000000), wk =   0.0370370
        k(    6) = (  -0.3333333   1.0000000  -0.3333333), wk =   0.0370370
        k(    7) = (   0.6666667   0.6666667   0.6666667), wk =   0.0370370
        k(    8) = (   0.3333333   1.0000000   0.3333333), wk =   0.0370370
        k(    9) = (   0.0000000   1.3333333   0.0000000), wk =   0.0370370
        k(   10) = (  -0.3333333  -0.3333333   0.3333333), wk =   0.0370370
        k(   11) = (  -0.6666667   0.0000000   0.0000000), wk =   0.0370370
        k(   12) = (  -1.0000000   0.3333333  -0.3333333), wk =   0.0370370
        k(   13) = (   0.0000000   0.0000000   0.6666667), wk =   0.0370370
        k(   14) = (  -0.3333333   0.3333333   0.3333333), wk =   0.0370370
        k(   15) = (  -0.6666667   0.6666667  -0.0000000), wk =   0.0370370
        k(   16) = (   0.3333333   0.3333333   1.0000000), wk =   0.0370370
        k(   17) = (   0.0000000   0.6666667   0.6666667), wk =   0.0370370
        k(   18) = (  -0.3333333   1.0000000   0.3333333), wk =   0.0370370
        k(   19) = (  -0.6666667  -0.6666667   0.6666667), wk =   0.0370370
        k(   20) = (  -1.0000000  -0.3333333   0.3333333), wk =   0.0370370
        k(   21) = (  -1.3333333   0.0000000   0.0000000), wk =   0.0370370
        k(   22) = (  -0.3333333  -0.3333333   1.0000000), wk =   0.0370370
        k(   23) = (  -0.6666667  -0.0000000   0.6666667), wk =   0.0370370
        k(   24) = (  -1.0000000   0.3333333   0.3333333), wk =   0.0370370
        k(   25) = (   0.0000000   0.0000000   1.3333333), wk =   0.0370370
        k(   26) = (  -0.3333333   0.3333333   1.0000000), wk =   0.0370370
        k(   27) = (  -0.6666667   0.6666667   0.6666667), wk =   0.0370370

     PseudoPot. # 1 for Pb read from file:
     ./pb_s.UPF
     MD5 check sum: 7774f596943a2055f0d8d19eea6f2ae8
     Pseudo is Norm-conserving, Zval = 14.0
     Generated using "atomic" code by A. Dal Corso  (Quantum ESPRESSO distribution)
     Using radial grid of 1281 points,  4 beta functions with: 
                l(1) =   2
                l(2) =   2
                l(3) =   1
                l(4) =   1
     EPW          :     0.61s CPU         0.32s WALL

     EPW          :     1.52s CPU         0.77s WALL

     No wavefunction gauge setting applied
     -------------------------------------------------------------------
     Wannierization on  3 x  3 x  3 electronic grid
     -------------------------------------------------------------------

     Spin CASE ( non-collinear )

     Initializing Wannier90


     Initial Wannier projections

     (   0.00000   0.00000   0.00000) :  l =  -3 mr =   1
     (   0.00000   0.00000   0.00000) :  l =  -3 mr =   1
     (   0.00000   0.00000   0.00000) :  l =  -3 mr =   2
     (   0.00000   0.00000   0.00000) :  l =  -3 mr =   2
     (   0.00000   0.00000   0.00000) :  l =  -3 mr =   3
     (   0.00000   0.00000   0.00000) :  l =  -3 mr =   3
     (   0.00000   0.00000   0.00000) :  l =  -3 mr =   4
     (   0.00000   0.00000   0.00000) :  l =  -3 mr =   4

      - Number of bands is ( 22)
      - Number of wannier functions is (  8)
      - All guiding functions are given 

  Reading data about k-point neighbours 

      - All neighbours are found 

     AMN
      k points =    27 in    1 pools
            1 of   27 on ionode
            2 of   27 on ionode
            3 of   27 on ionode
            4 of   27 on ionode
            5 of   27 on ionode
            6 of   27 on ionode
            7 of   27 on ionode
            8 of   27 on ionode
            9 of   27 on ionode
           10 of   27 on ionode
           11 of   27 on ionode
           12 of   27 on ionode
           13 of   27 on ionode
           14 of   27 on ionode
           15 of   27 on ionode
           16 of   27 on ionode
           17 of   27 on ionode
           18 of   27 on ionode
           19 of   27 on ionode
           20 of   27 on ionode
           21 of   27 on ionode
           22 of   27 on ionode
           23 of   27 on ionode
           24 of   27 on ionode
           25 of   27 on ionode
           26 of   27 on ionode
           27 of   27 on ionode

     AMN calculated

     MMN
      k points =    27 in    1 pools
            1 of   27 on ionode
            2 of   27 on ionode
            3 of   27 on ionode
            4 of   27 on ionode
            5 of   27 on ionode
            6 of   27 on ionode
            7 of   27 on ionode
            8 of   27 on ionode
            9 of   27 on ionode
           10 of   27 on ionode
           11 of   27 on ionode
           12 of   27 on ionode
           13 of   27 on ionode
           14 of   27 on ionode
           15 of   27 on ionode
           16 of   27 on ionode
           17 of   27 on ionode
           18 of   27 on ionode
           19 of   27 on ionode
           20 of   27 on ionode
           21 of   27 on ionode
           22 of   27 on ionode
           23 of   27 on ionode
           24 of   27 on ionode
           25 of   27 on ionode
           26 of   27 on ionode
           27 of   27 on ionode
     MMN calculated

     Running Wannier90

     Wannier Function centers (cartesian, alat) and spreads (ang):

     (   0.08272   0.08272   0.08272) :   1.60664
     (   0.08272   0.08272   0.08272) :   1.60664
     (   0.08272  -0.08272  -0.08272) :   1.60664
     (   0.08272  -0.08272  -0.08272) :   1.60664
     (  -0.08272   0.08272  -0.08272) :   1.60664
     (  -0.08272   0.08272  -0.08272) :   1.60664
     (  -0.08272  -0.08272   0.08272) :   1.60664
     (  -0.08272  -0.08272   0.08272) :   1.60664

     -------------------------------------------------------------------
     WANNIER      :     45.63s CPU     22.89s WALL (       1 calls)
     -------------------------------------------------------------------

     Dipole matrix elements calculated


     Calculating kmap and kgmap
     Progress  kmap: ###########################
     Progress kgmap: ########################################
     kmaps        :      3.87s CPU      1.94s WALL (       1 calls)
     Symmetries of bravais lattice:  48
     Symmetries of crystal:          48


     ===================================================================
     irreducible q point #    1
     ===================================================================

     Symmetries of small group of q: 48
          in addition sym. q -> -q+G:

     Number of q in the star =    1
     List of q in the star:
          1   0.000000000   0.000000000   0.000000000
        Imposing acoustic sum rule on the dynamical matrix

        q(    1 ) = (   0.0000000   0.0000000   0.0000000 )


     ===================================================================
     irreducible q point #    2
     ===================================================================

     Symmetries of small group of q:  6

     Number of q in the star =    8
     List of q in the star:
          1  -0.333333333   0.333333333  -0.333333333
          2   0.333333333   0.333333333  -0.333333333
          3   0.333333333   0.333333333   0.333333333
          4  -0.333333333   0.333333333   0.333333333
          5   0.333333333  -0.333333333   0.333333333
          6  -0.333333333  -0.333333333  -0.333333333
          7   0.333333333  -0.333333333  -0.333333333
          8  -0.333333333  -0.333333333   0.333333333

        q(    2 ) = (  -0.3333333   0.3333333  -0.3333333 )
        q(    3 ) = (   0.3333333   0.3333333  -0.3333333 )
        q(    4 ) = (   0.3333333   0.3333333   0.3333333 )
        q(    5 ) = (  -0.3333333   0.3333333   0.3333333 )
        q(    6 ) = (   0.3333333  -0.3333333   0.3333333 )
        q(    7 ) = (  -0.3333333  -0.3333333  -0.3333333 )
        q(    8 ) = (   0.3333333  -0.3333333  -0.3333333 )
        q(    9 ) = (  -0.3333333  -0.3333333   0.3333333 )


     ===================================================================
     irreducible q point #    3
     ===================================================================

     Symmetries of small group of q:  8

     Number of q in the star =    6
     List of q in the star:
          1   0.000000000   0.666666667   0.000000000
          2  -0.666666667   0.000000000   0.000000000
          3   0.000000000  -0.666666667   0.000000000
          4   0.000000000   0.000000000   0.666666667
          5   0.000000000   0.000000000  -0.666666667
          6   0.666666667   0.000000000   0.000000000

        q(   10 ) = (   0.0000000   0.6666667   0.0000000 )
        q(   11 ) = (  -0.6666667   0.0000000   0.0000000 )
        q(   12 ) = (   0.0000000  -0.6666667   0.0000000 )
        q(   13 ) = (   0.0000000   0.0000000   0.6666667 )
        q(   14 ) = (   0.0000000   0.0000000  -0.6666667 )
        q(   15 ) = (   0.6666667   0.0000000   0.0000000 )


     ===================================================================
     irreducible q point #    4
     ===================================================================

     Symmetries of small group of q:  4

     Number of q in the star =   12
     List of q in the star:
          1   0.666666667   0.000000000   0.666666667
          2   0.666666667   0.000000000  -0.666666667
          3  -0.666666667   0.000000000  -0.666666667
          4  -0.666666667   0.000000000   0.666666667
          5   0.000000000  -0.666666667   0.666666667
          6  -0.666666667   0.666666667   0.000000000
          7  -0.666666667  -0.666666667   0.000000000
          8   0.666666667   0.666666667   0.000000000
          9   0.666666667  -0.666666667   0.000000000
         10   0.000000000   0.666666667   0.666666667
         11   0.000000000   0.666666667  -0.666666667
         12   0.000000000  -0.666666667  -0.666666667

        q(   16 ) = (   0.6666667   0.0000000   0.6666667 )
        q(   17 ) = (   0.6666667   0.0000000  -0.6666667 )
        q(   18 ) = (  -0.6666667   0.0000000  -0.6666667 )
        q(   19 ) = (  -0.6666667   0.0000000   0.6666667 )
        q(   20 ) = (   0.0000000  -0.6666667   0.6666667 )
        q(   21 ) = (  -0.6666667   0.6666667   0.0000000 )
        q(   22 ) = (  -0.6666667  -0.6666667   0.0000000 )
        q(   23 ) = (   0.6666667   0.6666667   0.0000000 )
        q(   24 ) = (   0.6666667  -0.6666667   0.0000000 )
        q(   25 ) = (   0.0000000   0.6666667   0.6666667 )
        q(   26 ) = (   0.0000000   0.6666667  -0.6666667 )
        q(   27 ) = (   0.0000000  -0.6666667  -0.6666667 )

     Writing epmatq on .epb files


     The .epb files have been correctly written


              band disentanglement is used:  nbndsub =    8

     Writing Hamiltonian, Dynamical matrix and EP vertex in Wann rep to file


     Reading Hamiltonian, Dynamical matrix and EP vertex in Wann rep from file


     Finished reading Wann rep data from file

     Using uniform q-mesh:    6   6   6
     Size of q point mesh for interpolation:        216
     Using uniform k-mesh:    6   6   6
     Size of k point mesh for interpolation:        432
     Max number of k points per pool:              432

     Fermi energy coarse grid =  10.121992 eV

     Skipping the first   10 bands:

     The Fermi level will be determined with   4.00000 electrons

     Fermi energy is calculated from the fine k-mesh: Ef =  11.622357 eV

     Warning: check if difference with Fermi level fine grid makes sense

     ===================================================================

              ibndmin =     1  ebndmin =    -0.040
              ibndmax =     8  ebndmax =     1.463


     Number of ep-matrix elements per pool :        41472 ~=  324.00 Kb (@ 8 bytes/ DP)

     ===================================================================
     Phonon (Imaginary) Self-Energy in the Migdal Approximation
     ===================================================================


     Fermi Surface thickness =  20.000000 eV

     Golden Rule strictly enforced with T =   0.043087 eV
     Gaussian Broadening:   0.200000 eV, ngauss=   1
     DOS =  0.904604 states/spin/eV/Unit Cell at Ef= 11.622357 eV

     ismear =     1 iq =       1 coord.:   0.00000  0.00000  0.00000 wt:   0.00463
     -------------------------------------------------------------------
     lambda(   1 )=       0.000000   gamma=       0.000000 meV   omega=      0.0000 meV
     lambda_tr(   1 )=       0.000000   gamma_tr=       0.000000 meV   omega=      0.0000 meV
     lambda(   2 )=       0.000000   gamma=       0.000000 meV   omega=      0.0000 meV
     lambda_tr(   2 )=       0.000000   gamma_tr=       0.000000 meV   omega=      0.0000 meV
     lambda(   3 )=       0.000000   gamma=       0.000000 meV   omega=      0.0000 meV
     lambda_tr(   3 )=       0.000000   gamma_tr=       0.000000 meV   omega=      0.0000 meV
     lambda( tot )=       0.000000
     lambda_tr( tot )=       0.000000
     -------------------------------------------------------------------


     Number of (k,k+q) pairs on the Fermi surface:      216 out of      216


     ===================================================================
     Electron (Imaginary) Self-Energy in the Migdal Approximation
     ===================================================================


     Fermi Surface thickness =  20.000000 eV

     Golden Rule strictly enforced with T =   0.043087 eV
     Gaussian Broadening:   0.200000 eV, ngauss=   1
     DOS =  0.904604 states/spin/eV/Unit Cell at Ef= 11.622357 eV
 

     ismear =     1 iq =       2 coord.:   0.00000  0.00000  0.16667 wt:   0.00463
     -------------------------------------------------------------------
     lambda(   1 )=       0.000000   gamma=       0.000000 meV   omega=     -1.2052 meV
     lambda_tr(   1 )=       0.000000   gamma_tr=       0.000000 meV   omega=     -1.2052 meV
     lambda(   2 )=       0.000000   gamma=       0.000000 meV   omega=     -1.2052 meV
     lambda_tr(   2 )=       0.000000   gamma_tr=       0.000000 meV   omega=     -1.2052 meV
     lambda(   3 )=       0.000000   gamma=       0.000000 meV   omega=      0.4924 meV
     lambda_tr(   3 )=       0.000000   gamma_tr=       0.000000 meV   omega=      0.4924 meV
     lambda( tot )=       0.000000
     lambda_tr( tot )=       0.000000
     -------------------------------------------------------------------


     Number of (k,k+q) pairs on the Fermi surface:      216 out of      216


     ismear =     1 iq =       3 coord.:   0.00000  0.00000  0.33333 wt:   0.00463
     -------------------------------------------------------------------
     lambda(   1 )=       0.320321   gamma=       0.005257 meV   omega=      2.4032 meV
     lambda_tr(   1 )=     -19.672962   gamma_tr=      -0.322882 meV   omega=      2.4032 meV
     lambda(   2 )=       0.321568   gamma=       0.005278 meV   omega=      2.4032 meV
     lambda_tr(   2 )=     -19.709872   gamma_tr=      -0.323488 meV   omega=      2.4032 meV
     lambda(   3 )=       0.570966   gamma=       0.017934 meV   omega=      3.3246 meV
     lambda_tr(   3 )=     -25.300039   gamma_tr=      -0.794691 meV   omega=      3.3246 meV
     lambda( tot )=       1.212855
     lambda_tr( tot )=     -64.682872
     -------------------------------------------------------------------


     Number of (k,k+q) pairs on the Fermi surface:      216 out of      216


     ismear =     1 iq =       4 coord.:   0.00000  0.00000  0.50000 wt:   0.00463
     -------------------------------------------------------------------
     lambda(   1 )=       0.000000   gamma=       0.000000 meV   omega=      3.8020 meV
     lambda_tr(   1 )=       0.000000   gamma_tr=       0.000000 meV   omega=      3.8020 meV
     lambda(   2 )=       0.000000   gamma=       0.000000 meV   omega=      3.8020 meV
     lambda_tr(   2 )=       0.000000   gamma_tr=       0.000000 meV   omega=      3.8020 meV
     lambda(   3 )=       0.000000   gamma=       0.000000 meV   omega=      4.6498 meV
     lambda_tr(   3 )=       0.000000   gamma_tr=       0.000000 meV   omega=      4.6498 meV
     lambda( tot )=       0.000000
     lambda_tr( tot )=       0.000000
     -------------------------------------------------------------------


     Number of (k,k+q) pairs on the Fermi surface:      216 out of      216


     ismear =     1 iq =       5 coord.:   0.00000  0.00000  0.66667 wt:   0.00463
     -------------------------------------------------------------------
     lambda(   1 )=       0.320703   gamma=       0.005264 meV   omega=      2.4032 meV
     lambda_tr(   1 )=     -18.545704   gamma_tr=      -0.304381 meV   omega=      2.4032 meV
     lambda(   2 )=       0.309972   gamma=       0.005087 meV   omega=      2.4032 meV
     lambda_tr(   2 )=     -17.743594   gamma_tr=      -0.291216 meV   omega=      2.4032 meV
     lambda(   3 )=       0.574724   gamma=       0.018052 meV   omega=      3.3246 meV
     lambda_tr(   3 )=     -23.995216   gamma_tr=      -0.753706 meV   omega=      3.3246 meV
     lambda( tot )=       1.205400
     lambda_tr( tot )=     -60.284514
     -------------------------------------------------------------------


     Number of (k,k+q) pairs on the Fermi surface:      216 out of      216


     ismear =     1 iq =       6 coord.:   0.00000  0.00000  0.83333 wt:   0.00463
     -------------------------------------------------------------------
     lambda(   1 )=       0.000000   gamma=       0.000000 meV   omega=     -1.2052 meV
     lambda_tr(   1 )=       0.000000   gamma_tr=       0.000000 meV   omega=     -1.2052 meV
     lambda(   2 )=       0.000000   gamma=       0.000000 meV   omega=     -1.2052 meV
     lambda_tr(   2 )=       0.000000   gamma_tr=       0.000000 meV   omega=     -1.2052 meV
     lambda(   3 )=       0.000000   gamma=       0.000000 meV   omega=      0.4924 meV
     lambda_tr(   3 )=       0.000000   gamma_tr=       0.000000 meV   omega=      0.4924 meV
     lambda( tot )=       0.000000
     lambda_tr( tot )=       0.000000
     -------------------------------------------------------------------


     Number of (k,k+q) pairs on the Fermi surface:      216 out of      216


     ismear =     1 iq =       7 coord.:   0.00000  0.16667  0.00000 wt:   0.00463
     -------------------------------------------------------------------
     lambda(   1 )=       0.000000   gamma=       0.000000 meV   omega=     -1.2052 meV
     lambda_tr(   1 )=       0.000000   gamma_tr=       0.000000 meV   omega=     -1.2052 meV
     lambda(   2 )=       0.000000   gamma=       0.000000 meV   omega=     -1.2052 meV
     lambda_tr(   2 )=       0.000000   gamma_tr=       0.000000 meV   omega=     -1.2052 meV
     lambda(   3 )=       0.000000   gamma=       0.000000 meV   omega=      0.4924 meV
     lambda_tr(   3 )=       0.000000   gamma_tr=       0.000000 meV   omega=      0.4924 meV
     lambda( tot )=       0.000000
     lambda_tr( tot )=       0.000000
     -------------------------------------------------------------------


     Number of (k,k+q) pairs on the Fermi surface:      216 out of      216


     ismear =     1 iq =       8 coord.:   0.00000  0.16667  0.16667 wt:   0.00463
     -------------------------------------------------------------------
     lambda(   1 )=       0.000000   gamma=       0.000000 meV   omega=     -3.2687 meV
     lambda_tr(   1 )=       0.000000   gamma_tr=       0.000000 meV   omega=     -3.2687 meV
     lambda(   2 )=       0.000000   gamma=       0.000000 meV   omega=     -3.2687 meV
     lambda_tr(   2 )=       0.000000   gamma_tr=       0.000000 meV   omega=     -3.2687 meV
     lambda(   3 )=       0.234333   gamma=       0.010517 meV   omega=      3.9739 meV
     lambda_tr(   3 )=       0.079041   gamma_tr=       0.003547 meV   omega=      3.9739 meV
     lambda( tot )=       0.234333
     lambda_tr( tot )=       0.079041
     -------------------------------------------------------------------


     Number of (k,k+q) pairs on the Fermi surface:      216 out of      216


     ismear =     1 iq =       9 coord.:   0.00000  0.16667  0.33333 wt:   0.00463
     -------------------------------------------------------------------
     lambda(   1 )=       0.000000   gamma=       0.000000 meV   omega=     -3.0769 meV
     lambda_tr(   1 )=       0.000000   gamma_tr=       0.000000 meV   omega=     -3.0769 meV
     lambda(   2 )=       0.000000   gamma=       0.000000 meV   omega=     -2.8895 meV
     lambda_tr(   2 )=       0.000000   gamma_tr=       0.000000 meV   omega=     -2.8895 meV
     lambda(   3 )=       0.009449   gamma=       0.000785 meV   omega=      5.4074 meV
     lambda_tr(   3 )=      -0.042290   gamma_tr=      -0.003514 meV   omega=      5.4074 meV
     lambda( tot )=       0.009449
     lambda_tr( tot )=      -0.042290
     -------------------------------------------------------------------


     Number of (k,k+q) pairs on the Fermi surface:      216 out of      216


     ismear =     1 iq =      10 coord.:   0.00000  0.16667  0.50000 wt:   0.00463
     -------------------------------------------------------------------
     lambda(   1 )=       0.489327   gamma=       0.010640 meV   omega=      2.7660 meV
     lambda_tr(   1 )=       0.283212   gamma_tr=       0.006158 meV   omega=      2.7660 meV
     lambda(   2 )=      -0.132812   gamma=      -0.004196 meV   omega=      3.3343 meV
     lambda_tr(   2 )=      -0.786337   gamma_tr=      -0.024845 meV   omega=      3.3343 meV
     lambda(   3 )=       0.494817   gamma=       0.046353 meV   omega=      5.7413 meV
     lambda_tr(   3 )=      -0.705450   gamma_tr=      -0.066085 meV   omega=      5.7413 meV
     lambda( tot )=       0.851333
     lambda_tr( tot )=      -1.208574
     -------------------------------------------------------------------


     Number of (k,k+q) pairs on the Fermi surface:      216 out of      216


     ismear =     1 iq =      11 coord.:   0.00000  0.16667  0.66667 wt:   0.00463
     -------------------------------------------------------------------
     lambda(   1 )=       0.065264   gamma=       0.002249 meV   omega=      3.4821 meV
     lambda_tr(   1 )=      -0.157256   gamma_tr=      -0.005419 meV   omega=      3.4821 meV
     lambda(   2 )=       0.067942   gamma=       0.002591 meV   omega=      3.6633 meV
     lambda_tr(   2 )=       0.307553   gamma_tr=       0.011729 meV   omega=      3.6633 meV
     lambda(   3 )=       0.036663   gamma=       0.001970 meV   omega=      4.3479 meV
     lambda_tr(   3 )=      -0.119547   gamma_tr=      -0.006423 meV   omega=      4.3479 meV
     lambda( tot )=       0.169869
     lambda_tr( tot )=       0.030750
     -------------------------------------------------------------------


     Number of (k,k+q) pairs on the Fermi surface:      216 out of      216


     ismear =     1 iq =      12 coord.:   0.00000  0.16667  0.83333 wt:   0.00463
     -------------------------------------------------------------------
     lambda(   1 )=       0.000000   gamma=       0.000000 meV   omega=     -2.7557 meV
     lambda_tr(   1 )=       0.000000   gamma_tr=       0.000000 meV   omega=     -2.7557 meV
     lambda(   2 )=      -1.824613   gamma=      -0.028693 meV   omega=      2.3523 meV
     lambda_tr(   2 )=      -3.524125   gamma_tr=      -0.055419 meV   omega=      2.3523 meV
     lambda(   3 )=       0.001809   gamma=       0.000047 meV   omega=      3.0193 meV
     lambda_tr(   3 )=      -0.465451   gamma_tr=      -0.012059 meV   omega=      3.0193 meV
     lambda( tot )=      -1.822803
     lambda_tr( tot )=      -3.989576
     -------------------------------------------------------------------


     Number of (k,k+q) pairs on the Fermi surface:      216 out of      216


     ismear =     1 iq =      13 coord.:   0.00000  0.33333  0.00000 wt:   0.00463
     -------------------------------------------------------------------
     lambda(   1 )=       0.303212   gamma=       0.004976 meV   omega=      2.4032 meV
     lambda_tr(   1 )=     -17.547404   gamma_tr=      -0.287996 meV   omega=      2.4032 meV
     lambda(   2 )=       0.308840   gamma=       0.005069 meV   omega=      2.4032 meV
     lambda_tr(   2 )=     -17.599943   gamma_tr=      -0.288859 meV   omega=      2.4032 meV
     lambda(   3 )=       0.596442   gamma=       0.018735 meV   omega=      3.3246 meV
     lambda_tr(   3 )=     -24.160167   gamma_tr=      -0.758887 meV   omega=      3.3246 meV
     lambda( tot )=       1.208494
     lambda_tr( tot )=     -59.307515
     -------------------------------------------------------------------


     Number of (k,k+q) pairs on the Fermi surface:      216 out of      216


     ismear =     1 iq =      14 coord.:   0.00000  0.33333  0.16667 wt:   0.00463
     -------------------------------------------------------------------
     lambda(   1 )=       0.000000   gamma=       0.000000 meV   omega=     -3.0769 meV
     lambda_tr(   1 )=       0.000000   gamma_tr=       0.000000 meV   omega=     -3.0769 meV
     lambda(   2 )=       0.000000   gamma=       0.000000 meV   omega=     -2.8895 meV
     lambda_tr(   2 )=       0.000000   gamma_tr=       0.000000 meV   omega=     -2.8895 meV
     lambda(   3 )=       0.010064   gamma=       0.000836 meV   omega=      5.4074 meV
     lambda_tr(   3 )=      -0.037741   gamma_tr=      -0.003136 meV   omega=      5.4074 meV
     lambda( tot )=       0.010064
     lambda_tr( tot )=      -0.037741
     -------------------------------------------------------------------


     Number of (k,k+q) pairs on the Fermi surface:      216 out of      216


     ismear =     1 iq =      15 coord.:   0.00000  0.33333  0.33333 wt:   0.00463
     -------------------------------------------------------------------
     lambda(   1 )=       0.000000   gamma=       0.000000 meV   omega=     -4.5024 meV
     lambda_tr(   1 )=       0.000000   gamma_tr=       0.000000 meV   omega=     -4.5024 meV
     lambda(   2 )=       0.000000   gamma=       0.000000 meV   omega=     -4.5024 meV
     lambda_tr(   2 )=       0.000000   gamma_tr=       0.000000 meV   omega=     -4.5024 meV
     lambda(   3 )=       0.024487   gamma=       0.003649 meV   omega=      7.2413 meV
     lambda_tr(   3 )=       0.019250   gamma_tr=       0.002869 meV   omega=      7.2413 meV
     lambda( tot )=       0.024487
     lambda_tr( tot )=       0.019250
     -------------------------------------------------------------------


     Number of (k,k+q) pairs on the Fermi surface:      216 out of      216


     ismear =     1 iq =      16 coord.:   0.00000  0.33333  0.50000 wt:   0.00463
     -------------------------------------------------------------------
     lambda(   1 )=       0.000000   gamma=       0.000000 meV   omega=     -3.0271 meV
     lambda_tr(   1 )=       0.000000   gamma_tr=       0.000000 meV   omega=     -3.0271 meV
     lambda(   2 )=       0.000000   gamma=       0.000000 meV   omega=     -2.7907 meV
     lambda_tr(   2 )=       0.000000   gamma_tr=       0.000000 meV   omega=     -2.7907 meV
     lambda(   3 )=       0.013901   gamma=       0.002405 meV   omega=      7.8031 meV
     lambda_tr(   3 )=      -0.000798   gamma_tr=      -0.000138 meV   omega=      7.8031 meV
     lambda( tot )=       0.013901
     lambda_tr( tot )=      -0.000798
     -------------------------------------------------------------------


     Number of (k,k+q) pairs on the Fermi surface:      216 out of      216


     ismear =     1 iq =      17 coord.:   0.00000  0.33333  0.66667 wt:   0.00463
     -------------------------------------------------------------------
     lambda(   1 )=       0.249020   gamma=       0.006571 meV   omega=      3.0471 meV
     lambda_tr(   1 )=      12.191784   gamma_tr=       0.321706 meV   omega=      3.0471 meV
     lambda(   2 )=       0.442220   gamma=       0.016818 meV   omega=      3.6582 meV
     lambda_tr(   2 )=       1.870260   gamma_tr=       0.071128 meV   omega=      3.6582 meV
     lambda(   3 )=       0.153552   gamma=       0.018610 meV   omega=      6.5304 meV
     lambda_tr(   3 )=       2.502436   gamma_tr=       0.303283 meV   omega=      6.5304 meV
     lambda( tot )=       0.844792
     lambda_tr( tot )=      16.564480
     -------------------------------------------------------------------


     Number of (k,k+q) pairs on the Fermi surface:      216 out of      216


     ismear =     1 iq =      18 coord.:   0.00000  0.33333  0.83333 wt:   0.00463
     -------------------------------------------------------------------
     lambda(   1 )=       0.064637   gamma=       0.002227 meV   omega=      3.4821 meV
     lambda_tr(   1 )=      -0.133552   gamma_tr=      -0.004602 meV   omega=      3.4821 meV
     lambda(   2 )=       0.071083   gamma=       0.002711 meV   omega=      3.6633 meV
     lambda_tr(   2 )=       0.319224   gamma_tr=       0.012174 meV   omega=      3.6633 meV
     lambda(   3 )=       0.036153   gamma=       0.001942 meV   omega=      4.3479 meV
     lambda_tr(   3 )=      -0.124085   gamma_tr=      -0.006666 meV   omega=      4.3479 meV
     lambda( tot )=       0.171872
     lambda_tr( tot )=       0.061587
     -------------------------------------------------------------------


     Number of (k,k+q) pairs on the Fermi surface:      216 out of      216


     ismear =     1 iq =      19 coord.:   0.00000  0.50000  0.00000 wt:   0.00463
     -------------------------------------------------------------------
     lambda(   1 )=       0.000000   gamma=       0.000000 meV   omega=      3.8020 meV
     lambda_tr(   1 )=       0.000000   gamma_tr=       0.000000 meV   omega=      3.8020 meV
     lambda(   2 )=       0.000000   gamma=       0.000000 meV   omega=      3.8020 meV
     lambda_tr(   2 )=       0.000000   gamma_tr=       0.000000 meV   omega=      3.8020 meV
     lambda(   3 )=       0.000000   gamma=       0.000000 meV   omega=      4.6498 meV
     lambda_tr(   3 )=       0.000000   gamma_tr=       0.000000 meV   omega=      4.6498 meV
     lambda( tot )=       0.000000
     lambda_tr( tot )=       0.000000
     -------------------------------------------------------------------


     Number of (k,k+q) pairs on the Fermi surface:      216 out of      216


     ismear =     1 iq =      20 coord.:   0.00000  0.50000  0.16667 wt:   0.00463
     -------------------------------------------------------------------
     lambda(   1 )=      -0.180254   gamma=      -0.003919 meV   omega=      2.7660 meV
     lambda_tr(   1 )=      -0.396580   gamma_tr=      -0.008623 meV   omega=      2.7660 meV
     lambda(   2 )=      -0.124119   gamma=      -0.003922 meV   omega=      3.3343 meV
     lambda_tr(   2 )=      -0.787078   gamma_tr=      -0.024868 meV   omega=      3.3343 meV
     lambda(   3 )=       0.237127   gamma=       0.022213 meV   omega=      5.7413 meV
     lambda_tr(   3 )=      -0.858422   gamma_tr=      -0.080415 meV   omega=      5.7413 meV
     lambda( tot )=      -0.067246
     lambda_tr( tot )=      -2.042080
     -------------------------------------------------------------------


     Number of (k,k+q) pairs on the Fermi surface:      216 out of      216


     ismear =     1 iq =      21 coord.:   0.00000  0.50000  0.33333 wt:   0.00463
     -------------------------------------------------------------------
     lambda(   1 )=       0.000000   gamma=       0.000000 meV   omega=     -3.0271 meV
     lambda_tr(   1 )=       0.000000   gamma_tr=       0.000000 meV   omega=     -3.0271 meV
     lambda(   2 )=       0.000000   gamma=       0.000000 meV   omega=     -2.7907 meV
     lambda_tr(   2 )=       0.000000   gamma_tr=       0.000000 meV   omega=     -2.7907 meV
     lambda(   3 )=       0.012916   gamma=       0.002235 meV   omega=      7.8031 meV
     lambda_tr(   3 )=      -0.000981   gamma_tr=      -0.000170 meV   omega=      7.8031 meV
     lambda( tot )=       0.012916
     lambda_tr( tot )=      -0.000981
     -------------------------------------------------------------------


     Number of (k,k+q) pairs on the Fermi surface:      216 out of      216


     ismear =     1 iq =      22 coord.:   0.00000  0.50000  0.50000 wt:   0.00463
     -------------------------------------------------------------------
     lambda(   1 )=       0.000000   gamma=       0.000000 meV   omega=     -4.3788 meV
     lambda_tr(   1 )=       0.000000   gamma_tr=       0.000000 meV   omega=     -4.3788 meV
     lambda(   2 )=       0.000000   gamma=       0.000000 meV   omega=     -4.3788 meV
     lambda_tr(   2 )=       0.000000   gamma_tr=       0.000000 meV   omega=     -4.3788 meV
     lambda(   3 )=       0.622347   gamma=       0.129621 meV   omega=      8.5608 meV
     lambda_tr(   3 )=       3.671482   gamma_tr=       0.764686 meV   omega=      8.5608 meV
     lambda( tot )=       0.622347
     lambda_tr( tot )=       3.671482
     -------------------------------------------------------------------


     Number of (k,k+q) pairs on the Fermi surface:      216 out of      216


     ismear =     1 iq =      23 coord.:   0.00000  0.50000  0.66667 wt:   0.00463
     -------------------------------------------------------------------
     lambda(   1 )=       0.000000   gamma=       0.000000 meV   omega=     -3.0271 meV
     lambda_tr(   1 )=       0.000000   gamma_tr=       0.000000 meV   omega=     -3.0271 meV
     lambda(   2 )=       0.000000   gamma=       0.000000 meV   omega=     -2.7907 meV
     lambda_tr(   2 )=       0.000000   gamma_tr=       0.000000 meV   omega=     -2.7907 meV
     lambda(   3 )=       0.013033   gamma=       0.002255 meV   omega=      7.8031 meV
     lambda_tr(   3 )=       0.000236   gamma_tr=       0.000041 meV   omega=      7.8031 meV
     lambda( tot )=       0.013033
     lambda_tr( tot )=       0.000236
     -------------------------------------------------------------------


     Number of (k,k+q) pairs on the Fermi surface:      216 out of      216


     ismear =     1 iq =      24 coord.:   0.00000  0.50000  0.83333 wt:   0.00463
     -------------------------------------------------------------------
     lambda(   1 )=       0.136821   gamma=       0.002975 meV   omega=      2.7660 meV
     lambda_tr(   1 )=       0.260634   gamma_tr=       0.005667 meV   omega=      2.7660 meV
     lambda(   2 )=      -0.192476   gamma=      -0.006081 meV   omega=      3.3343 meV
     lambda_tr(   2 )=      -0.853220   gamma_tr=      -0.026958 meV   omega=      3.3343 meV
     lambda(   3 )=       0.428504   gamma=       0.040141 meV   omega=      5.7413 meV
     lambda_tr(   3 )=      -0.706566   gamma_tr=      -0.066189 meV   omega=      5.7413 meV
     lambda( tot )=       0.372849
     lambda_tr( tot )=      -1.299153
     -------------------------------------------------------------------


     Number of (k,k+q) pairs on the Fermi surface:      216 out of      216


     ismear =     1 iq =      25 coord.:   0.00000  0.66667  0.00000 wt:   0.00463
     -------------------------------------------------------------------
     lambda(   1 )=       0.309512   gamma=       0.005080 meV   omega=      2.4032 meV
     lambda_tr(   1 )=     -17.619560   gamma_tr=      -0.289181 meV   omega=      2.4032 meV
     lambda(   2 )=       0.302546   gamma=       0.004966 meV   omega=      2.4032 meV
     lambda_tr(   2 )=     -17.528185   gamma_tr=      -0.287681 meV   omega=      2.4032 meV
     lambda(   3 )=       0.596711   gamma=       0.018743 meV   omega=      3.3246 meV
     lambda_tr(   3 )=     -24.160270   gamma_tr=      -0.758890 meV   omega=      3.3246 meV
     lambda( tot )=       1.208769
     lambda_tr( tot )=     -59.308015
     -------------------------------------------------------------------


     Number of (k,k+q) pairs on the Fermi surface:      216 out of      216


     ismear =     1 iq =      26 coord.:   0.00000  0.66667  0.16667 wt:   0.00463
     -------------------------------------------------------------------
     lambda(   1 )=       0.054100   gamma=       0.001864 meV   omega=      3.4821 meV
     lambda_tr(   1 )=      -0.144467   gamma_tr=      -0.004978 meV   omega=      3.4821 meV
     lambda(   2 )=       0.060661   gamma=       0.002313 meV   omega=      3.6633 meV
     lambda_tr(   2 )=       0.283573   gamma_tr=       0.010815 meV   omega=      3.6633 meV
     lambda(   3 )=       0.032602   gamma=       0.001752 meV   omega=      4.3479 meV
     lambda_tr(   3 )=      -0.129842   gamma_tr=      -0.006976 meV   omega=      4.3479 meV
     lambda( tot )=       0.147363
     lambda_tr( tot )=       0.009265
     -------------------------------------------------------------------


     Number of (k,k+q) pairs on the Fermi surface:      216 out of      216


     ismear =     1 iq =      27 coord.:   0.00000  0.66667  0.33333 wt:   0.00463
     -------------------------------------------------------------------
     lambda(   1 )=       0.172197   gamma=       0.004544 meV   omega=      3.0471 meV
     lambda_tr(   1 )=       8.447614   gamma_tr=       0.222908 meV   omega=      3.0471 meV
     lambda(   2 )=       0.365293   gamma=       0.013892 meV   omega=      3.6582 meV
     lambda_tr(   2 )=       1.446670   gamma_tr=       0.055018 meV   omega=      3.6582 meV
     lambda(   3 )=       0.128580   gamma=       0.015583 meV   omega=      6.5304 meV
     lambda_tr(   3 )=       2.148614   gamma_tr=       0.260401 meV   omega=      6.5304 meV
     lambda( tot )=       0.666069
     lambda_tr( tot )=      12.042897
     -------------------------------------------------------------------


     Number of (k,k+q) pairs on the Fermi surface:      216 out of      216


     ismear =     1 iq =      28 coord.:   0.00000  0.66667  0.50000 wt:   0.00463
     -------------------------------------------------------------------
     lambda(   1 )=       0.000000   gamma=       0.000000 meV   omega=     -3.0271 meV
     lambda_tr(   1 )=       0.000000   gamma_tr=       0.000000 meV   omega=     -3.0271 meV
     lambda(   2 )=       0.000000   gamma=       0.000000 meV   omega=     -2.7907 meV
     lambda_tr(   2 )=       0.000000   gamma_tr=       0.000000 meV   omega=     -2.7907 meV
     lambda(   3 )=       0.012240   gamma=       0.002118 meV   omega=      7.8031 meV
     lambda_tr(   3 )=      -0.000878   gamma_tr=      -0.000152 meV   omega=      7.8031 meV
     lambda( tot )=       0.012240
     lambda_tr( tot )=      -0.000878
     -------------------------------------------------------------------


     Number of (k,k+q) pairs on the Fermi surface:      216 out of      216


     ismear =     1 iq =      29 coord.:   0.00000  0.66667  0.66667 wt:   0.00463
     -------------------------------------------------------------------
     lambda(   1 )=       0.000000   gamma=       0.000000 meV   omega=     -4.5024 meV
     lambda_tr(   1 )=       0.000000   gamma_tr=       0.000000 meV   omega=     -4.5024 meV
     lambda(   2 )=       0.000000   gamma=       0.000000 meV   omega=     -4.5024 meV
     lambda_tr(   2 )=       0.000000   gamma_tr=       0.000000 meV   omega=     -4.5024 meV
     lambda(   3 )=       0.022945   gamma=       0.003419 meV   omega=      7.2413 meV
     lambda_tr(   3 )=       0.018255   gamma_tr=       0.002720 meV   omega=      7.2413 meV
     lambda( tot )=       0.022945
     lambda_tr( tot )=       0.018255
     -------------------------------------------------------------------


     Number of (k,k+q) pairs on the Fermi surface:      216 out of      216


     ismear =     1 iq =      30 coord.:   0.00000  0.66667  0.83333 wt:   0.00463
     -------------------------------------------------------------------
     lambda(   1 )=       0.000000   gamma=       0.000000 meV   omega=     -3.0769 meV
     lambda_tr(   1 )=       0.000000   gamma_tr=       0.000000 meV   omega=     -3.0769 meV
     lambda(   2 )=       0.000000   gamma=       0.000000 meV   omega=     -2.8895 meV
     lambda_tr(   2 )=       0.000000   gamma_tr=       0.000000 meV   omega=     -2.8895 meV
     lambda(   3 )=       0.009035   gamma=       0.000751 meV   omega=      5.4074 meV
     lambda_tr(   3 )=      -0.033155   gamma_tr=      -0.002755 meV   omega=      5.4074 meV
     lambda( tot )=       0.009035
     lambda_tr( tot )=      -0.033155
     -------------------------------------------------------------------


     Number of (k,k+q) pairs on the Fermi surface:      216 out of      216


     ismear =     1 iq =      31 coord.:   0.00000  0.83333  0.00000 wt:   0.00463
     -------------------------------------------------------------------
     lambda(   1 )=       0.000000   gamma=       0.000000 meV   omega=     -1.2052 meV
     lambda_tr(   1 )=       0.000000   gamma_tr=       0.000000 meV   omega=     -1.2052 meV
     lambda(   2 )=       0.000000   gamma=       0.000000 meV   omega=     -1.2052 meV
     lambda_tr(   2 )=       0.000000   gamma_tr=       0.000000 meV   omega=     -1.2052 meV
     lambda(   3 )=       0.000000   gamma=       0.000000 meV   omega=      0.4924 meV
     lambda_tr(   3 )=       0.000000   gamma_tr=       0.000000 meV   omega=      0.4924 meV
     lambda( tot )=       0.000000
     lambda_tr( tot )=       0.000000
     -------------------------------------------------------------------


     Number of (k,k+q) pairs on the Fermi surface:      216 out of      216


     ismear =     1 iq =      32 coord.:   0.00000  0.83333  0.16667 wt:   0.00463
     -------------------------------------------------------------------
     lambda(   1 )=       0.000000   gamma=       0.000000 meV   omega=     -2.7557 meV
     lambda_tr(   1 )=       0.000000   gamma_tr=       0.000000 meV   omega=     -2.7557 meV
     lambda(   2 )=      -1.564790   gamma=      -0.024607 meV   omega=      2.3523 meV
     lambda_tr(   2 )=      -3.349896   gamma_tr=      -0.052679 meV   omega=      2.3523 meV
     lambda(   3 )=       0.237326   gamma=       0.006148 meV   omega=      3.0193 meV
     lambda_tr(   3 )=      -0.205804   gamma_tr=      -0.005332 meV   omega=      3.0193 meV
     lambda( tot )=      -1.327464
     lambda_tr( tot )=      -3.555700
     -------------------------------------------------------------------


     Number of (k,k+q) pairs on the Fermi surface:      216 out of      216


     ismear =     1 iq =      33 coord.:   0.00000  0.83333  0.33333 wt:   0.00463
     -------------------------------------------------------------------
     lambda(   1 )=       0.058952   gamma=       0.002031 meV   omega=      3.4821 meV
     lambda_tr(   1 )=      -0.142540   gamma_tr=      -0.004912 meV   omega=      3.4821 meV
     lambda(   2 )=       0.056515   gamma=       0.002155 meV   omega=      3.6633 meV
     lambda_tr(   2 )=       0.287362   gamma_tr=       0.010959 meV   omega=      3.6633 meV
     lambda(   3 )=       0.036950   gamma=       0.001985 meV   omega=      4.3479 meV
     lambda_tr(   3 )=      -0.123593   gamma_tr=      -0.006640 meV   omega=      4.3479 meV
     lambda( tot )=       0.152418
     lambda_tr( tot )=       0.021229
     -------------------------------------------------------------------


     Number of (k,k+q) pairs on the Fermi surface:      216 out of      216


     ismear =     1 iq =      34 coord.:   0.00000  0.83333  0.50000 wt:   0.00463
     -------------------------------------------------------------------
     lambda(   1 )=       0.231724   gamma=       0.005038 meV   omega=      2.7660 meV
     lambda_tr(   1 )=       0.213072   gamma_tr=       0.004633 meV   omega=      2.7660 meV
     lambda(   2 )=      -0.266299   gamma=      -0.008414 meV   omega=      3.3343 meV
     lambda_tr(   2 )=      -0.879863   gamma_tr=      -0.027800 meV   omega=      3.3343 meV
     lambda(   3 )=       0.148198   gamma=       0.013883 meV   omega=      5.7413 meV
     lambda_tr(   3 )=      -0.918044   gamma_tr=      -0.086000 meV   omega=      5.7413 meV
     lambda( tot )=       0.113623
     lambda_tr( tot )=      -1.584836
     -------------------------------------------------------------------


     Number of (k,k+q) pairs on the Fermi surface:      216 out of      216


     ismear =     1 iq =      35 coord.:   0.00000  0.83333  0.66667 wt:   0.00463
     -------------------------------------------------------------------
     lambda(   1 )=       0.000000   gamma=       0.000000 meV   omega=     -3.0769 meV
     lambda_tr(   1 )=       0.000000   gamma_tr=       0.000000 meV   omega=     -3.0769 meV
     lambda(   2 )=       0.000000   gamma=       0.000000 meV   omega=     -2.8895 meV
     lambda_tr(   2 )=       0.000000   gamma_tr=       0.000000 meV   omega=     -2.8895 meV
     lambda(   3 )=       0.009622   gamma=       0.000800 meV   omega=      5.4074 meV
     lambda_tr(   3 )=      -0.031515   gamma_tr=      -0.002619 meV   omega=      5.4074 meV
     lambda( tot )=       0.009622
     lambda_tr( tot )=      -0.031515
     -------------------------------------------------------------------


     Number of (k,k+q) pairs on the Fermi surface:      216 out of      216


     ismear =     1 iq =      36 coord.:   0.00000  0.83333  0.83333 wt:   0.00463
     -------------------------------------------------------------------
     lambda(   1 )=       0.000000   gamma=       0.000000 meV   omega=     -3.2687 meV
     lambda_tr(   1 )=       0.000000   gamma_tr=       0.000000 meV   omega=     -3.2687 meV
     lambda(   2 )=       0.000000   gamma=       0.000000 meV   omega=     -3.2687 meV
     lambda_tr(   2 )=       0.000000   gamma_tr=       0.000000 meV   omega=     -3.2687 meV
     lambda(   3 )=       0.232022   gamma=       0.010413 meV   omega=      3.9739 meV
     lambda_tr(   3 )=       0.089880   gamma_tr=       0.004034 meV   omega=      3.9739 meV
     lambda( tot )=       0.232022
     lambda_tr( tot )=       0.089880
     -------------------------------------------------------------------


     Number of (k,k+q) pairs on the Fermi surface:      216 out of      216


     ismear =     1 iq =      37 coord.:   0.16667  0.00000  0.00000 wt:   0.00463
     -------------------------------------------------------------------
     lambda(   1 )=       0.000000   gamma=       0.000000 meV   omega=     -1.2052 meV
     lambda_tr(   1 )=       0.000000   gamma_tr=       0.000000 meV   omega=     -1.2052 meV
     lambda(   2 )=       0.000000   gamma=       0.000000 meV   omega=     -1.2052 meV
     lambda_tr(   2 )=       0.000000   gamma_tr=       0.000000 meV   omega=     -1.2052 meV
     lambda(   3 )=       0.000000   gamma=       0.000000 meV   omega=      0.4924 meV
     lambda_tr(   3 )=       0.000000   gamma_tr=       0.000000 meV   omega=      0.4924 meV
     lambda( tot )=       0.000000
     lambda_tr( tot )=       0.000000
     -------------------------------------------------------------------


     Number of (k,k+q) pairs on the Fermi surface:      216 out of      216


     ismear =     1 iq =      38 coord.:   0.16667  0.00000  0.16667 wt:   0.00463
     -------------------------------------------------------------------
     lambda(   1 )=       0.000000   gamma=       0.000000 meV   omega=     -3.2687 meV
     lambda_tr(   1 )=       0.000000   gamma_tr=       0.000000 meV   omega=     -3.2687 meV
     lambda(   2 )=       0.000000   gamma=       0.000000 meV   omega=     -3.2687 meV
     lambda_tr(   2 )=       0.000000   gamma_tr=       0.000000 meV   omega=     -3.2687 meV
     lambda(   3 )=       0.226632   gamma=       0.010171 meV   omega=      3.9739 meV
     lambda_tr(   3 )=       0.077381   gamma_tr=       0.003473 meV   omega=      3.9739 meV
     lambda( tot )=       0.226632
     lambda_tr( tot )=       0.077381
     -------------------------------------------------------------------


     Number of (k,k+q) pairs on the Fermi surface:      216 out of      216


     ismear =     1 iq =      39 coord.:   0.16667  0.00000  0.33333 wt:   0.00463
     -------------------------------------------------------------------
     lambda(   1 )=       0.000000   gamma=       0.000000 meV   omega=     -3.0769 meV
     lambda_tr(   1 )=       0.000000   gamma_tr=       0.000000 meV   omega=     -3.0769 meV
     lambda(   2 )=       0.000000   gamma=       0.000000 meV   omega=     -2.8895 meV
     lambda_tr(   2 )=       0.000000   gamma_tr=       0.000000 meV   omega=     -2.8895 meV
     lambda(   3 )=       0.009534   gamma=       0.000792 meV   omega=      5.4074 meV
     lambda_tr(   3 )=      -0.038271   gamma_tr=      -0.003180 meV   omega=      5.4074 meV
     lambda( tot )=       0.009534
     lambda_tr( tot )=      -0.038271
     -------------------------------------------------------------------


     Number of (k,k+q) pairs on the Fermi surface:      216 out of      216


     ismear =     1 iq =      40 coord.:   0.16667  0.00000  0.50000 wt:   0.00463
     -------------------------------------------------------------------
     lambda(   1 )=      -0.925488   gamma=      -0.020123 meV   omega=      2.7660 meV
     lambda_tr(   1 )=      -0.443541   gamma_tr=      -0.009644 meV   omega=      2.7660 meV
     lambda(   2 )=      -0.474828   gamma=      -0.015002 meV   omega=      3.3343 meV
     lambda_tr(   2 )=      -1.118561   gamma_tr=      -0.035342 meV   omega=      3.3343 meV
     lambda(   3 )=       0.240067   gamma=       0.022489 meV   omega=      5.7413 meV
     lambda_tr(   3 )=      -0.863489   gamma_tr=      -0.080889 meV   omega=      5.7413 meV
     lambda( tot )=      -1.160250
     lambda_tr( tot )=      -2.425591
     -------------------------------------------------------------------


     Number of (k,k+q) pairs on the Fermi surface:      216 out of      216


     ismear =     1 iq =      41 coord.:   0.16667  0.00000  0.66667 wt:   0.00463
     -------------------------------------------------------------------
     lambda(   1 )=       0.058259   gamma=       0.002008 meV   omega=      3.4821 meV
     lambda_tr(   1 )=      -0.149464   gamma_tr=      -0.005150 meV   omega=      3.4821 meV
     lambda(   2 )=       0.063967   gamma=       0.002440 meV   omega=      3.6633 meV
     lambda_tr(   2 )=       0.291069   gamma_tr=       0.011101 meV   omega=      3.6633 meV
     lambda(   3 )=       0.039742   gamma=       0.002135 meV   omega=      4.3479 meV
     lambda_tr(   3 )=      -0.125195   gamma_tr=      -0.006726 meV   omega=      4.3479 meV
     lambda( tot )=       0.161969
     lambda_tr( tot )=       0.016410
     -------------------------------------------------------------------


     Number of (k,k+q) pairs on the Fermi surface:      216 out of      216


     ismear =     1 iq =      42 coord.:   0.16667  0.00000  0.83333 wt:   0.00463
     -------------------------------------------------------------------
     lambda(   1 )=       0.000000   gamma=       0.000000 meV   omega=     -2.7557 meV
     lambda_tr(   1 )=       0.000000   gamma_tr=       0.000000 meV   omega=     -2.7557 meV
     lambda(   2 )=      -2.996571   gamma=      -0.047123 meV   omega=      2.3523 meV
     lambda_tr(   2 )=      -4.667045   gamma_tr=      -0.073392 meV   omega=      2.3523 meV
     lambda(   3 )=      -0.054660   gamma=      -0.001416 meV   omega=      3.0193 meV
     lambda_tr(   3 )=      -0.496559   gamma_tr=      -0.012864 meV   omega=      3.0193 meV
     lambda( tot )=      -3.051231
     lambda_tr( tot )=      -5.163604
     -------------------------------------------------------------------


     Number of (k,k+q) pairs on the Fermi surface:      216 out of      216


     ismear =     1 iq =      43 coord.:   0.16667  0.16667  0.00000 wt:   0.00463
     -------------------------------------------------------------------
     lambda(   1 )=       0.000000   gamma=       0.000000 meV   omega=     -3.2687 meV
     lambda_tr(   1 )=       0.000000   gamma_tr=       0.000000 meV   omega=     -3.2687 meV
     lambda(   2 )=       0.000000   gamma=       0.000000 meV   omega=     -3.2687 meV
     lambda_tr(   2 )=       0.000000   gamma_tr=       0.000000 meV   omega=     -3.2687 meV
     lambda(   3 )=       0.230585   gamma=       0.010348 meV   omega=      3.9739 meV
     lambda_tr(   3 )=       0.084765   gamma_tr=       0.003804 meV   omega=      3.9739 meV
     lambda( tot )=       0.230585
     lambda_tr( tot )=       0.084765
     -------------------------------------------------------------------


     Number of (k,k+q) pairs on the Fermi surface:      216 out of      216


     ismear =     1 iq =      44 coord.:   0.16667  0.16667  0.16667 wt:   0.00463
     -------------------------------------------------------------------
     lambda(   1 )=       0.000000   gamma=       0.000000 meV   omega=     -1.2052 meV
     lambda_tr(   1 )=       0.000000   gamma_tr=       0.000000 meV   omega=     -1.2052 meV
     lambda(   2 )=       0.000000   gamma=       0.000000 meV   omega=     -1.2052 meV
     lambda_tr(   2 )=       0.000000   gamma_tr=       0.000000 meV   omega=     -1.2052 meV
     lambda(   3 )=       0.000000   gamma=       0.000000 meV   omega=      0.4924 meV
     lambda_tr(   3 )=       0.000000   gamma_tr=       0.000000 meV   omega=      0.4924 meV
     lambda( tot )=       0.000000
     lambda_tr( tot )=       0.000000
     -------------------------------------------------------------------


     Number of (k,k+q) pairs on the Fermi surface:      216 out of      216


     ismear =     1 iq =      45 coord.:   0.16667  0.16667  0.33333 wt:   0.00463
     -------------------------------------------------------------------
     lambda(   1 )=       0.000000   gamma=       0.000000 meV   omega=     -2.7557 meV
     lambda_tr(   1 )=       0.000000   gamma_tr=       0.000000 meV   omega=     -2.7557 meV
     lambda(   2 )=      -0.584696   gamma=      -0.009195 meV   omega=      2.3523 meV
     lambda_tr(   2 )=      -2.507690   gamma_tr=      -0.039435 meV   omega=      2.3523 meV
     lambda(   3 )=       0.850000   gamma=       0.022021 meV   omega=      3.0193 meV
     lambda_tr(   3 )=       0.404979   gamma_tr=       0.010492 meV   omega=      3.0193 meV
     lambda( tot )=       0.265303
     lambda_tr( tot )=      -2.102711
     -------------------------------------------------------------------


     Number of (k,k+q) pairs on the Fermi surface:      216 out of      216


     ismear =     1 iq =      46 coord.:   0.16667  0.16667  0.50000 wt:   0.00463
     -------------------------------------------------------------------
     lambda(   1 )=       0.058183   gamma=       0.002005 meV   omega=      3.4821 meV
     lambda_tr(   1 )=      -0.158826   gamma_tr=      -0.005473 meV   omega=      3.4821 meV
     lambda(   2 )=       0.055299   gamma=       0.002109 meV   omega=      3.6633 meV
     lambda_tr(   2 )=       0.302275   gamma_tr=       0.011528 meV   omega=      3.6633 meV
     lambda(   3 )=       0.037823   gamma=       0.002032 meV   omega=      4.3479 meV
     lambda_tr(   3 )=      -0.120334   gamma_tr=      -0.006465 meV   omega=      4.3479 meV
     lambda( tot )=       0.151305
     lambda_tr( tot )=       0.023114
     -------------------------------------------------------------------


     Number of (k,k+q) pairs on the Fermi surface:      216 out of      216


     ismear =     1 iq =      47 coord.:   0.16667  0.16667  0.66667 wt:   0.00463
     -------------------------------------------------------------------
     lambda(   1 )=       0.686337   gamma=       0.014923 meV   omega=      2.7660 meV
     lambda_tr(   1 )=       0.114594   gamma_tr=       0.002492 meV   omega=      2.7660 meV
     lambda(   2 )=       0.019751   gamma=       0.000624 meV   omega=      3.3343 meV
     lambda_tr(   2 )=      -0.613897   gamma_tr=      -0.019396 meV   omega=      3.3343 meV
     lambda(   3 )=       0.255205   gamma=       0.023907 meV   omega=      5.7413 meV
     lambda_tr(   3 )=      -0.870022   gamma_tr=      -0.081501 meV   omega=      5.7413 meV
     lambda( tot )=       0.961292
     lambda_tr( tot )=      -1.369326
     -------------------------------------------------------------------


     Number of (k,k+q) pairs on the Fermi surface:      216 out of      216


     ismear =     1 iq =      48 coord.:   0.16667  0.16667  0.83333 wt:   0.00463
     -------------------------------------------------------------------
     lambda(   1 )=       0.000000   gamma=       0.000000 meV   omega=     -3.0769 meV
     lambda_tr(   1 )=       0.000000   gamma_tr=       0.000000 meV   omega=     -3.0769 meV
     lambda(   2 )=       0.000000   gamma=       0.000000 meV   omega=     -2.8895 meV
     lambda_tr(   2 )=       0.000000   gamma_tr=       0.000000 meV   omega=     -2.8895 meV
     lambda(   3 )=       0.010180   gamma=       0.000846 meV   omega=      5.4074 meV
     lambda_tr(   3 )=      -0.035155   gamma_tr=      -0.002921 meV   omega=      5.4074 meV
     lambda( tot )=       0.010180
     lambda_tr( tot )=      -0.035155
     -------------------------------------------------------------------


     Number of (k,k+q) pairs on the Fermi surface:      216 out of      216


     ismear =     1 iq =      49 coord.:   0.16667  0.33333  0.00000 wt:   0.00463
     -------------------------------------------------------------------
     lambda(   1 )=       0.000000   gamma=       0.000000 meV   omega=     -3.0769 meV
     lambda_tr(   1 )=       0.000000   gamma_tr=       0.000000 meV   omega=     -3.0769 meV
     lambda(   2 )=       0.000000   gamma=       0.000000 meV   omega=     -2.8895 meV
     lambda_tr(   2 )=       0.000000   gamma_tr=       0.000000 meV   omega=     -2.8895 meV
     lambda(   3 )=       0.009767   gamma=       0.000812 meV   omega=      5.4074 meV
     lambda_tr(   3 )=      -0.034350   gamma_tr=      -0.002854 meV   omega=      5.4074 meV
     lambda( tot )=       0.009767
     lambda_tr( tot )=      -0.034350
     -------------------------------------------------------------------


     Number of (k,k+q) pairs on the Fermi surface:      216 out of      216


     ismear =     1 iq =      50 coord.:   0.16667  0.33333  0.16667 wt:   0.00463
     -------------------------------------------------------------------
     lambda(   1 )=       0.000000   gamma=       0.000000 meV   omega=     -2.7557 meV
     lambda_tr(   1 )=       0.000000   gamma_tr=       0.000000 meV   omega=     -2.7557 meV
     lambda(   2 )=      -2.130254   gamma=      -0.033500 meV   omega=      2.3523 meV
     lambda_tr(   2 )=      -3.876784   gamma_tr=      -0.060965 meV   omega=      2.3523 meV
     lambda(   3 )=       0.256642   gamma=       0.006649 meV   omega=      3.0193 meV
     lambda_tr(   3 )=      -0.192767   gamma_tr=      -0.004994 meV   omega=      3.0193 meV
     lambda( tot )=      -1.873612
     lambda_tr( tot )=      -4.069551
     -------------------------------------------------------------------


     Number of (k,k+q) pairs on the Fermi surface:      216 out of      216


     ismear =     1 iq =      51 coord.:   0.16667  0.33333  0.33333 wt:   0.00463
     -------------------------------------------------------------------
     lambda(   1 )=       0.000000   gamma=       0.000000 meV   omega=     -3.0769 meV
     lambda_tr(   1 )=       0.000000   gamma_tr=       0.000000 meV   omega=     -3.0769 meV
     lambda(   2 )=       0.000000   gamma=       0.000000 meV   omega=     -2.8895 meV
     lambda_tr(   2 )=       0.000000   gamma_tr=       0.000000 meV   omega=     -2.8895 meV
     lambda(   3 )=       0.009732   gamma=       0.000809 meV   omega=      5.4074 meV
     lambda_tr(   3 )=      -0.040623   gamma_tr=      -0.003376 meV   omega=      5.4074 meV
     lambda( tot )=       0.009732
     lambda_tr( tot )=      -0.040623
     -------------------------------------------------------------------


     Number of (k,k+q) pairs on the Fermi surface:      216 out of      216


     ismear =     1 iq =      52 coord.:   0.16667  0.33333  0.50000 wt:   0.00463
     -------------------------------------------------------------------
     lambda(   1 )=       0.000000   gamma=       0.000000 meV   omega=     -2.1690 meV
     lambda_tr(   1 )=       0.000000   gamma_tr=       0.000000 meV   omega=     -2.1690 meV
     lambda(   2 )=       8.038727   gamma=       0.081594 meV   omega=      1.8899 meV
     lambda_tr(   2 )=     -26.305288   gamma_tr=      -0.267000 meV   omega=      1.8899 meV
     lambda(   3 )=       0.146981   gamma=       0.017412 meV   omega=      6.4564 meV
     lambda_tr(   3 )=       0.902349   gamma_tr=       0.106897 meV   omega=      6.4564 meV
     lambda( tot )=       8.185709
     lambda_tr( tot )=     -25.402939
     -------------------------------------------------------------------


     Number of (k,k+q) pairs on the Fermi surface:      216 out of      216


     ismear =     1 iq =      53 coord.:   0.16667  0.33333  0.66667 wt:   0.00463
     -------------------------------------------------------------------
     lambda(   1 )=      -0.167570   gamma=      -0.000375 meV   omega=      0.8871 meV
     lambda_tr(   1 )=       1.987064   gamma_tr=       0.004444 meV   omega=      0.8871 meV
     lambda(   2 )=       0.007553   gamma=       0.000679 meV   omega=      5.6224 meV
     lambda_tr(   2 )=      -0.002124   gamma_tr=      -0.000191 meV   omega=      5.6224 meV
     lambda(   3 )=       0.033043   gamma=       0.003091 meV   omega=      5.7371 meV
     lambda_tr(   3 )=       0.183128   gamma_tr=       0.017130 meV   omega=      5.7371 meV
     lambda( tot )=      -0.126974
     lambda_tr( tot )=       2.168069
     -------------------------------------------------------------------


     Number of (k,k+q) pairs on the Fermi surface:      216 out of      216


     ismear =     1 iq =      54 coord.:   0.16667  0.33333  0.83333 wt:   0.00463
     -------------------------------------------------------------------
     lambda(   1 )=       0.000000   gamma=       0.000000 meV   omega=     -2.1690 meV
     lambda_tr(   1 )=       0.000000   gamma_tr=       0.000000 meV   omega=     -2.1690 meV
     lambda(   2 )=       6.477236   gamma=       0.065744 meV   omega=      1.8899 meV
     lambda_tr(   2 )=     -28.505727   gamma_tr=      -0.289335 meV   omega=      1.8899 meV
     lambda(   3 )=       0.216535   gamma=       0.025652 meV   omega=      6.4564 meV
     lambda_tr(   3 )=       0.889951   gamma_tr=       0.105428 meV   omega=      6.4564 meV
     lambda( tot )=       6.693771
     lambda_tr( tot )=     -27.615777
     -------------------------------------------------------------------


     Number of (k,k+q) pairs on the Fermi surface:      216 out of      216


     ismear =     1 iq =      55 coord.:   0.16667  0.50000  0.00000 wt:   0.00463
     -------------------------------------------------------------------
     lambda(   1 )=       0.709442   gamma=       0.015426 meV   omega=      2.7660 meV
     lambda_tr(   1 )=       0.513976   gamma_tr=       0.011175 meV   omega=      2.7660 meV
     lambda(   2 )=      -0.098328   gamma=      -0.003107 meV   omega=      3.3343 meV
     lambda_tr(   2 )=      -0.719861   gamma_tr=      -0.022744 meV   omega=      3.3343 meV
     lambda(   3 )=       0.211612   gamma=       0.019823 meV   omega=      5.7413 meV
     lambda_tr(   3 )=      -0.902079   gamma_tr=      -0.084504 meV   omega=      5.7413 meV
     lambda( tot )=       0.822726
     lambda_tr( tot )=      -1.107964
     -------------------------------------------------------------------


     Number of (k,k+q) pairs on the Fermi surface:      216 out of      216


     ismear =     1 iq =      56 coord.:   0.16667  0.50000  0.16667 wt:   0.00463
     -------------------------------------------------------------------
     lambda(   1 )=       0.061542   gamma=       0.002121 meV   omega=      3.4821 meV
     lambda_tr(   1 )=      -0.134405   gamma_tr=      -0.004631 meV   omega=      3.4821 meV
     lambda(   2 )=       0.062259   gamma=       0.002374 meV   omega=      3.6633 meV
     lambda_tr(   2 )=       0.294099   gamma_tr=       0.011216 meV   omega=      3.6633 meV
     lambda(   3 )=       0.037114   gamma=       0.001994 meV   omega=      4.3479 meV
     lambda_tr(   3 )=      -0.132022   gamma_tr=      -0.007093 meV   omega=      4.3479 meV
     lambda( tot )=       0.160915
     lambda_tr( tot )=       0.027672
     -------------------------------------------------------------------


     Number of (k,k+q) pairs on the Fermi surface:      216 out of      216


     ismear =     1 iq =      57 coord.:   0.16667  0.50000  0.33333 wt:   0.00463
     -------------------------------------------------------------------
     lambda(   1 )=       0.000000   gamma=       0.000000 meV   omega=     -2.1690 meV
     lambda_tr(   1 )=       0.000000   gamma_tr=       0.000000 meV   omega=     -2.1690 meV
     lambda(   2 )=       4.597278   gamma=       0.046663 meV   omega=      1.8899 meV
     lambda_tr(   2 )=     -31.177970   gamma_tr=      -0.316458 meV   omega=      1.8899 meV
     lambda(   3 )=       0.153626   gamma=       0.018199 meV   omega=      6.4564 meV
     lambda_tr(   3 )=       0.827460   gamma_tr=       0.098025 meV   omega=      6.4564 meV
     lambda( tot )=       4.750903
     lambda_tr( tot )=     -30.350510
     -------------------------------------------------------------------


     Number of (k,k+q) pairs on the Fermi surface:      216 out of      216


     ismear =     1 iq =      58 coord.:   0.16667  0.50000  0.50000 wt:   0.00463
     -------------------------------------------------------------------
     lambda(   1 )=       0.000000   gamma=       0.000000 meV   omega=     -3.0271 meV
     lambda_tr(   1 )=       0.000000   gamma_tr=       0.000000 meV   omega=     -3.0271 meV
     lambda(   2 )=       0.000000   gamma=       0.000000 meV   omega=     -2.7907 meV
     lambda_tr(   2 )=       0.000000   gamma_tr=       0.000000 meV   omega=     -2.7907 meV
     lambda(   3 )=       0.013424   gamma=       0.002323 meV   omega=      7.8031 meV
     lambda_tr(   3 )=      -0.000931   gamma_tr=      -0.000161 meV   omega=      7.8031 meV
     lambda( tot )=       0.013424
     lambda_tr( tot )=      -0.000931
     -------------------------------------------------------------------


     Number of (k,k+q) pairs on the Fermi surface:      216 out of      216


     ismear =     1 iq =      59 coord.:   0.16667  0.50000  0.66667 wt:   0.00463
     -------------------------------------------------------------------
     lambda(   1 )=       0.000000   gamma=       0.000000 meV   omega=     -2.8475 meV
     lambda_tr(   1 )=       0.000000   gamma_tr=       0.000000 meV   omega=     -2.8475 meV
     lambda(   2 )=       0.508571   gamma=       0.016833 meV   omega=      3.4127 meV
     lambda_tr(   2 )=       0.488235   gamma_tr=       0.016160 meV   omega=      3.4127 meV
     lambda(   3 )=       0.112603   gamma=       0.018521 meV   omega=      7.6077 meV
     lambda_tr(   3 )=       0.122114   gamma_tr=       0.020085 meV   omega=      7.6077 meV
     lambda( tot )=       0.621174
     lambda_tr( tot )=       0.610349
     -------------------------------------------------------------------


     Number of (k,k+q) pairs on the Fermi surface:      216 out of      216


     ismear =     1 iq =      60 coord.:   0.16667  0.50000  0.83333 wt:   0.00463
     -------------------------------------------------------------------
     lambda(   1 )=      -0.227494   gamma=      -0.000509 meV   omega=      0.8871 meV
     lambda_tr(   1 )=       1.793769   gamma_tr=       0.004011 meV   omega=      0.8871 meV
     lambda(   2 )=       0.007224   gamma=       0.000649 meV   omega=      5.6224 meV
     lambda_tr(   2 )=      -0.001714   gamma_tr=      -0.000154 meV   omega=      5.6224 meV
     lambda(   3 )=       0.032873   gamma=       0.003075 meV   omega=      5.7371 meV
     lambda_tr(   3 )=       0.181078   gamma_tr=       0.016938 meV   omega=      5.7371 meV
     lambda( tot )=      -0.187397
     lambda_tr( tot )=       1.973133
     -------------------------------------------------------------------


     Number of (k,k+q) pairs on the Fermi surface:      216 out of      216


     ismear =     1 iq =      61 coord.:   0.16667  0.66667  0.00000 wt:   0.00463
     -------------------------------------------------------------------
     lambda(   1 )=       0.059859   gamma=       0.002063 meV   omega=      3.4821 meV
     lambda_tr(   1 )=      -0.157512   gamma_tr=      -0.005428 meV   omega=      3.4821 meV
     lambda(   2 )=       0.056293   gamma=       0.002147 meV   omega=      3.6633 meV
     lambda_tr(   2 )=       0.279518   gamma_tr=       0.010660 meV   omega=      3.6633 meV
     lambda(   3 )=       0.034513   gamma=       0.001854 meV   omega=      4.3479 meV
     lambda_tr(   3 )=      -0.130417   gamma_tr=      -0.007007 meV   omega=      4.3479 meV
     lambda( tot )=       0.150664
     lambda_tr( tot )=      -0.008412
     -------------------------------------------------------------------


     Number of (k,k+q) pairs on the Fermi surface:      216 out of      216


     ismear =     1 iq =      62 coord.:   0.16667  0.66667  0.16667 wt:   0.00463
     -------------------------------------------------------------------
     lambda(   1 )=      -0.537248   gamma=      -0.011681 meV   omega=      2.7660 meV
     lambda_tr(   1 )=       0.068037   gamma_tr=       0.001479 meV   omega=      2.7660 meV
     lambda(   2 )=      -0.280067   gamma=      -0.008849 meV   omega=      3.3343 meV
     lambda_tr(   2 )=      -0.885099   gamma_tr=      -0.027965 meV   omega=      3.3343 meV
     lambda(   3 )=       0.091402   gamma=       0.008562 meV   omega=      5.7413 meV
     lambda_tr(   3 )=      -0.967338   gamma_tr=      -0.090618 meV   omega=      5.7413 meV
     lambda( tot )=      -0.725913
     lambda_tr( tot )=      -1.784400
     -------------------------------------------------------------------


     Number of (k,k+q) pairs on the Fermi surface:      216 out of      216


     ismear =     1 iq =      63 coord.:   0.16667  0.66667  0.33333 wt:   0.00463
     -------------------------------------------------------------------
     lambda(   1 )=      -0.402435   gamma=      -0.000900 meV   omega=      0.8871 meV
     lambda_tr(   1 )=       1.436314   gamma_tr=       0.003212 meV   omega=      0.8871 meV
     lambda(   2 )=       0.006048   gamma=       0.000543 meV   omega=      5.6224 meV
     lambda_tr(   2 )=      -0.001399   gamma_tr=      -0.000126 meV   omega=      5.6224 meV
     lambda(   3 )=       0.031057   gamma=       0.002905 meV   omega=      5.7371 meV
     lambda_tr(   3 )=       0.174447   gamma_tr=       0.016318 meV   omega=      5.7371 meV
     lambda( tot )=      -0.365331
     lambda_tr( tot )=       1.609361
     -------------------------------------------------------------------


     Number of (k,k+q) pairs on the Fermi surface:      216 out of      216


     ismear =     1 iq =      64 coord.:   0.16667  0.66667  0.50000 wt:   0.00463
     -------------------------------------------------------------------
     lambda(   1 )=       0.000000   gamma=       0.000000 meV   omega=     -2.8475 meV
     lambda_tr(   1 )=       0.000000   gamma_tr=       0.000000 meV   omega=     -2.8475 meV
     lambda(   2 )=       0.214811   gamma=       0.007110 meV   omega=      3.4127 meV
     lambda_tr(   2 )=       0.200077   gamma_tr=       0.006622 meV   omega=      3.4127 meV
     lambda(   3 )=       0.112017   gamma=       0.018425 meV   omega=      7.6077 meV
     lambda_tr(   3 )=       0.118790   gamma_tr=       0.019539 meV   omega=      7.6077 meV
     lambda( tot )=       0.326827
     lambda_tr( tot )=       0.318867
     -------------------------------------------------------------------


     Number of (k,k+q) pairs on the Fermi surface:      216 out of      216


     ismear =     1 iq =      65 coord.:   0.16667  0.66667  0.66667 wt:   0.00463
     -------------------------------------------------------------------
     lambda(   1 )=       0.000000   gamma=       0.000000 meV   omega=     -3.0271 meV
     lambda_tr(   1 )=       0.000000   gamma_tr=       0.000000 meV   omega=     -3.0271 meV
     lambda(   2 )=       0.000000   gamma=       0.000000 meV   omega=     -2.7907 meV
     lambda_tr(   2 )=       0.000000   gamma_tr=       0.000000 meV   omega=     -2.7907 meV
     lambda(   3 )=       0.012726   gamma=       0.002202 meV   omega=      7.8031 meV
     lambda_tr(   3 )=       0.000564   gamma_tr=       0.000098 meV   omega=      7.8031 meV
     lambda( tot )=       0.012726
     lambda_tr( tot )=       0.000564
     -------------------------------------------------------------------


     Number of (k,k+q) pairs on the Fermi surface:      216 out of      216


     ismear =     1 iq =      66 coord.:   0.16667  0.66667  0.83333 wt:   0.00463
     -------------------------------------------------------------------
     lambda(   1 )=       0.000000   gamma=       0.000000 meV   omega=     -2.1690 meV
     lambda_tr(   1 )=       0.000000   gamma_tr=       0.000000 meV   omega=     -2.1690 meV
     lambda(   2 )=       7.659841   gamma=       0.077748 meV   omega=      1.8899 meV
     lambda_tr(   2 )=     -28.535916   gamma_tr=      -0.289641 meV   omega=      1.8899 meV
     lambda(   3 )=       0.162239   gamma=       0.019220 meV   omega=      6.4564 meV
     lambda_tr(   3 )=       0.822349   gamma_tr=       0.097420 meV   omega=      6.4564 meV
     lambda( tot )=       7.822079
     lambda_tr( tot )=     -27.713567
     -------------------------------------------------------------------


     Number of (k,k+q) pairs on the Fermi surface:      216 out of      216


     ismear =     1 iq =      67 coord.:   0.16667  0.83333  0.00000 wt:   0.00463
     -------------------------------------------------------------------
     lambda(   1 )=       0.000000   gamma=       0.000000 meV   omega=     -2.7557 meV
     lambda_tr(   1 )=       0.000000   gamma_tr=       0.000000 meV   omega=     -2.7557 meV
     lambda(   2 )=      -1.861403   gamma=      -0.029272 meV   omega=      2.3523 meV
[...]
      203        7      4.0215    399.6528    811.7972     -5.7475     -1.1740
      204        7      5.4585    304.0992    318.9438      1.7587     -0.4314
      205        7      5.5884    476.6000    463.0003      5.6831     -0.8240
      206        7      4.0221    400.4841    810.2205     -5.6023     -1.1785
      207        7      2.9592    349.5071   1600.2819     -0.5785     -2.7287
      208        7      4.0214    402.8254    834.2350     -4.7581     -1.2102
      209        7      5.5890    480.8166    446.4067      4.6670     -0.7857
      210        7      6.8740    295.7044     91.1002      1.0968     -0.0882
      211        7      6.7122    278.8141    173.6329      1.3074     -0.2352
      212        7      5.5884    473.9356    457.7448      5.5180     -0.8188
      213        7      4.6673    440.8596    270.1645      1.3520     -0.2604
      214        7      5.4585    302.1778    318.1664      1.7262     -0.4207
      215        7      6.8732    293.6408     90.3573      1.0949     -0.0867
      216        7      7.7957    231.7013     12.9442      1.0006     -0.0006
  
        1        8      8.2862    180.0196      0.0000      0.9790      0.0214
        2        8      7.7982    232.2326     12.9522      1.0004     -0.0004
        3        8      6.7126    353.8379    101.2782      1.1278     -0.1133
        4        8      6.1174    301.8205     24.5536      0.8662      0.1544
        5        8      6.7126    350.7469    102.8001      1.1403     -0.1231
        6        8      7.7982    232.1060     12.9477      1.0008     -0.0008
        7        8      7.7982    232.9092     14.0242      1.0034     -0.0034
        8        8      6.7129    277.0964    176.5703      1.3117     -0.2376
        9        8      5.5908    478.0395    449.7116      4.8966     -0.7958
       10        8      4.6703    448.9098    279.4398      1.4054     -0.2885
       11        8      5.4617    306.3455    327.1943      1.7842     -0.4395
       12        8      6.8817    293.1646     85.4888      1.0839     -0.0774
       13        8      6.7126    350.5082    105.6774      1.1453     -0.1269
       14        8      5.5908    479.8563    460.1257      5.8433     -0.8289
       15        8      3.4267    241.9535    182.1873      0.9802      0.0202
       16        8      2.3802    -68.1434    524.8115      2.1178     -0.5278
       17        8      3.4954    564.8790    459.3828      1.6613     -0.3981
       18        8      5.4617    306.2359    315.2022      1.7250     -0.4203
       19        8      6.1174    302.3733     24.4630      0.8670      0.1534
       20        8      4.6703    447.9431    286.7257      1.4462     -0.3085
       21        8      2.3802    -64.8105    520.4942      2.0894     -0.5214
       22        8      1.7131    321.7561     10.7402      0.7767      0.2875
       23        8      2.3802    -67.1131    529.7865      2.1855     -0.5424
       24        8      4.6703    450.7889    268.9989      1.3553     -0.2622
       25        8      6.7126    354.9770    105.0443      1.1372     -0.1206
       26        8      5.4617    307.5318    330.0234      1.8264     -0.4525
       27        8      3.4954    589.5812    494.6068      1.9330     -0.4827
       28        8      2.3802    -66.5314    526.8815      2.1933     -0.5441
       29        8      3.4267    242.1946    192.7975      1.0049     -0.0049
       30        8      5.5908    481.5091    447.2189      4.6629     -0.7855
       31        8      7.7982    231.6773     12.5773      0.9996      0.0004
       32        8      6.8817    296.4453     86.5017      1.0904     -0.0829
       33        8      5.4617    309.3490    321.4199      1.7878     -0.4407
       34        8      4.6703    446.2744    276.0368      1.3821     -0.2765
       35        8      5.5908    483.5290    448.8124      4.9257     -0.7970
       36        8      6.7129    280.1754    163.9096      1.2812     -0.2195
       37        8      7.7982    231.7956     13.6392      1.0026     -0.0026
       38        8      6.7129    279.3441    169.1311      1.2960     -0.2284
       39        8      5.5908    479.0656    460.9370      5.5383     -0.8194
       40        8      4.6703    448.5642    280.7669      1.4106     -0.2911
       41        8      5.4617    306.5138    323.8864      1.7840     -0.4395
       42        8      6.8817    293.5311     84.8630      1.0839     -0.0774
       43        8      6.7122    281.1383    172.2473      1.3104     -0.2369
       44        8      7.7982    232.1279     12.4666      0.9993      0.0007
       45        8      6.8827    293.1811     82.2429      1.0824     -0.0761
       46        8      5.4623    307.4852    323.8388      1.8110     -0.4478
       47        8      4.6689    448.7460    284.4514      1.4361     -0.3037
       48        8      5.5902    482.6068    458.7019      5.4396     -0.8162
       49        8      5.5902    476.6252    450.4976      5.1274     -0.8050
       50        8      6.8817    293.6757     85.5956      1.0871     -0.0802
       51        8      5.5908    481.4111    453.2345      5.2296     -0.8088
       52        8      4.0623    493.3857    877.8653     -2.4942     -1.4009
       53        8      2.9909    465.4747   1386.9365     -1.5480     -1.6460
       54        8      4.0609    486.7825    892.6305     -2.3354     -1.4282
       55        8      4.6689    443.0626    275.7007      1.3973     -0.2843
       56        8      5.4617    309.0570    317.7923      1.7584     -0.4313
       57        8      4.0621    499.3642    892.2525     -2.4526     -1.4077
       58        8      2.3802    -70.3821    527.0650      2.1667     -0.5385
       59        8      1.4397    390.5244    357.5869      1.0498     -0.0475
       60        8      2.9909    458.4878   1372.0629     -1.6003     -1.6249
       61        8      5.4623    305.3817    329.0022      1.8326     -0.4543
       62        8      4.6703    446.9269    276.2147      1.3868     -0.2789
       63        8      2.9903    453.6821   1367.0819     -1.5988     -1.6255
       64        8      1.4368    390.4169    361.2334      1.0606     -0.0572
       65        8      2.3802    -69.8180    526.1723      2.1499     -0.5349
       66        8      4.0623    495.2490    875.6893     -2.4933     -1.4011
       67        8      6.8827    295.6892     89.0936      1.0967     -0.0882
       68        8      5.5908    478.9884    459.8073      5.3835     -0.8142
       69        8      4.0621    500.1839    861.7022     -2.6639     -1.3754
       70        8      2.9903    448.8178   1356.2076     -1.6659     -1.6003
       71        8      4.0621    499.2644    897.1712     -2.3825     -1.4197
       72        8      5.5908    485.4426    450.9820      4.8711     -0.7947
       73        8      6.7126    349.7661    102.6755      1.1377     -0.1211
       74        8      5.5908    481.4201    466.2358      5.9076     -0.8307
       75        8      3.4267    245.3944    184.4011      0.9817      0.0187
       76        8      2.3802    -61.5563    527.2921      2.2239     -0.5503
       77        8      3.4954    569.9296    463.4778      1.7107     -0.4155
       78        8      5.4617    304.1644    320.7140      1.7735     -0.4361
       79        8      5.5902    473.2276    453.5205      5.2621     -0.8100
       80        8      6.8817    293.5338     86.5877      1.0908     -0.0833
       81        8      5.5908    482.4018    470.6030      6.3353     -0.8422
       82        8      4.0623    496.0110    870.1383     -2.4981     -1.4003
       83        8      2.9909    446.5320   1352.8609     -1.6467     -1.6073
       84        8      4.0609    483.4310    882.4571     -2.4071     -1.4154
       85        8      3.4267    237.8171    185.4148      0.9810      0.0193
       86        8      5.5902    472.0613    452.5103      5.3641     -0.8136
       87        8      6.7126    350.8151    103.0124      1.1375     -0.1208
       88        8      5.4623    310.3798    321.5082      1.7845     -0.4396
       89        8      3.4954    583.0162    462.2964      1.6893     -0.4080
       90        8      2.3795    -72.1391    522.7746      2.1061     -0.5252
       91        8      2.3795    -70.0398    525.7480      2.1741     -0.5400
       92        8      4.0609    489.8443    878.3071     -2.4828     -1.4028
       93        8      5.4617    304.6335    321.2283      1.7682     -0.4345
       94        8      4.6703    450.0002    273.1722      1.3627     -0.2662
       95        8      2.9909    449.2661   1367.9016     -1.6189     -1.6177
       96        8      1.4395    397.3416    355.6679      1.0535     -0.0507
       97        8      3.4954    584.3259    462.6623      1.6899     -0.4083
       98        8      2.9909    448.5976   1347.9641     -1.6695     -1.5990
       99        8      3.4954    570.8408    459.7937      1.6704     -0.4014
      100        8      2.9903    462.9081   1388.3430     -1.5402     -1.6492
      101        8      3.4954    582.8546    479.0342      1.7934     -0.4424
      102        8      2.9909    443.7155   1353.1415     -1.6748     -1.5971
      103        8      5.4623    308.2679    328.5094      1.8213     -0.4510
      104        8      4.0623    494.7212    872.0108     -2.4681     -1.4052
      105        8      2.3802    -62.1841    531.4026      2.2428     -0.5541
      106        8      1.4368    395.2575    359.0903      1.0535     -0.0508
      107        8      2.9903    457.1711   1378.3808     -1.5763     -1.6344
      108        8      4.6703    451.2997    270.7026      1.3561     -0.2626
      109        8      6.1174    299.8213     24.8040      0.8662      0.1545
      110        8      4.6703    441.9344    277.5952      1.4013     -0.2864
      111        8      2.3802    -61.2043    528.3112      2.2005     -0.5456
      112        8      1.7131    321.2530     10.6627      0.7756      0.2893
      113        8      2.3802    -67.8259    531.1336      2.1514     -0.5352
      114        8      4.6703    449.5348    272.4469      1.3823     -0.2765
      115        8      4.6689    446.5419    286.5898      1.4563     -0.3133
      116        8      5.4617    308.8361    319.3506      1.7564     -0.4306
      117        8      4.0621    498.3766    880.2088     -2.4951     -1.4008
      118        8      2.3802    -59.7173    529.1533      2.2506     -0.5557
      119        8      1.4397    391.0390    357.8473      1.0538     -0.0511
      120        8      2.9909    476.4861   1398.8542     -1.5102     -1.6622
      121        8      2.3795    -68.6769    531.0189      2.1612     -0.5373
      122        8      4.0609    490.1721    879.2606     -2.4844     -1.4025
      123        8      5.4617    306.2749    317.6654      1.7516     -0.4291
      124        8      4.6703    441.9517    281.9226      1.4253     -0.2984
      125        8      2.9909    446.5984   1344.4969     -1.6821     -1.5945
      126        8      1.4395    393.5676    353.7200      1.0346     -0.0334
      127        8      1.7143    320.4852     10.4565      0.7757      0.2892
      128        8      2.3795    -67.3331    528.6381      2.1783     -0.5409
      129        8      4.6689    446.8912    279.5569      1.4118     -0.2917
      130        8      6.1174    300.0017     24.5826      0.8661      0.1546
      131        8      4.6689    442.2782    277.8133      1.3858     -0.2784
      132        8      2.3795    -65.9705    524.4833      2.1907     -0.5435
      133        8      2.3795    -66.0089    529.4115      2.2955     -0.5644
      134        8      1.4395    390.7242    358.1721      1.0584     -0.0552
      135        8      2.9909    473.0851   1392.8217     -1.5306     -1.6533
      136        8      4.6703    450.2796    281.9625      1.4362     -0.3037
      137        8      5.4617    311.3117    316.4776      1.7371     -0.4243
      138        8      4.0609    501.1981    882.1545     -2.4822     -1.4029
      139        8      4.6689    441.3813    286.8171      1.4303     -0.3009
      140        8      2.9909    446.5248   1344.6692     -1.6761     -1.5966
      141        8      1.4397    393.5137    355.3697      1.0380     -0.0366
      142        8      2.3802    -67.9655    533.3863      2.1564     -0.5363
      143        8      4.0621    488.6156    874.4166     -2.5555     -1.3913
      144        8      5.4617    308.1453    316.7819      1.7399     -0.4252
      145        8      6.7126    354.3218    105.0025      1.1410     -0.1236
      146        8      5.4617    305.2196    322.9872      1.7848     -0.4397
      147        8      3.4954    577.4495    446.9834      1.5840     -0.3687
      148        8      2.3802    -72.4404    530.8785      2.1672     -0.5386
      149        8      3.4267    234.3129    184.3893      0.9730      0.0277
      150        8      5.5908    475.3939    446.7558      4.9311     -0.7972
      151        8      5.4623    304.7072    323.5955      1.7926     -0.4421
      152        8      4.6703    447.5669    280.5152      1.4144     -0.2930
      153        8      2.9903    444.9674   1355.3314     -1.6292     -1.6138
      154        8      1.4368    389.3423    356.1245      1.0544     -0.0515
      155        8      2.3802    -71.8933    530.3971      2.1788     -0.5410
      156        8      4.0623    494.3941    887.0412     -2.4575     -1.4069
      157        8      3.4954    563.6972    443.9054      1.5572     -0.3578
      158        8      2.9909    475.4621   1392.5400     -1.5344     -1.6517
      159        8      3.4954    570.3393    475.9235      1.8033     -0.4455
      160        8      2.9903    441.4083   1343.8503     -1.6980     -1.5889
      161        8      3.4954    578.7722    448.5072      1.5948     -0.3730
      162        8      2.9909    477.6076   1394.0294     -1.5361     -1.6510
      163        8      2.3795    -60.8325    530.8430      2.1861     -0.5426
      164        8      1.4395    389.8422    355.9508      1.0471     -0.0450
      165        8      2.9909    470.4253   1386.7460     -1.5595     -1.6412
      166        8      4.6703    446.2369    277.8845      1.3975     -0.2844
      167        8      5.4617    305.2516    324.4820      1.7962     -0.4433
      168        8      4.0609    495.1970    876.7122     -2.4608     -1.4064
      169        8      3.4267    241.5811    184.3558      0.9771      0.0234
      170        8      2.3795    -60.3838    534.0618      2.2553     -0.5566
      171        8      3.4954    564.8543    451.7425      1.6280     -0.3857
      172        8      5.4623    304.0594    322.4673      1.7879     -0.4407
      173        8      6.7126    354.2500    102.1567      1.1334     -0.1177
      174        8      5.5902    480.8530    461.3159      5.6306     -0.8224
      175        8      5.5902    482.0054    471.8568      6.4794     -0.8457
      176        8      4.0609    499.1474    874.8333     -2.5048     -1.3992
      177        8      2.9909    469.7521   1383.6813     -1.5668     -1.6382
      178        8      4.0623    489.7280    889.2287     -2.3927     -1.4179
      179        8      5.5908    477.5091    451.6893      5.0334     -0.8013
      180        8      6.8817    293.8352     80.3681      1.0747     -0.0695
      181        8      7.7982    232.2939     12.5832      0.9996      0.0004
      182        8      6.8817    292.3294     81.2611      1.0806     -0.0746
      183        8      5.4617    308.2404    315.9348      1.7674     -0.4342
      184        8      4.6703    445.4871    281.6215      1.4237     -0.2976
      185        8      5.5908    479.0448    459.0698      5.5750     -0.8206
      186        8      6.7129    282.3498    172.1523      1.3110     -0.2372
      187        8      6.8827    295.8525     89.2084      1.0920     -0.0843
      188        8      5.5908    479.5833    460.3183      5.6789     -0.8239
      189        8      4.0621    496.2419    873.5025     -2.5649     -1.3899
      190        8      2.9903    472.1889   1399.3671     -1.5090     -1.6627
      191        8      4.0621    494.1203    893.2658     -2.4575     -1.4069
      192        8      5.5908    474.4219    447.4534      5.0192     -0.8008
      193        8      5.4623    304.6734    320.2303      1.7655     -0.4336
      194        8      4.0623    501.5437    894.0757     -2.4097     -1.4150
      195        8      2.3802    -62.6661    520.6189      2.0968     -0.5231
      196        8      1.4368    392.3909    356.6715      1.0440     -0.0422
      197        8      2.9903    467.3437   1389.7934     -1.5415     -1.6487
      198        8      4.6703    442.8577    276.5056      1.4001     -0.2858
      199        8      4.6689    443.4573    277.7076      1.4024     -0.2869
      200        8      2.9909    444.4498   1350.5377     -1.6633     -1.6012
      201        8      1.4397    393.1893    358.4182      1.0498     -0.0475
      202        8      2.3802    -65.2246    521.3255      2.0915     -0.5219
      203        8      4.0621    497.3617    878.0956     -2.4768     -1.4037
      204        8      5.4617    305.8351    321.5563      1.7900     -0.4413
      205        8      5.5902    478.8159    467.5321      5.9596     -0.8322
      206        8      4.0609    496.2459    876.9088     -2.4388     -1.4100
      207        8      2.9909    439.0778   1342.9252     -1.7082     -1.5854
      208        8      4.0623    503.8123    896.4119     -2.3915     -1.4181
      209        8      5.5908    482.9216    451.2361      4.8751     -0.7949
      210        8      6.8817    294.9459     86.0683      1.0873     -0.0803
      211        8      6.7122    278.8141    173.6329      1.3074     -0.2352
      212        8      5.5902    476.0677    463.0502      5.8460     -0.8289
      213        8      4.6689    442.6033    270.6662      1.3675     -0.2687
      214        8      5.4623    304.2762    321.2329      1.7642     -0.4332
      215        8      6.8827    292.8592     84.2372      1.0830     -0.0766
      216        8      7.7982    232.2436     12.8422      1.0003     -0.0003
  

     ===================================================================
     Eliashberg Spectral Function in the Migdal Approximation
     ===================================================================

     lambda :    0.9472575
     lambda_tr :    1.2112935
 
     Estimated Allen-Dynes Tc
 
     logavg =    0.0001685 l_a2F =    0.9483327
     mu =   0.10 Tc =         1.702643655042 K
     mu =   0.12 Tc =         1.529011142010 K
     mu =   0.14 Tc =         1.360224662694 K
     mu =   0.16 Tc =         1.197189434585 K
     mu =   0.18 Tc =         1.040875816875 K
     mu =   0.20 Tc =         0.892309924961 K
     a2F          :      0.13s CPU      0.06s WALL (       1 calls)

     Unfolding on the coarse grid
     elphon_wrap  :    629.52s CPU    315.86s WALL (       1 calls)

     INITIALIZATION: 

     init_vloc    :      0.22s CPU      0.11s WALL (      29 calls)
     init_us_1    :      5.28s CPU      2.65s WALL (      29 calls)


     Electron-Phonon interpolation
     ephwann      :     16.24s CPU      8.15s WALL (       1 calls)
     ep-interp    :     15.59s CPU      7.82s WALL (     216 calls)
     PH SELF-ENER :      1.00s CPU      0.49s WALL (     216 calls)

     Ham: step 1  :      0.00s CPU      0.00s WALL (       1 calls)
     Ham: step 2  :      0.00s CPU      0.00s WALL (       1 calls)
     ep: step 1   :      0.03s CPU      0.02s WALL (      81 calls)
     ep: step 2   :      0.04s CPU      0.02s WALL (      81 calls)
     DynW2B       :      0.00s CPU      0.00s WALL (     216 calls)
     HamW2B       :      7.35s CPU      3.61s WALL (   93744 calls)
     ephW2Bp      :      0.32s CPU      0.13s WALL (     216 calls)


     Total program execution
     EPW          : 11m32.90s CPU     5m47.68s WALL

