                                                                                      
                                       ``:oss/                                        
                           `.+s+.     .+ys--yh+     `./ss+.                           
                          -sh//yy+`   +yy   +yy    -+h+-oyy                           
                          -yh- .oyy/.-sh.   .syo-.:sy-  /yh                           
                 `.-.`    `yh+   -oyyyo.     `/syys:    oys      `.`                  
               `/+ssys+-` `sh+      `                   oys`   .:osyo`                
               -yh- ./syyooyo`                          .sys+/oyo--yh/                
               `yy+    .-:-.                             `-/+/:`  -sh-                
                /yh.                                              oys                 
          ``..---hho---------`   .---------..`      `.-----.`    -hd+---.             
       `./osmNMMMMMMMMMMMMMMMs. +NNMMMMMMMMNNmh+.   yNMMMMMNm-  oNMMMMMNmo++:`        
       +sy--/sdMMMhyyyyyyyNMMh- .oyNMMmyyyyyhNMMm+` -yMMMdyyo:` .oyyNMMNhs+syy`       
       -yy/   /MMM+.`-+/``mMMy-   `mMMh:`````.dMMN:` `MMMy-`-dhhy```mMMy:``+hs        
        -yy+` /MMMo:-mMM+`-oo/.    mMMh:     `dMMN/`  dMMm:`dMMMMy..MMMo-.+yo`        
         .sys`/MMMMNNMMMs-         mMMmyooooymMMNo:   oMMM/sMMMMMM++MMN//oh:          
          `sh+/MMMhyyMMMs- `-`     mMMMMMMMMMNmy+-`   -MMMhMMMsmMMmdMMd/yy+           
    `-/+++oyy-/MMM+.`/hh/.`mNm:`   mMMd+/////:-.`      NMMMMMd/:NMMMMMy:/yyo/:.`      
   +os+//:-..-oMMMo:--:::-/MMMo. .-mMMd+---`           hMMMMN+. oMMMMMo. `-+osyso:`   
   syo     `mNMMMMMNNNNNNNNMMMo.oNNMMMMMNNNN:`         +MMMMs:`  dMMMN/`     ``:syo   
   /yh`     :syyyyyyyyyyyyyyyy+.`+syyyyyyyyo:`         .oyys:`   .oyys:`        +yh   
   -yh-        ````````````````    `````````              ``        ``          oys   
   -+h/------------------------::::::::://////++++++++++++++++++++++///////::::/yd:   
   shdddddddddddddddddddddddddddddhhhhhhhhyyyyyssssssssssssssssyyyyyyyhhhhhhhddddh`   
                                                                                      
  S. Ponce, E. R. Margine, C. Verdi, and F. Giustino,                                 
                                                Comput. Phys. Commun. 209, 116 (2016) 
                                                                                      

     Program EPW v.4.2.0 (svn rev. 13680) starts on  3Aug2017 at 16:32:27 

     This program is part of the open-source Quantum ESPRESSO suite
     for quantum simulation of materials; please cite
         "P. Giannozzi et al., J. Phys.:Condens. Matter 21 395502 (2009);
          URL http://www.quantum-espresso.org", 
     in publications or presentations arising from this work. More details at
     http://www.quantum-espresso.org/quote

     Parallel version (MPI), running on     1 processors

     Reading data from directory:
     ./pb.save/

   Info: using nr1, nr2, nr3 values from input

   Info: using nr1, nr2, nr3 values from input

     IMPORTANT: XC functional enforced from input :
     Exchange-correlation      = PZ ( 1  1  0  0 0 0)
     Any further DFT definition will be discarded
     Please, verify this is what you really want


     G-vector sticks info
     --------------------
     sticks:   dense  smooth     PW     G-vecs:    dense   smooth      PW
     Sum         703     703    211                12387    12387    2109


     --                                                                         

     bravais-lattice index     =            2
     lattice parameter (a_0)   =       9.2700  a.u.
     unit-cell volume          =     199.1495 (a.u.)^3
     number of atoms/cell      =            1
     number of atomic types    =            1
     kinetic-energy cut-off    =      60.0000  Ry
     charge density cut-off    =     240.0000  Ry
     convergence threshold     =      0.0E+00
     beta                      =       0.0000
     number of iterations used =            0
     Exchange-correlation      = PZ ( 1  1  0  0 0 0)


     celldm(1)=    9.27000  celldm(2)=    0.00000  celldm(3)=    0.00000
     celldm(4)=    0.00000  celldm(5)=    0.00000  celldm(6)=    0.00000

     crystal axes: (cart. coord. in units of a_0)
               a(1) = ( -0.5000  0.0000  0.5000 )  
               a(2) = (  0.0000  0.5000  0.5000 )  
               a(3) = ( -0.5000  0.5000  0.0000 )  

     reciprocal axes: (cart. coord. in units 2 pi/a_0)
               b(1) = ( -1.0000 -1.0000  1.0000 )  
               b(2) = (  1.0000  1.0000  1.0000 )  
               b(3) = ( -1.0000  1.0000 -1.0000 )  


     Atoms inside the unit cell: 

   Cartesian axes

     site n.  atom      mass           positions (a_0 units)
        1        Pb 207.2175   tau( 1) = (    0.00000    0.00000    0.00000  )

     49 Sym.Ops. (with q -> -q+G )


     G cutoff =  522.4094  (  12387 G-vectors)     FFT grid: ( 36, 36, 36)
     number of k points=   27  gaussian broad. (Ry)=  0.0200     ngauss =   1
                       cart. coord. in units 2pi/a_0
        k(    1) = (   0.0000000   0.0000000   0.0000000), wk =   0.0370370
        k(    2) = (  -0.3333333   0.3333333  -0.3333333), wk =   0.0370370
        k(    3) = (  -0.6666667   0.6666667  -0.6666667), wk =   0.0370370
        k(    4) = (   0.3333333   0.3333333   0.3333333), wk =   0.0370370
        k(    5) = (   0.0000000   0.6666667   0.0000000), wk =   0.0370370
        k(    6) = (  -0.3333333   1.0000000  -0.3333333), wk =   0.0370370
        k(    7) = (   0.6666667   0.6666667   0.6666667), wk =   0.0370370
        k(    8) = (   0.3333333   1.0000000   0.3333333), wk =   0.0370370
        k(    9) = (   0.0000000   1.3333333   0.0000000), wk =   0.0370370
        k(   10) = (  -0.3333333  -0.3333333   0.3333333), wk =   0.0370370
        k(   11) = (  -0.6666667   0.0000000   0.0000000), wk =   0.0370370
        k(   12) = (  -1.0000000   0.3333333  -0.3333333), wk =   0.0370370
        k(   13) = (   0.0000000   0.0000000   0.6666667), wk =   0.0370370
        k(   14) = (  -0.3333333   0.3333333   0.3333333), wk =   0.0370370
        k(   15) = (  -0.6666667   0.6666667  -0.0000000), wk =   0.0370370
        k(   16) = (   0.3333333   0.3333333   1.0000000), wk =   0.0370370
        k(   17) = (   0.0000000   0.6666667   0.6666667), wk =   0.0370370
        k(   18) = (  -0.3333333   1.0000000   0.3333333), wk =   0.0370370
        k(   19) = (  -0.6666667  -0.6666667   0.6666667), wk =   0.0370370
        k(   20) = (  -1.0000000  -0.3333333   0.3333333), wk =   0.0370370
        k(   21) = (  -1.3333333   0.0000000   0.0000000), wk =   0.0370370
        k(   22) = (  -0.3333333  -0.3333333   1.0000000), wk =   0.0370370
        k(   23) = (  -0.6666667  -0.0000000   0.6666667), wk =   0.0370370
        k(   24) = (  -1.0000000   0.3333333   0.3333333), wk =   0.0370370
        k(   25) = (   0.0000000   0.0000000   1.3333333), wk =   0.0370370
        k(   26) = (  -0.3333333   0.3333333   1.0000000), wk =   0.0370370
        k(   27) = (  -0.6666667   0.6666667   0.6666667), wk =   0.0370370

     PseudoPot. # 1 for Pb read from file:
     ./pb_s.UPF
     MD5 check sum: 7774f596943a2055f0d8d19eea6f2ae8
     Pseudo is Norm-conserving, Zval = 14.0
     Generated using "atomic" code by A. Dal Corso  (Quantum ESPRESSO distribution)
     Using radial grid of 1281 points,  4 beta functions with: 
                l(1) =   2
                l(2) =   2
                l(3) =   1
                l(4) =   1
     EPW          :     0.22s CPU         0.26s WALL

     EPW          :     0.67s CPU         0.72s WALL

     No wavefunction gauge setting applied
     -------------------------------------------------------------------
     Wannierization on  3 x  3 x  3 electronic grid
     -------------------------------------------------------------------

     Spin CASE ( non-collinear )

     Initializing Wannier90


     Initial Wannier projections

     (   0.00000   0.00000   0.00000) :  l =  -3 mr =   1
     (   0.00000   0.00000   0.00000) :  l =  -3 mr =   1
     (   0.00000   0.00000   0.00000) :  l =  -3 mr =   2
     (   0.00000   0.00000   0.00000) :  l =  -3 mr =   2
     (   0.00000   0.00000   0.00000) :  l =  -3 mr =   3
     (   0.00000   0.00000   0.00000) :  l =  -3 mr =   3
     (   0.00000   0.00000   0.00000) :  l =  -3 mr =   4
     (   0.00000   0.00000   0.00000) :  l =  -3 mr =   4

      - Number of bands is ( 22)
      - Number of wannier functions is (  8)
      - All guiding functions are given 

  Reading data about k-point neighbours 

      - All neighbours are found 

     AMN
      k points =    27 in    1 pools
            1 of   27 on ionode
            2 of   27 on ionode
            3 of   27 on ionode
            4 of   27 on ionode
            5 of   27 on ionode
            6 of   27 on ionode
            7 of   27 on ionode
            8 of   27 on ionode
            9 of   27 on ionode
           10 of   27 on ionode
           11 of   27 on ionode
           12 of   27 on ionode
           13 of   27 on ionode
           14 of   27 on ionode
           15 of   27 on ionode
           16 of   27 on ionode
           17 of   27 on ionode
           18 of   27 on ionode
           19 of   27 on ionode
           20 of   27 on ionode
           21 of   27 on ionode
           22 of   27 on ionode
           23 of   27 on ionode
           24 of   27 on ionode
           25 of   27 on ionode
           26 of   27 on ionode
           27 of   27 on ionode

     AMN calculated

     MMN
      k points =    27 in    1 pools
            1 of   27 on ionode
            2 of   27 on ionode
            3 of   27 on ionode
            4 of   27 on ionode
            5 of   27 on ionode
            6 of   27 on ionode
            7 of   27 on ionode
            8 of   27 on ionode
            9 of   27 on ionode
           10 of   27 on ionode
           11 of   27 on ionode
           12 of   27 on ionode
           13 of   27 on ionode
           14 of   27 on ionode
           15 of   27 on ionode
           16 of   27 on ionode
           17 of   27 on ionode
           18 of   27 on ionode
           19 of   27 on ionode
           20 of   27 on ionode
           21 of   27 on ionode
           22 of   27 on ionode
           23 of   27 on ionode
           24 of   27 on ionode
           25 of   27 on ionode
           26 of   27 on ionode
           27 of   27 on ionode
     MMN calculated

     Running Wannier90

     Wannier Function centers (cartesian, alat) and spreads (ang):

     (   0.08272   0.08272   0.08272) :   1.60664
     (   0.08272   0.08272   0.08272) :   1.60664
     (   0.08272  -0.08272  -0.08272) :   1.60664
     (   0.08272  -0.08272  -0.08272) :   1.60664
     (  -0.08272   0.08272  -0.08272) :   1.60664
     (  -0.08272   0.08272  -0.08272) :   1.60664
     (  -0.08272  -0.08272   0.08272) :   1.60664
     (  -0.08272  -0.08272   0.08272) :   1.60664

     -------------------------------------------------------------------
     WANNIER      :     27.30s CPU     28.15s WALL (       1 calls)
     -------------------------------------------------------------------

     Dipole matrix elements calculated


     Calculating kmap and kgmap
     Progress  kmap: ###########################
     Progress kgmap: ########################################
     kmaps        :      2.17s CPU      2.31s WALL (       1 calls)

     Reading interatomic force constants

  IFC last    4.6880744108606721E-004
Norm of the difference between old and new effective charges:    0.00000000000000000000
Norm of the difference between old and new force-constants:   0.00114826885903262111
  Imposed crystal ASR

     Finished reading ifcs

  IFC    3.6608706740595624E-002   3.4122201230466490E-004
     Symmetries of bravais lattice:  48
     Symmetries of crystal:          48


     ===================================================================
     irreducible q point #    1
     ===================================================================

     Symmetries of small group of q: 48
          in addition sym. q -> -q+G:

     Number of q in the star =    1
     List of q in the star:
          1   0.000000000   0.000000000   0.000000000
        Imposing acoustic sum rule on the dynamical matrix
  Dyn mat calculated from ifcs

        q(    1 ) = (   0.0000000   0.0000000   0.0000000 )


     ===================================================================
     irreducible q point #    2
     ===================================================================

     Symmetries of small group of q:  6

     Number of q in the star =    8
     List of q in the star:
          1  -0.333333333   0.333333333  -0.333333333
          2   0.333333333   0.333333333  -0.333333333
          3   0.333333333   0.333333333   0.333333333
          4  -0.333333333   0.333333333   0.333333333
          5   0.333333333  -0.333333333   0.333333333
          6  -0.333333333  -0.333333333  -0.333333333
          7   0.333333333  -0.333333333  -0.333333333
          8  -0.333333333  -0.333333333   0.333333333
  Dyn mat calculated from ifcs

        q(    2 ) = (  -0.3333333   0.3333333  -0.3333333 )
        q(    3 ) = (   0.3333333   0.3333333  -0.3333333 )
        q(    4 ) = (   0.3333333   0.3333333   0.3333333 )
        q(    5 ) = (  -0.3333333   0.3333333   0.3333333 )
        q(    6 ) = (   0.3333333  -0.3333333   0.3333333 )
        q(    7 ) = (  -0.3333333  -0.3333333  -0.3333333 )
        q(    8 ) = (   0.3333333  -0.3333333  -0.3333333 )
        q(    9 ) = (  -0.3333333  -0.3333333   0.3333333 )


     ===================================================================
     irreducible q point #    3
     ===================================================================

     Symmetries of small group of q:  8

     Number of q in the star =    6
     List of q in the star:
          1   0.000000000   0.666666667   0.000000000
          2  -0.666666667   0.000000000   0.000000000
          3   0.000000000  -0.666666667   0.000000000
          4   0.000000000   0.000000000   0.666666667
          5   0.000000000   0.000000000  -0.666666667
          6   0.666666667   0.000000000   0.000000000
  Dyn mat calculated from ifcs

        q(   10 ) = (   0.0000000   0.6666667   0.0000000 )
        q(   11 ) = (  -0.6666667   0.0000000   0.0000000 )
        q(   12 ) = (   0.0000000  -0.6666667   0.0000000 )
        q(   13 ) = (   0.0000000   0.0000000   0.6666667 )
        q(   14 ) = (   0.0000000   0.0000000  -0.6666667 )
        q(   15 ) = (   0.6666667   0.0000000   0.0000000 )


     ===================================================================
     irreducible q point #    4
     ===================================================================

     Symmetries of small group of q:  4

     Number of q in the star =   12
     List of q in the star:
          1   0.666666667   0.000000000   0.666666667
          2   0.666666667   0.000000000  -0.666666667
          3  -0.666666667   0.000000000  -0.666666667
          4  -0.666666667   0.000000000   0.666666667
          5   0.000000000  -0.666666667   0.666666667
          6  -0.666666667   0.666666667   0.000000000
          7  -0.666666667  -0.666666667   0.000000000
          8   0.666666667   0.666666667   0.000000000
          9   0.666666667  -0.666666667   0.000000000
         10   0.000000000   0.666666667   0.666666667
         11   0.000000000   0.666666667  -0.666666667
         12   0.000000000  -0.666666667  -0.666666667
  Dyn mat calculated from ifcs

        q(   16 ) = (   0.6666667   0.0000000   0.6666667 )
        q(   17 ) = (   0.6666667   0.0000000  -0.6666667 )
        q(   18 ) = (  -0.6666667   0.0000000  -0.6666667 )
        q(   19 ) = (  -0.6666667   0.0000000   0.6666667 )
        q(   20 ) = (   0.0000000  -0.6666667   0.6666667 )
        q(   21 ) = (  -0.6666667   0.6666667   0.0000000 )
        q(   22 ) = (  -0.6666667  -0.6666667   0.0000000 )
        q(   23 ) = (   0.6666667   0.6666667   0.0000000 )
        q(   24 ) = (   0.6666667  -0.6666667   0.0000000 )
        q(   25 ) = (   0.0000000   0.6666667   0.6666667 )
        q(   26 ) = (   0.0000000   0.6666667  -0.6666667 )
        q(   27 ) = (   0.0000000  -0.6666667  -0.6666667 )

     Writing epmatq on .epb files


     The .epb files have been correctly written


              band disentanglement is used:  nbndsub =    8

     Writing Hamiltonian, Dynamical matrix and EP vertex in Wann rep to file


     Reading Hamiltonian, Dynamical matrix and EP vertex in Wann rep from file


     Reading interatomic force constants

  IFC last    4.6880744108606721E-004
Norm of the difference between old and new effective charges:    0.00000000000000000000
Norm of the difference between old and new force-constants:   0.00114826885903262111
  Imposed crystal ASR

     Finished reading ifcs

  IFC    3.6608706740595624E-002   3.4122201230466490E-004

     Finished reading Wann rep data from file

     ===================================================================
     Memory usage:  VmHWM =        95Mb
                   VmPeak =       286Mb
     ===================================================================
     
     Using uniform q-mesh:    6   6   6
     Size of q point mesh for interpolation:        216
     Using uniform k-mesh:    6   6   6
     Size of k point mesh for interpolation:        432
     Max number of k points per pool:              432

     Fermi energy coarse grid =  10.121992 eV

     Skipping the first   10 bands:

     The Fermi level will be determined with   4.00000 electrons

     Fermi energy is calculated from the fine k-mesh: Ef =  11.622357 eV

     Warning: check if difference with Fermi level fine grid makes sense

     ===================================================================

              ibndmin =     1  ebndmin =    -0.040
              ibndmax =     8  ebndmax =     1.463


     Number of ep-matrix elements per pool :        41472 ~=  324.00 Kb (@ 8 bytes/ DP)

     ===================================================================
     Phonon (Imaginary) Self-Energy in the Migdal Approximation
     ===================================================================


     Fermi Surface thickness =  20.000000 eV

     Golden Rule strictly enforced with T =   0.043087 eV
     Gaussian Broadening:   0.200000 eV, ngauss=   1
     DOS =  0.904603 states/spin/eV/Unit Cell at Ef= 11.622357 eV

     ismear =     1 iq =       1 coord.:   0.00000  0.00000  0.00000 wt:   0.00463
     -------------------------------------------------------------------
     lambda___(   1 )=       0.000000   gamma___=       0.000000 meV   omega=     -0.0000 meV
     lambda_tr(   1 )=       0.000000   gamma_tr=       0.000000 meV   omega=     -0.0000 meV
     lambda___(   2 )=       0.000000   gamma___=       0.000000 meV   omega=     -0.0000 meV
     lambda_tr(   2 )=       0.000000   gamma_tr=       0.000000 meV   omega=     -0.0000 meV
     lambda___(   3 )=       0.000000   gamma___=       0.000000 meV   omega=      0.0000 meV
     lambda_tr(   3 )=       0.000000   gamma_tr=       0.000000 meV   omega=      0.0000 meV
     lambda___( tot )=       0.000000
     lambda_tr( tot )=       0.000000
     -------------------------------------------------------------------


     Number of (k,k+q) pairs on the Fermi surface:      216 out of      216


     ===================================================================
     Electron (Imaginary) Self-Energy in the Migdal Approximation
     ===================================================================


     Fermi Surface thickness =  20.000000 eV

     Golden Rule strictly enforced with T =   0.043087 eV
     Gaussian Broadening:   0.200000 eV, ngauss=   1
 

     ismear =     1 iq =       2 coord.:   0.00000  0.00000  0.16667 wt:   0.00463
     -------------------------------------------------------------------
     lambda___(   1 )=       0.022177   gamma___=       0.000201 meV   omega=      1.7871 meV
     lambda_tr(   1 )=       0.022308   gamma_tr=       0.000202 meV   omega=      1.7871 meV
     lambda___(   2 )=       0.011642   gamma___=       0.000106 meV   omega=      1.7871 meV
     lambda_tr(   2 )=       0.011845   gamma_tr=       0.000108 meV   omega=      1.7871 meV
     lambda___(   3 )=       0.021478   gamma___=       0.001106 meV   omega=      4.2564 meV
     lambda_tr(   3 )=       0.021287   gamma_tr=       0.001096 meV   omega=      4.2564 meV
     lambda___( tot )=       0.055297
     lambda_tr( tot )=       0.055440
     -------------------------------------------------------------------


     Number of (k,k+q) pairs on the Fermi surface:      216 out of      216


     ismear =     1 iq =       3 coord.:   0.00000  0.00000  0.33333 wt:   0.00463
     -------------------------------------------------------------------
     lambda___(   1 )=       0.165232   gamma___=       0.005388 meV   omega=      3.3875 meV
     lambda_tr(   1 )=      -7.025458   gamma_tr=      -0.229106 meV   omega=      3.3875 meV
     lambda___(   2 )=       0.164926   gamma___=       0.005378 meV   omega=      3.3875 meV
     lambda_tr(   2 )=      -7.018729   gamma_tr=      -0.228887 meV   omega=      3.3875 meV
     lambda___(   3 )=       0.112809   gamma___=       0.018140 meV   omega=      7.5222 meV
     lambda_tr(   3 )=      -2.173519   gamma_tr=      -0.349510 meV   omega=      7.5222 meV
     lambda___( tot )=       0.442967
     lambda_tr( tot )=     -16.217707
     -------------------------------------------------------------------


     Number of (k,k+q) pairs on the Fermi surface:      216 out of      216


     ismear =     1 iq =       4 coord.:   0.00000  0.00000  0.50000 wt:   0.00463
     -------------------------------------------------------------------
     lambda___(   1 )=       0.000000   gamma___=       0.000000 meV   omega=      4.0697 meV
     lambda_tr(   1 )=       0.000000   gamma_tr=       0.000000 meV   omega=      4.0697 meV
     lambda___(   2 )=       0.000000   gamma___=       0.000000 meV   omega=      4.0697 meV
     lambda_tr(   2 )=       0.000000   gamma_tr=       0.000000 meV   omega=      4.0697 meV
     lambda___(   3 )=       0.000000   gamma___=       0.000000 meV   omega=      8.7711 meV
     lambda_tr(   3 )=       0.000000   gamma_tr=       0.000000 meV   omega=      8.7711 meV
     lambda___( tot )=       0.000000
     lambda_tr( tot )=       0.000000
     -------------------------------------------------------------------


     Number of (k,k+q) pairs on the Fermi surface:      216 out of      216


     ismear =     1 iq =       5 coord.:   0.00000  0.00000  0.66667 wt:   0.00463
     -------------------------------------------------------------------
     lambda___(   1 )=       0.164208   gamma___=       0.005355 meV   omega=      3.3875 meV
     lambda_tr(   1 )=      -6.611624   gamma_tr=      -0.215611 meV   omega=      3.3875 meV
     lambda___(   2 )=       0.158875   gamma___=       0.005181 meV   omega=      3.3875 meV
     lambda_tr(   2 )=      -6.325892   gamma_tr=      -0.206293 meV   omega=      3.3875 meV
     lambda___(   3 )=       0.112840   gamma___=       0.018145 meV   omega=      7.5222 meV
     lambda_tr(   3 )=      -2.060059   gamma_tr=      -0.331265 meV   omega=      7.5222 meV
     lambda___( tot )=       0.435923
     lambda_tr( tot )=     -14.997575
     -------------------------------------------------------------------


     Number of (k,k+q) pairs on the Fermi surface:      216 out of      216


     ismear =     1 iq =       6 coord.:   0.00000  0.00000  0.83333 wt:   0.00463
     -------------------------------------------------------------------
     lambda___(   1 )=       0.015298   gamma___=       0.000139 meV   omega=      1.7871 meV
     lambda_tr(   1 )=       0.015252   gamma_tr=       0.000138 meV   omega=      1.7871 meV
     lambda___(   2 )=       0.031391   gamma___=       0.000285 meV   omega=      1.7871 meV
     lambda_tr(   2 )=       0.031322   gamma_tr=       0.000284 meV   omega=      1.7871 meV
     lambda___(   3 )=       0.022575   gamma___=       0.001162 meV   omega=      4.2564 meV
     lambda_tr(   3 )=       0.022494   gamma_tr=       0.001158 meV   omega=      4.2564 meV
     lambda___( tot )=       0.069264
     lambda_tr( tot )=       0.069068
     -------------------------------------------------------------------


     Number of (k,k+q) pairs on the Fermi surface:      216 out of      216


     ismear =     1 iq =       7 coord.:   0.00000  0.16667  0.00000 wt:   0.00463
     -------------------------------------------------------------------
     lambda___(   1 )=       0.023258   gamma___=       0.000211 meV   omega=      1.7871 meV
     lambda_tr(   1 )=       0.023272   gamma_tr=       0.000211 meV   omega=      1.7871 meV
     lambda___(   2 )=       0.025348   gamma___=       0.000230 meV   omega=      1.7871 meV
     lambda_tr(   2 )=       0.025377   gamma_tr=       0.000230 meV   omega=      1.7871 meV
     lambda___(   3 )=       0.021830   gamma___=       0.001124 meV   omega=      4.2564 meV
     lambda_tr(   3 )=       0.021725   gamma_tr=       0.001119 meV   omega=      4.2564 meV
     lambda___( tot )=       0.070437
     lambda_tr( tot )=       0.070374
     -------------------------------------------------------------------


     Number of (k,k+q) pairs on the Fermi surface:      216 out of      216


     ismear =     1 iq =       8 coord.:   0.00000  0.16667  0.16667 wt:   0.00463
     -------------------------------------------------------------------
     lambda___(   1 )=       0.000971   gamma___=       0.000009 meV   omega=      1.8366 meV
     lambda_tr(   1 )=       0.121563   gamma_tr=       0.001165 meV   omega=      1.8366 meV
     lambda___(   2 )=       0.021821   gamma___=       0.000209 meV   omega=      1.8366 meV
     lambda_tr(   2 )=       0.138611   gamma_tr=       0.001329 meV   omega=      1.8366 meV
     lambda___(   3 )=       0.145714   gamma___=       0.010570 meV   omega=      5.0522 meV
     lambda_tr(   3 )=       0.057747   gamma_tr=       0.004189 meV   omega=      5.0522 meV
     lambda___( tot )=       0.168507
     lambda_tr( tot )=       0.317921
     -------------------------------------------------------------------


     Number of (k,k+q) pairs on the Fermi surface:      216 out of      216


     ismear =     1 iq =       9 coord.:   0.00000  0.16667  0.33333 wt:   0.00463
     -------------------------------------------------------------------
     lambda___(   1 )=       0.019112   gamma___=       0.000577 meV   omega=      3.2583 meV
     lambda_tr(   1 )=       0.088371   gamma_tr=       0.002666 meV   omega=      3.2583 meV
     lambda___(   2 )=       0.029326   gamma___=       0.001192 meV   omega=      3.7812 meV
     lambda_tr(   2 )=       0.144997   gamma_tr=       0.005892 meV   omega=      3.7812 meV
     lambda___(   3 )=       0.006779   gamma___=       0.001010 meV   omega=      7.2397 meV
     lambda_tr(   3 )=      -0.014336   gamma_tr=      -0.002135 meV   omega=      7.2397 meV
     lambda___( tot )=       0.055217
     lambda_tr( tot )=       0.219033
     -------------------------------------------------------------------


     Number of (k,k+q) pairs on the Fermi surface:      216 out of      216


     ismear =     1 iq =      10 coord.:   0.00000  0.16667  0.50000 wt:   0.00463
     -------------------------------------------------------------------
     lambda___(   1 )=       0.225500   gamma___=       0.012043 meV   omega=      4.3349 meV
     lambda_tr(   1 )=       0.170529   gamma_tr=       0.009107 meV   omega=      4.3349 meV
     lambda___(   2 )=       0.060579   gamma___=       0.004904 meV   omega=      5.3373 meV
     lambda_tr(   2 )=      -0.111322   gamma_tr=      -0.009012 meV   omega=      5.3373 meV
     lambda___(   3 )=       0.157789   gamma___=       0.031995 meV   omega=      8.4470 meV
     lambda_tr(   3 )=      -0.215359   gamma_tr=      -0.043669 meV   omega=      8.4470 meV
     lambda___( tot )=       0.443868
     lambda_tr( tot )=      -0.156151
     -------------------------------------------------------------------


     Number of (k,k+q) pairs on the Fermi surface:      216 out of      216


     ismear =     1 iq =      11 coord.:   0.00000  0.16667  0.66667 wt:   0.00463
     -------------------------------------------------------------------
     lambda___(   1 )=       0.048351   gamma___=       0.002450 meV   omega=      4.2226 meV
     lambda_tr(   1 )=       0.206968   gamma_tr=       0.010488 meV   omega=      4.2226 meV
     lambda___(   2 )=       0.034795   gamma___=       0.002594 meV   omega=      5.1214 meV
     lambda_tr(   2 )=      -0.062927   gamma_tr=      -0.004690 meV   omega=      5.1214 meV
     lambda___(   3 )=       0.008436   gamma___=       0.001553 meV   omega=      8.0497 meV
     lambda_tr(   3 )=      -0.012301   gamma_tr=      -0.002265 meV   omega=      8.0497 meV
     lambda___( tot )=       0.091581
     lambda_tr( tot )=       0.131741
     -------------------------------------------------------------------


     Number of (k,k+q) pairs on the Fermi surface:      216 out of      216


     ismear =     1 iq =      12 coord.:   0.00000  0.16667  0.83333 wt:   0.00463
     -------------------------------------------------------------------
     lambda___(   1 )=      -0.743759   gamma___=      -0.020028 meV   omega=      3.0782 meV
     lambda_tr(   1 )=      -1.507245   gamma_tr=      -0.040587 meV   omega=      3.0782 meV
     lambda___(   2 )=       0.185599   gamma___=       0.005618 meV   omega=      3.2635 meV
     lambda_tr(   2 )=      -0.652405   gamma_tr=      -0.019747 meV   omega=      3.2635 meV
     lambda___(   3 )=       0.037162   gamma___=       0.004188 meV   omega=      6.2976 meV
     lambda_tr(   3 )=      -0.008073   gamma_tr=      -0.000910 meV   omega=      6.2976 meV
     lambda___( tot )=      -0.520999
     lambda_tr( tot )=      -2.167723
     -------------------------------------------------------------------


     Number of (k,k+q) pairs on the Fermi surface:      216 out of      216


     ismear =     1 iq =      13 coord.:   0.00000  0.33333  0.00000 wt:   0.00463
     -------------------------------------------------------------------
     lambda___(   1 )=       0.157834   gamma___=       0.005147 meV   omega=      3.3875 meV
     lambda_tr(   1 )=      -6.265621   gamma_tr=      -0.204327 meV   omega=      3.3875 meV
     lambda___(   2 )=       0.156847   gamma___=       0.005115 meV   omega=      3.3875 meV
     lambda_tr(   2 )=      -6.264480   gamma_tr=      -0.204290 meV   omega=      3.3875 meV
     lambda___(   3 )=       0.117182   gamma___=       0.018843 meV   omega=      7.5222 meV
     lambda_tr(   3 )=      -2.073372   gamma_tr=      -0.333406 meV   omega=      7.5222 meV
     lambda___( tot )=       0.431863
     lambda_tr( tot )=     -14.603474
     -------------------------------------------------------------------


     Number of (k,k+q) pairs on the Fermi surface:      216 out of      216


     ismear =     1 iq =      14 coord.:   0.00000  0.33333  0.16667 wt:   0.00463
     -------------------------------------------------------------------
     lambda___(   1 )=       0.012409   gamma___=       0.000374 meV   omega=      3.2583 meV
     lambda_tr(   1 )=       0.051738   gamma_tr=       0.001561 meV   omega=      3.2583 meV
     lambda___(   2 )=       0.027204   gamma___=       0.001105 meV   omega=      3.7812 meV
     lambda_tr(   2 )=       0.146011   gamma_tr=       0.005933 meV   omega=      3.7812 meV
     lambda___(   3 )=       0.006881   gamma___=       0.001025 meV   omega=      7.2397 meV
     lambda_tr(   3 )=      -0.013453   gamma_tr=      -0.002004 meV   omega=      7.2397 meV
     lambda___( tot )=       0.046493
     lambda_tr( tot )=       0.184296
     -------------------------------------------------------------------


     Number of (k,k+q) pairs on the Fermi surface:      216 out of      216


     ismear =     1 iq =      15 coord.:   0.00000  0.33333  0.33333 wt:   0.00463
     -------------------------------------------------------------------
     lambda___(   1 )=       0.474739   gamma___=       0.021293 meV   omega=      3.9727 meV
     lambda_tr(   1 )=       0.479171   gamma_tr=       0.021492 meV   omega=      3.9727 meV
     lambda___(   2 )=       0.471519   gamma___=       0.021148 meV   omega=      3.9727 meV
     lambda_tr(   2 )=       0.475391   gamma_tr=       0.021322 meV   omega=      3.9727 meV
     lambda___(   3 )=       0.018253   gamma___=       0.003676 meV   omega=      8.4186 meV
     lambda_tr(   3 )=       0.015068   gamma_tr=       0.003035 meV   omega=      8.4186 meV
     lambda___( tot )=       0.964511
     lambda_tr( tot )=       0.969630
     -------------------------------------------------------------------


     Number of (k,k+q) pairs on the Fermi surface:      216 out of      216


     ismear =     1 iq =      16 coord.:   0.00000  0.33333  0.50000 wt:   0.00463
     -------------------------------------------------------------------
     lambda___(   1 )=       0.033201   gamma___=       0.002163 meV   omega=      4.7874 meV
     lambda_tr(   1 )=       0.139404   gamma_tr=       0.009080 meV   omega=      4.7874 meV
     lambda___(   2 )=       0.012969   gamma___=       0.001186 meV   omega=      5.6726 meV
     lambda_tr(   2 )=      -0.005490   gamma_tr=      -0.000502 meV   omega=      5.6726 meV
     lambda___(   3 )=       0.009826   gamma___=       0.002197 meV   omega=      8.8695 meV
     lambda_tr(   3 )=      -0.002118   gamma_tr=      -0.000474 meV   omega=      8.8695 meV
     lambda___( tot )=       0.055996
     lambda_tr( tot )=       0.131796
     -------------------------------------------------------------------


     Number of (k,k+q) pairs on the Fermi surface:      216 out of      216


     ismear =     1 iq =      17 coord.:   0.00000  0.33333  0.66667 wt:   0.00463
     -------------------------------------------------------------------
     lambda___(   1 )=       0.098749   gamma___=       0.006766 meV   omega=      4.9101 meV
     lambda_tr(   1 )=       2.986224   gamma_tr=       0.204600 meV   omega=      4.9101 meV
     lambda___(   2 )=       0.106656   gamma___=       0.016730 meV   omega=      7.4294 meV
     lambda_tr(   2 )=       0.304000   gamma_tr=       0.047686 meV   omega=      7.4294 meV
     lambda___(   3 )=       0.111382   gamma___=       0.018572 meV   omega=      7.6599 meV
     lambda_tr(   3 )=       1.581083   gamma_tr=       0.263638 meV   omega=      7.6599 meV
     lambda___( tot )=       0.316787
     lambda_tr( tot )=       4.871306
     -------------------------------------------------------------------


     Number of (k,k+q) pairs on the Fermi surface:      216 out of      216


     ismear =     1 iq =      18 coord.:   0.00000  0.33333  0.83333 wt:   0.00463
     -------------------------------------------------------------------
     lambda___(   1 )=       0.050588   gamma___=       0.002563 meV   omega=      4.2226 meV
     lambda_tr(   1 )=       0.214857   gamma_tr=       0.010887 meV   omega=      4.2226 meV
     lambda___(   2 )=       0.034679   gamma___=       0.002585 meV   omega=      5.1214 meV
     lambda_tr(   2 )=      -0.055589   gamma_tr=      -0.004143 meV   omega=      5.1214 meV
     lambda___(   3 )=       0.008210   gamma___=       0.001512 meV   omega=      8.0497 meV
     lambda_tr(   3 )=      -0.013078   gamma_tr=      -0.002408 meV   omega=      8.0497 meV
     lambda___( tot )=       0.093477
     lambda_tr( tot )=       0.146190
     -------------------------------------------------------------------


     Number of (k,k+q) pairs on the Fermi surface:      216 out of      216


     ismear =     1 iq =      19 coord.:   0.00000  0.50000  0.00000 wt:   0.00463
     -------------------------------------------------------------------
     lambda___(   1 )=       0.000000   gamma___=       0.000000 meV   omega=      4.0697 meV
     lambda_tr(   1 )=       0.000000   gamma_tr=       0.000000 meV   omega=      4.0697 meV
     lambda___(   2 )=       0.000000   gamma___=       0.000000 meV   omega=      4.0697 meV
     lambda_tr(   2 )=       0.000000   gamma_tr=       0.000000 meV   omega=      4.0697 meV
     lambda___(   3 )=       0.000000   gamma___=       0.000000 meV   omega=      8.7711 meV
     lambda_tr(   3 )=       0.000000   gamma_tr=       0.000000 meV   omega=      8.7711 meV
     lambda___( tot )=       0.000000
     lambda_tr( tot )=       0.000000
     -------------------------------------------------------------------


     Number of (k,k+q) pairs on the Fermi surface:      216 out of      216


     ismear =     1 iq =      20 coord.:   0.00000  0.50000  0.16667 wt:   0.00463
     -------------------------------------------------------------------
     lambda___(   1 )=       0.039163   gamma___=       0.002091 meV   omega=      4.3349 meV
     lambda_tr(   1 )=      -0.018388   gamma_tr=      -0.000982 meV   omega=      4.3349 meV
     lambda___(   2 )=       0.076979   gamma___=       0.006232 meV   omega=      5.3373 meV
     lambda_tr(   2 )=      -0.044212   gamma_tr=      -0.003579 meV   omega=      5.3373 meV
     lambda___(   3 )=       0.068872   gamma___=       0.013965 meV   omega=      8.4470 meV
     lambda_tr(   3 )=      -0.286325   gamma_tr=      -0.058059 meV   omega=      8.4470 meV
     lambda___( tot )=       0.185014
     lambda_tr( tot )=      -0.348924
     -------------------------------------------------------------------


     Number of (k,k+q) pairs on the Fermi surface:      216 out of      216


     ismear =     1 iq =      21 coord.:   0.00000  0.50000  0.33333 wt:   0.00463
     -------------------------------------------------------------------
     lambda___(   1 )=       0.030142   gamma___=       0.001963 meV   omega=      4.7874 meV
     lambda_tr(   1 )=       0.111674   gamma_tr=       0.007274 meV   omega=      4.7874 meV
     lambda___(   2 )=       0.013200   gamma___=       0.001207 meV   omega=      5.6726 meV
     lambda_tr(   2 )=      -0.005042   gamma_tr=      -0.000461 meV   omega=      5.6726 meV
     lambda___(   3 )=       0.008969   gamma___=       0.002005 meV   omega=      8.8695 meV
     lambda_tr(   3 )=      -0.002187   gamma_tr=      -0.000489 meV   omega=      8.8695 meV
     lambda___( tot )=       0.052311
     lambda_tr( tot )=       0.104444
     -------------------------------------------------------------------


     Number of (k,k+q) pairs on the Fermi surface:      216 out of      216


     ismear =     1 iq =      22 coord.:   0.00000  0.50000  0.50000 wt:   0.00463
     -------------------------------------------------------------------
     lambda___(   1 )=       1.045584   gamma___=       0.073745 meV   omega=      4.9818 meV
     lambda_tr(   1 )=       6.470373   gamma_tr=       0.456356 meV   omega=      4.9818 meV
     lambda___(   2 )=       0.924233   gamma___=       0.065186 meV   omega=      4.9818 meV
     lambda_tr(   2 )=       6.277846   gamma_tr=       0.442777 meV   omega=      4.9818 meV
     lambda___(   3 )=       0.463547   gamma___=       0.119478 meV   omega=      9.5234 meV
     lambda_tr(   3 )=       2.687557   gamma_tr=       0.692709 meV   omega=      9.5234 meV
     lambda___( tot )=       2.433364
     lambda_tr( tot )=      15.435776
     -------------------------------------------------------------------


     Number of (k,k+q) pairs on the Fermi surface:      216 out of      216


     ismear =     1 iq =      23 coord.:   0.00000  0.50000  0.66667 wt:   0.00463
     -------------------------------------------------------------------
     lambda___(   1 )=       0.031592   gamma___=       0.002058 meV   omega=      4.7874 meV
     lambda_tr(   1 )=       0.121781   gamma_tr=       0.007932 meV   omega=      4.7874 meV
     lambda___(   2 )=       0.014528   gamma___=       0.001329 meV   omega=      5.6726 meV
     lambda_tr(   2 )=      -0.005801   gamma_tr=      -0.000531 meV   omega=      5.6726 meV
     lambda___(   3 )=       0.009201   gamma___=       0.002057 meV   omega=      8.8695 meV
     lambda_tr(   3 )=      -0.001521   gamma_tr=      -0.000340 meV   omega=      8.8695 meV
     lambda___( tot )=       0.055321
     lambda_tr( tot )=       0.114459
     -------------------------------------------------------------------


     Number of (k,k+q) pairs on the Fermi surface:      216 out of      216


     ismear =     1 iq =      24 coord.:   0.00000  0.50000  0.83333 wt:   0.00463
     -------------------------------------------------------------------
     lambda___(   1 )=       0.128885   gamma___=       0.006883 meV   omega=      4.3349 meV
     lambda_tr(   1 )=       0.160102   gamma_tr=       0.008550 meV   omega=      4.3349 meV
     lambda___(   2 )=       0.093693   gamma___=       0.007585 meV   omega=      5.3373 meV
     lambda_tr(   2 )=      -0.043732   gamma_tr=      -0.003540 meV   omega=      5.3373 meV
     lambda___(   3 )=       0.121682   gamma___=       0.024674 meV   omega=      8.4470 meV
     lambda_tr(   3 )=      -0.241526   gamma_tr=      -0.048975 meV   omega=      8.4470 meV
     lambda___( tot )=       0.344260
     lambda_tr( tot )=      -0.125156
     -------------------------------------------------------------------


     Number of (k,k+q) pairs on the Fermi surface:      216 out of      216


     ismear =     1 iq =      25 coord.:   0.00000  0.66667  0.00000 wt:   0.00463
     -------------------------------------------------------------------
     lambda___(   1 )=       0.160053   gamma___=       0.005219 meV   omega=      3.3875 meV
     lambda_tr(   1 )=      -6.282814   gamma_tr=      -0.204888 meV   omega=      3.3875 meV
     lambda___(   2 )=       0.154630   gamma___=       0.005043 meV   omega=      3.3875 meV
     lambda_tr(   2 )=      -6.247426   gamma_tr=      -0.203734 meV   omega=      3.3875 meV
     lambda___(   3 )=       0.117204   gamma___=       0.018847 meV   omega=      7.5222 meV
     lambda_tr(   3 )=      -2.073381   gamma_tr=      -0.333407 meV   omega=      7.5222 meV
     lambda___( tot )=       0.431887
     lambda_tr( tot )=     -14.603621
     -------------------------------------------------------------------


     Number of (k,k+q) pairs on the Fermi surface:      216 out of      216


     ismear =     1 iq =      26 coord.:   0.00000  0.66667  0.16667 wt:   0.00463
     -------------------------------------------------------------------
     lambda___(   1 )=       0.043489   gamma___=       0.002204 meV   omega=      4.2226 meV
     lambda_tr(   1 )=       0.191044   gamma_tr=       0.009681 meV   omega=      4.2226 meV
     lambda___(   2 )=       0.030276   gamma___=       0.002257 meV   omega=      5.1214 meV
     lambda_tr(   2 )=      -0.058991   gamma_tr=      -0.004397 meV   omega=      5.1214 meV
     lambda___(   3 )=       0.007829   gamma___=       0.001442 meV   omega=      8.0497 meV
     lambda_tr(   3 )=      -0.014165   gamma_tr=      -0.002608 meV   omega=      8.0497 meV
     lambda___( tot )=       0.081593
     lambda_tr( tot )=       0.117888
     -------------------------------------------------------------------


     Number of (k,k+q) pairs on the Fermi surface:      216 out of      216


     ismear =     1 iq =      27 coord.:   0.00000  0.66667  0.33333 wt:   0.00463
     -------------------------------------------------------------------
     lambda___(   1 )=       0.069577   gamma___=       0.004767 meV   omega=      4.9101 meV
     lambda_tr(   1 )=       2.071256   gamma_tr=       0.141911 meV   omega=      4.9101 meV
     lambda___(   2 )=       0.088051   gamma___=       0.013812 meV   omega=      7.4294 meV
     lambda_tr(   2 )=       0.237371   gamma_tr=       0.037235 meV   omega=      7.4294 meV
     lambda___(   3 )=       0.093242   gamma___=       0.015548 meV   omega=      7.6599 meV
     lambda_tr(   3 )=       1.356773   gamma_tr=       0.226236 meV   omega=      7.6599 meV
     lambda___( tot )=       0.250870
     lambda_tr( tot )=       3.665401
     -------------------------------------------------------------------


     Number of (k,k+q) pairs on the Fermi surface:      216 out of      216


     ismear =     1 iq =      28 coord.:   0.00000  0.66667  0.50000 wt:   0.00463
     -------------------------------------------------------------------
     lambda___(   1 )=       0.029523   gamma___=       0.001923 meV   omega=      4.7874 meV
     lambda_tr(   1 )=       0.099647   gamma_tr=       0.006490 meV   omega=      4.7874 meV
     lambda___(   2 )=       0.013906   gamma___=       0.001272 meV   omega=      5.6726 meV
     lambda_tr(   2 )=      -0.006486   gamma_tr=      -0.000593 meV   omega=      5.6726 meV
     lambda___(   3 )=       0.008558   gamma___=       0.001913 meV   omega=      8.8695 meV
     lambda_tr(   3 )=      -0.002284   gamma_tr=      -0.000511 meV   omega=      8.8695 meV
     lambda___( tot )=       0.051988
     lambda_tr( tot )=       0.090876
     -------------------------------------------------------------------


     Number of (k,k+q) pairs on the Fermi surface:      216 out of      216


     ismear =     1 iq =      29 coord.:   0.00000  0.66667  0.66667 wt:   0.00463
     -------------------------------------------------------------------
     lambda___(   1 )=       0.442867   gamma___=       0.019863 meV   omega=      3.9727 meV
     lambda_tr(   1 )=       0.447263   gamma_tr=       0.020060 meV   omega=      3.9727 meV
     lambda___(   2 )=       0.444872   gamma___=       0.019953 meV   omega=      3.9727 meV
     lambda_tr(   2 )=       0.449768   gamma_tr=       0.020173 meV   omega=      3.9727 meV
     lambda___(   3 )=       0.017118   gamma___=       0.003448 meV   omega=      8.4186 meV
     lambda_tr(   3 )=       0.014265   gamma_tr=       0.002873 meV   omega=      8.4186 meV
     lambda___( tot )=       0.904857
     lambda_tr( tot )=       0.911296
     -------------------------------------------------------------------


     Number of (k,k+q) pairs on the Fermi surface:      216 out of      216


     ismear =     1 iq =      30 coord.:   0.00000  0.66667  0.83333 wt:   0.00463
     -------------------------------------------------------------------
     lambda___(   1 )=       0.008750   gamma___=       0.000264 meV   omega=      3.2583 meV
     lambda_tr(   1 )=       0.023759   gamma_tr=       0.000717 meV   omega=      3.2583 meV
     lambda___(   2 )=       0.027169   gamma___=       0.001104 meV   omega=      3.7812 meV
     lambda_tr(   2 )=       0.146639   gamma_tr=       0.005958 meV   omega=      3.7812 meV
     lambda___(   3 )=       0.006416   gamma___=       0.000956 meV   omega=      7.2397 meV
     lambda_tr(   3 )=      -0.012219   gamma_tr=      -0.001820 meV   omega=      7.2397 meV
     lambda___( tot )=       0.042335
     lambda_tr( tot )=       0.158179
     -------------------------------------------------------------------


     Number of (k,k+q) pairs on the Fermi surface:      216 out of      216


     ismear =     1 iq =      31 coord.:   0.00000  0.83333  0.00000 wt:   0.00463
     -------------------------------------------------------------------
     lambda___(   1 )=       0.016616   gamma___=       0.000151 meV   omega=      1.7871 meV
     lambda_tr(   1 )=       0.016736   gamma_tr=       0.000152 meV   omega=      1.7871 meV
     lambda___(   2 )=       0.011536   gamma___=       0.000105 meV   omega=      1.7871 meV
     lambda_tr(   2 )=       0.011654   gamma_tr=       0.000106 meV   omega=      1.7871 meV
     lambda___(   3 )=       0.021436   gamma___=       0.001104 meV   omega=      4.2564 meV
     lambda_tr(   3 )=       0.021306   gamma_tr=       0.001097 meV   omega=      4.2564 meV
     lambda___( tot )=       0.049588
     lambda_tr( tot )=       0.049697
     -------------------------------------------------------------------


     Number of (k,k+q) pairs on the Fermi surface:      216 out of      216


     ismear =     1 iq =      32 coord.:   0.00000  0.83333  0.16667 wt:   0.00463
     -------------------------------------------------------------------
     lambda___(   1 )=      -0.625532   gamma___=      -0.016844 meV   omega=      3.0782 meV
     lambda_tr(   1 )=      -1.427232   gamma_tr=      -0.038432 meV   omega=      3.0782 meV
     lambda___(   2 )=       0.108292   gamma___=       0.003278 meV   omega=      3.2635 meV
     lambda_tr(   2 )=      -0.732943   gamma_tr=      -0.022185 meV   omega=      3.2635 meV
     lambda___(   3 )=       0.063908   gamma___=       0.007203 meV   omega=      6.2976 meV
     lambda_tr(   3 )=       0.021555   gamma_tr=       0.002430 meV   omega=      6.2976 meV
     lambda___( tot )=      -0.453332
     lambda_tr( tot )=      -2.138619
     -------------------------------------------------------------------


     Number of (k,k+q) pairs on the Fermi surface:      216 out of      216


     ismear =     1 iq =      33 coord.:   0.00000  0.83333  0.33333 wt:   0.00463
     -------------------------------------------------------------------
     lambda___(   1 )=       0.040832   gamma___=       0.002069 meV   omega=      4.2226 meV
     lambda_tr(   1 )=       0.193645   gamma_tr=       0.009812 meV   omega=      4.2226 meV
     lambda___(   2 )=       0.032595   gamma___=       0.002430 meV   omega=      5.1214 meV
     lambda_tr(   2 )=      -0.057542   gamma_tr=      -0.004289 meV   omega=      5.1214 meV
     lambda___(   3 )=       0.008527   gamma___=       0.001570 meV   omega=      8.0497 meV
     lambda_tr(   3 )=      -0.013158   gamma_tr=      -0.002423 meV   omega=      8.0497 meV
     lambda___( tot )=       0.081954
     lambda_tr( tot )=       0.122945
     -------------------------------------------------------------------


     Number of (k,k+q) pairs on the Fermi surface:      216 out of      216


     ismear =     1 iq =      34 coord.:   0.00000  0.83333  0.50000 wt:   0.00463
     -------------------------------------------------------------------
     lambda___(   1 )=       0.140772   gamma___=       0.007518 meV   omega=      4.3349 meV
     lambda_tr(   1 )=       0.134842   gamma_tr=       0.007201 meV   omega=      4.3349 meV
     lambda___(   2 )=       0.037766   gamma___=       0.003057 meV   omega=      5.3373 meV
     lambda_tr(   2 )=      -0.079305   gamma_tr=      -0.006420 meV   omega=      5.3373 meV
     lambda___(   3 )=       0.043329   gamma___=       0.008786 meV   omega=      8.4470 meV
     lambda_tr(   3 )=      -0.299944   gamma_tr=      -0.060820 meV   omega=      8.4470 meV
     lambda___( tot )=       0.221867
     lambda_tr( tot )=      -0.244407
     -------------------------------------------------------------------


     Number of (k,k+q) pairs on the Fermi surface:      216 out of      216


     ismear =     1 iq =      35 coord.:   0.00000  0.83333  0.66667 wt:   0.00463
     -------------------------------------------------------------------
     lambda___(   1 )=       0.002546   gamma___=       0.000077 meV   omega=      3.2583 meV
     lambda_tr(   1 )=      -0.007773   gamma_tr=      -0.000235 meV   omega=      3.2583 meV
     lambda___(   2 )=       0.026912   gamma___=       0.001093 meV   omega=      3.7812 meV
     lambda_tr(   2 )=       0.143353   gamma_tr=       0.005825 meV   omega=      3.7812 meV
     lambda___(   3 )=       0.006618   gamma___=       0.000986 meV   omega=      7.2397 meV
     lambda_tr(   3 )=      -0.011640   gamma_tr=      -0.001734 meV   omega=      7.2397 meV
     lambda___( tot )=       0.036076
     lambda_tr( tot )=       0.123939
     -------------------------------------------------------------------


     Number of (k,k+q) pairs on the Fermi surface:      216 out of      216


     ismear =     1 iq =      36 coord.:   0.00000  0.83333  0.83333 wt:   0.00463
     -------------------------------------------------------------------
     lambda___(   1 )=       0.058464   gamma___=       0.000560 meV   omega=      1.8366 meV
     lambda_tr(   1 )=       0.153666   gamma_tr=       0.001473 meV   omega=      1.8366 meV
     lambda___(   2 )=       0.082096   gamma___=       0.000787 meV   omega=      1.8366 meV
     lambda_tr(   2 )=       0.166878   gamma_tr=       0.001600 meV   omega=      1.8366 meV
     lambda___(   3 )=       0.140723   gamma___=       0.010208 meV   omega=      5.0522 meV
     lambda_tr(   3 )=       0.060527   gamma_tr=       0.004391 meV   omega=      5.0522 meV
     lambda___( tot )=       0.281283
     lambda_tr( tot )=       0.381071
     -------------------------------------------------------------------


     Number of (k,k+q) pairs on the Fermi surface:      216 out of      216


     ismear =     1 iq =      37 coord.:   0.16667  0.00000  0.00000 wt:   0.00463
     -------------------------------------------------------------------
     lambda___(   1 )=       0.021676   gamma___=       0.000197 meV   omega=      1.7871 meV
     lambda_tr(   1 )=       0.021729   gamma_tr=       0.000197 meV   omega=      1.7871 meV
     lambda___(   2 )=       0.018378   gamma___=       0.000167 meV   omega=      1.7871 meV
     lambda_tr(   2 )=       0.018387   gamma_tr=       0.000167 meV   omega=      1.7871 meV
     lambda___(   3 )=       0.021510   gamma___=       0.001107 meV   omega=      4.2564 meV
     lambda_tr(   3 )=       0.021377   gamma_tr=       0.001101 meV   omega=      4.2564 meV
     lambda___( tot )=       0.061565
     lambda_tr( tot )=       0.061493
     -------------------------------------------------------------------


     Number of (k,k+q) pairs on the Fermi surface:      216 out of      216


     ismear =     1 iq =      38 coord.:   0.16667  0.00000  0.16667 wt:   0.00463
     -------------------------------------------------------------------
     lambda___(   1 )=      -0.042933   gamma___=      -0.000412 meV   omega=      1.8366 meV
     lambda_tr(   1 )=       0.098375   gamma_tr=       0.000943 meV   omega=      1.8366 meV
     lambda___(   2 )=      -0.043237   gamma___=      -0.000414 meV   omega=      1.8366 meV
     lambda_tr(   2 )=       0.095223   gamma_tr=       0.000913 meV   omega=      1.8366 meV
     lambda___(   3 )=       0.140282   gamma___=       0.010176 meV   omega=      5.0522 meV
     lambda_tr(   3 )=       0.055858   gamma_tr=       0.004052 meV   omega=      5.0522 meV
     lambda___( tot )=       0.054112
     lambda_tr( tot )=       0.249455
     -------------------------------------------------------------------


     Number of (k,k+q) pairs on the Fermi surface:      216 out of      216


     ismear =     1 iq =      39 coord.:   0.16667  0.00000  0.33333 wt:   0.00463
     -------------------------------------------------------------------
     lambda___(   1 )=       0.016283   gamma___=       0.000491 meV   omega=      3.2583 meV
     lambda_tr(   1 )=       0.066643   gamma_tr=       0.002011 meV   omega=      3.2583 meV
     lambda___(   2 )=       0.026819   gamma___=       0.001090 meV   omega=      3.7812 meV
     lambda_tr(   2 )=       0.145675   gamma_tr=       0.005919 meV   omega=      3.7812 meV
     lambda___(   3 )=       0.006688   gamma___=       0.000996 meV   omega=      7.2397 meV
     lambda_tr(   3 )=      -0.013736   gamma_tr=      -0.002046 meV   omega=      7.2397 meV
     lambda___( tot )=       0.049790
     lambda_tr( tot )=       0.198582
     -------------------------------------------------------------------


     Number of (k,k+q) pairs on the Fermi surface:      216 out of      216


     ismear =     1 iq =      40 coord.:   0.16667  0.00000  0.50000 wt:   0.00463
     -------------------------------------------------------------------
     lambda___(   1 )=      -0.149515   gamma___=      -0.007985 meV   omega=      4.3349 meV
     lambda_tr(   1 )=      -0.025211   gamma_tr=      -0.001346 meV   omega=      4.3349 meV
     lambda___(   2 )=       0.057105   gamma___=       0.004623 meV   omega=      5.3373 meV
     lambda_tr(   2 )=      -0.068680   gamma_tr=      -0.005560 meV   omega=      5.3373 meV
     lambda___(   3 )=       0.054778   gamma___=       0.011107 meV   omega=      8.4470 meV
     lambda_tr(   3 )=      -0.300212   gamma_tr=      -0.060875 meV   omega=      8.4470 meV
     lambda___( tot )=      -0.037632
     lambda_tr( tot )=      -0.394103
     -------------------------------------------------------------------


     Number of (k,k+q) pairs on the Fermi surface:      216 out of      216


     ismear =     1 iq =      41 coord.:   0.16667  0.00000  0.66667 wt:   0.00463
     -------------------------------------------------------------------
     lambda___(   1 )=       0.045621   gamma___=       0.002312 meV   omega=      4.2226 meV
     lambda_tr(   1 )=       0.195953   gamma_tr=       0.009929 meV   omega=      4.2226 meV
     lambda___(   2 )=       0.032571   gamma___=       0.002428 meV   omega=      5.1214 meV
     lambda_tr(   2 )=      -0.059897   gamma_tr=      -0.004465 meV   omega=      5.1214 meV
     lambda___(   3 )=       0.008738   gamma___=       0.001609 meV   omega=      8.0497 meV
     lambda_tr(   3 )=      -0.013613   gamma_tr=      -0.002507 meV   omega=      8.0497 meV
     lambda___( tot )=       0.086930
     lambda_tr( tot )=       0.122444
     -------------------------------------------------------------------


     Number of (k,k+q) pairs on the Fermi surface:      216 out of      216


     ismear =     1 iq =      42 coord.:   0.16667  0.00000  0.83333 wt:   0.00463
     -------------------------------------------------------------------
     lambda___(   1 )=      -1.266192   gamma___=      -0.034096 meV   omega=      3.0782 meV
     lambda_tr(   1 )=      -2.016864   gamma_tr=      -0.054309 meV   omega=      3.0782 meV
     lambda___(   2 )=       0.294934   gamma___=       0.008927 meV   omega=      3.2635 meV
     lambda_tr(   2 )=      -0.564460   gamma_tr=      -0.017085 meV   omega=      3.2635 meV
     lambda___(   3 )=       0.031491   gamma___=       0.003549 meV   omega=      6.2976 meV
     lambda_tr(   3 )=      -0.010890   gamma_tr=      -0.001227 meV   omega=      6.2976 meV
     lambda___( tot )=      -0.939767
     lambda_tr( tot )=      -2.592214
     -------------------------------------------------------------------


     Number of (k,k+q) pairs on the Fermi surface:      216 out of      216


     ismear =     1 iq =      43 coord.:   0.16667  0.16667  0.00000 wt:   0.00463
     -------------------------------------------------------------------
     lambda___(   1 )=       0.069754   gamma___=       0.000669 meV   omega=      1.8366 meV
     lambda_tr(   1 )=       0.159221   gamma_tr=       0.001526 meV   omega=      1.8366 meV
     lambda___(   2 )=       0.069255   gamma___=       0.000664 meV   omega=      1.8366 meV
     lambda_tr(   2 )=       0.154318   gamma_tr=       0.001479 meV   omega=      1.8366 meV
     lambda___(   3 )=       0.140939   gamma___=       0.010224 meV   omega=      5.0522 meV
     lambda_tr(   3 )=       0.058541   gamma_tr=       0.004247 meV   omega=      5.0522 meV
     lambda___( tot )=       0.279948
     lambda_tr( tot )=       0.372079
     -------------------------------------------------------------------


     Number of (k,k+q) pairs on the Fermi surface:      216 out of      216


     ismear =     1 iq =      44 coord.:   0.16667  0.16667  0.16667 wt:   0.00463
     -------------------------------------------------------------------
     lambda___(   1 )=       0.014702   gamma___=       0.000133 meV   omega=      1.7871 meV
     lambda_tr(   1 )=       0.014850   gamma_tr=       0.000135 meV   omega=      1.7871 meV
     lambda___(   2 )=       0.018879   gamma___=       0.000171 meV   omega=      1.7871 meV
     lambda_tr(   2 )=       0.019046   gamma_tr=       0.000173 meV   omega=      1.7871 meV
     lambda___(   3 )=       0.021471   gamma___=       0.001105 meV   omega=      4.2564 meV
     lambda_tr(   3 )=       0.021321   gamma_tr=       0.001098 meV   omega=      4.2564 meV
     lambda___( tot )=       0.055052
     lambda_tr( tot )=       0.055216
     -------------------------------------------------------------------


     Number of (k,k+q) pairs on the Fermi surface:      216 out of      216


     ismear =     1 iq =      45 coord.:   0.16667  0.16667  0.33333 wt:   0.00463
     -------------------------------------------------------------------
     lambda___(   1 )=      -0.186140   gamma___=      -0.005012 meV   omega=      3.0782 meV
     lambda_tr(   1 )=      -1.049353   gamma_tr=      -0.028257 meV   omega=      3.0782 meV
     lambda___(   2 )=       0.647341   gamma___=       0.019594 meV   omega=      3.2635 meV
     lambda_tr(   2 )=      -0.314188   gamma_tr=      -0.009510 meV   omega=      3.2635 meV
     lambda___(   3 )=       0.135566   gamma___=       0.015280 meV   omega=      6.2976 meV
     lambda_tr(   3 )=       0.094585   gamma_tr=       0.010661 meV   omega=      6.2976 meV
     lambda___( tot )=       0.596767
     lambda_tr( tot )=      -1.268956
     -------------------------------------------------------------------


     Number of (k,k+q) pairs on the Fermi surface:      216 out of      216


     ismear =     1 iq =      46 coord.:   0.16667  0.16667  0.50000 wt:   0.00463
     -------------------------------------------------------------------
     lambda___(   1 )=       0.040189   gamma___=       0.002036 meV   omega=      4.2226 meV
     lambda_tr(   1 )=       0.203668   gamma_tr=       0.010320 meV   omega=      4.2226 meV
     lambda___(   2 )=       0.032721   gamma___=       0.002439 meV   omega=      5.1214 meV
     lambda_tr(   2 )=      -0.063564   gamma_tr=      -0.004738 meV   omega=      5.1214 meV
     lambda___(   3 )=       0.008653   gamma___=       0.001593 meV   omega=      8.0497 meV
     lambda_tr(   3 )=      -0.012329   gamma_tr=      -0.002270 meV   omega=      8.0497 meV
     lambda___( tot )=       0.081563
     lambda_tr( tot )=       0.127774
     -------------------------------------------------------------------


     Number of (k,k+q) pairs on the Fermi surface:      216 out of      216


     ismear =     1 iq =      47 coord.:   0.16667  0.16667  0.66667 wt:   0.00463
     -------------------------------------------------------------------
     lambda___(   1 )=       0.266902   gamma___=       0.014254 meV   omega=      4.3349 meV
     lambda_tr(   1 )=       0.116302   gamma_tr=       0.006211 meV   omega=      4.3349 meV
     lambda___(   2 )=       0.042664   gamma___=       0.003454 meV   omega=      5.3373 meV
     lambda_tr(   2 )=      -0.108282   gamma_tr=      -0.008766 meV   omega=      5.3373 meV
     lambda___(   3 )=       0.093245   gamma___=       0.018907 meV   omega=      8.4470 meV
     lambda_tr(   3 )=      -0.261436   gamma_tr=      -0.053012 meV   omega=      8.4470 meV
     lambda___( tot )=       0.402810
     lambda_tr( tot )=      -0.253415
     -------------------------------------------------------------------


     Number of (k,k+q) pairs on the Fermi surface:      216 out of      216


     ismear =     1 iq =      48 coord.:   0.16667  0.16667  0.83333 wt:   0.00463
     -------------------------------------------------------------------
     lambda___(   1 )=       0.003548   gamma___=       0.000107 meV   omega=      3.2583 meV
     lambda_tr(   1 )=       0.001475   gamma_tr=       0.000045 meV   omega=      3.2583 meV
     lambda___(   2 )=       0.028045   gamma___=       0.001140 meV   omega=      3.7812 meV
     lambda_tr(   2 )=       0.149946   gamma_tr=       0.006093 meV   omega=      3.7812 meV
     lambda___(   3 )=       0.006936   gamma___=       0.001033 meV   omega=      7.2397 meV
     lambda_tr(   3 )=      -0.013072   gamma_tr=      -0.001947 meV   omega=      7.2397 meV
     lambda___( tot )=       0.038529
     lambda_tr( tot )=       0.138349
     -------------------------------------------------------------------


     Number of (k,k+q) pairs on the Fermi surface:      216 out of      216


     ismear =     1 iq =      49 coord.:   0.16667  0.33333  0.00000 wt:   0.00463
     -------------------------------------------------------------------
     lambda___(   1 )=       0.007185   gamma___=       0.000217 meV   omega=      3.2583 meV
     lambda_tr(   1 )=       0.006436   gamma_tr=       0.000194 meV   omega=      3.2583 meV
     lambda___(   2 )=       0.027118   gamma___=       0.001102 meV   omega=      3.7812 meV
     lambda_tr(   2 )=       0.148582   gamma_tr=       0.006037 meV   omega=      3.7812 meV
     lambda___(   3 )=       0.006697   gamma___=       0.000998 meV   omega=      7.2397 meV
     lambda_tr(   3 )=      -0.013113   gamma_tr=      -0.001953 meV   omega=      7.2397 meV
     lambda___( tot )=       0.040999
     lambda_tr( tot )=       0.141905
     -------------------------------------------------------------------


     Number of (k,k+q) pairs on the Fermi surface:      216 out of      216


     ismear =     1 iq =      50 coord.:   0.16667  0.33333  0.16667 wt:   0.00463
     -------------------------------------------------------------------
     lambda___(   1 )=      -0.878265   gamma___=      -0.023650 meV   omega=      3.0782 meV
     lambda_tr(   1 )=      -1.662824   gamma_tr=      -0.044776 meV   omega=      3.0782 meV
     lambda___(   2 )=      -0.024537   gamma___=      -0.000743 meV   omega=      3.2635 meV
     lambda_tr(   2 )=      -0.863675   gamma_tr=      -0.026142 meV   omega=      3.2635 meV
     lambda___(   3 )=       0.066524   gamma___=       0.007498 meV   omega=      6.2976 meV
     lambda_tr(   3 )=       0.023608   gamma_tr=       0.002661 meV   omega=      6.2976 meV
     lambda___( tot )=      -0.836278
     lambda_tr( tot )=      -2.502892
     -------------------------------------------------------------------


     Number of (k,k+q) pairs on the Fermi surface:      216 out of      216


     ismear =     1 iq =      51 coord.:   0.16667  0.33333  0.33333 wt:   0.00463
     -------------------------------------------------------------------
     lambda___(   1 )=       0.013717   gamma___=       0.000414 meV   omega=      3.2583 meV
     lambda_tr(   1 )=       0.058750   gamma_tr=       0.001772 meV   omega=      3.2583 meV
     lambda___(   2 )=       0.027828   gamma___=       0.001131 meV   omega=      3.7812 meV
     lambda_tr(   2 )=       0.144538   gamma_tr=       0.005873 meV   omega=      3.7812 meV
     lambda___(   3 )=       0.006851   gamma___=       0.001020 meV   omega=      7.2397 meV
     lambda_tr(   3 )=      -0.014270   gamma_tr=      -0.002126 meV   omega=      7.2397 meV
     lambda___( tot )=       0.048396
     lambda_tr( tot )=       0.189018
     -------------------------------------------------------------------


     Number of (k,k+q) pairs on the Fermi surface:      216 out of      216


     ismear =     1 iq =      52 coord.:   0.16667  0.33333  0.50000 wt:   0.00463
     -------------------------------------------------------------------
     lambda___(   1 )=       0.125849   gamma___=       0.007495 meV   omega=      4.5777 meV
     lambda_tr(   1 )=      -0.072746   gamma_tr=      -0.004332 meV   omega=      4.5777 meV
     lambda___(   2 )=       0.473743   gamma___=       0.039757 meV   omega=      5.4341 meV
     lambda_tr(   2 )=      -1.020593   gamma_tr=      -0.085649 meV   omega=      5.4341 meV
     lambda___(   3 )=       0.115388   gamma___=       0.021623 meV   omega=      8.1203 meV
     lambda_tr(   3 )=       0.501006   gamma_tr=       0.093884 meV   omega=      8.1203 meV
     lambda___( tot )=       0.714980
     lambda_tr( tot )=      -0.592333
     -------------------------------------------------------------------


     Number of (k,k+q) pairs on the Fermi surface:      216 out of      216


     ismear =     1 iq =      53 coord.:   0.16667  0.33333  0.66667 wt:   0.00463
     -------------------------------------------------------------------
     lambda___(   1 )=       0.006073   gamma___=       0.000457 meV   omega=      5.1442 meV
     lambda_tr(   1 )=       0.013572   gamma_tr=       0.001021 meV   omega=      5.1442 meV
     lambda___(   2 )=       0.005156   gamma___=       0.000693 meV   omega=      6.8777 meV
     lambda_tr(   2 )=      -0.000267   gamma_tr=      -0.000036 meV   omega=      6.8777 meV
     lambda___(   3 )=       0.016990   gamma___=       0.003100 meV   omega=      8.0133 meV
     lambda_tr(   3 )=       0.077202   gamma_tr=       0.014088 meV   omega=      8.0133 meV
     lambda___( tot )=       0.028219
     lambda_tr( tot )=       0.090507
     -------------------------------------------------------------------


     Number of (k,k+q) pairs on the Fermi surface:      216 out of      216


     ismear =     1 iq =      54 coord.:   0.16667  0.33333  0.83333 wt:   0.00463
     -------------------------------------------------------------------
     lambda___(   1 )=      -0.145773   gamma___=      -0.008681 meV   omega=      4.5777 meV
     lambda_tr(   1 )=      -0.359924   gamma_tr=      -0.021434 meV   omega=      4.5777 meV
     lambda___(   2 )=       0.394549   gamma___=       0.033111 meV   omega=      5.4341 meV
     lambda_tr(   2 )=      -1.127505   gamma_tr=      -0.094621 meV   omega=      5.4341 meV
     lambda___(   3 )=       0.173848   gamma___=       0.032578 meV   omega=      8.1203 meV
     lambda_tr(   3 )=       0.525723   gamma_tr=       0.098516 meV   omega=      8.1203 meV
     lambda___( tot )=       0.422624
     lambda_tr( tot )=      -0.961706
     -------------------------------------------------------------------


     Number of (k,k+q) pairs on the Fermi surface:      216 out of      216


     ismear =     1 iq =      55 coord.:   0.16667  0.50000  0.00000 wt:   0.00463
     -------------------------------------------------------------------
     lambda___(   1 )=       0.267383   gamma___=       0.014279 meV   omega=      4.3349 meV
     lambda_tr(   1 )=       0.215535   gamma_tr=       0.011510 meV   omega=      4.3349 meV
     lambda___(   2 )=       0.055719   gamma___=       0.004511 meV   omega=      5.3373 meV
     lambda_tr(   2 )=      -0.092624   gamma_tr=      -0.007499 meV   omega=      5.3373 meV
     lambda___(   3 )=       0.068051   gamma___=       0.013799 meV   omega=      8.4470 meV
     lambda_tr(   3 )=      -0.283222   gamma_tr=      -0.057430 meV   omega=      8.4470 meV
     lambda___( tot )=       0.391153
     lambda_tr( tot )=      -0.160311
     -------------------------------------------------------------------


     Number of (k,k+q) pairs on the Fermi surface:      216 out of      216


     ismear =     1 iq =      56 coord.:   0.16667  0.50000  0.16667 wt:   0.00463
     -------------------------------------------------------------------
     lambda___(   1 )=       0.044591   gamma___=       0.002260 meV   omega=      4.2226 meV
     lambda_tr(   1 )=       0.198054   gamma_tr=       0.010036 meV   omega=      4.2226 meV
     lambda___(   2 )=       0.033609   gamma___=       0.002505 meV   omega=      5.1214 meV
     lambda_tr(   2 )=      -0.055418   gamma_tr=      -0.004131 meV   omega=      5.1214 meV
     lambda___(   3 )=       0.008366   gamma___=       0.001541 meV   omega=      8.0497 meV
     lambda_tr(   3 )=      -0.014614   gamma_tr=      -0.002691 meV   omega=      8.0497 meV
     lambda___( tot )=       0.086566
     lambda_tr( tot )=       0.128021
     -------------------------------------------------------------------


     Number of (k,k+q) pairs on the Fermi surface:      216 out of      216


     ismear =     1 iq =      57 coord.:   0.16667  0.50000  0.33333 wt:   0.00463
     -------------------------------------------------------------------
     lambda___(   1 )=      -0.072283   gamma___=      -0.004305 meV   omega=      4.5777 meV
     lambda_tr(   1 )=      -0.253525   gamma_tr=      -0.015098 meV   omega=      4.5777 meV
     lambda___(   2 )=       0.322568   gamma___=       0.027070 meV   omega=      5.4341 meV
     lambda_tr(   2 )=      -1.231928   gamma_tr=      -0.103385 meV   omega=      5.4341 meV
     lambda___(   3 )=       0.132972   gamma___=       0.024918 meV   omega=      8.1203 meV
     lambda_tr(   3 )=       0.484019   gamma_tr=       0.090701 meV   omega=      8.1203 meV
     lambda___( tot )=       0.383258
     lambda_tr( tot )=      -1.001434
     -------------------------------------------------------------------


     Number of (k,k+q) pairs on the Fermi surface:      216 out of      216


     ismear =     1 iq =      58 coord.:   0.16667  0.50000  0.50000 wt:   0.00463
     -------------------------------------------------------------------
     lambda___(   1 )=       0.031952   gamma___=       0.002081 meV   omega=      4.7874 meV
     lambda_tr(   1 )=       0.127695   gamma_tr=       0.008317 meV   omega=      4.7874 meV
     lambda___(   2 )=       0.012991   gamma___=       0.001188 meV   omega=      5.6726 meV
     lambda_tr(   2 )=      -0.005106   gamma_tr=      -0.000467 meV   omega=      5.6726 meV
     lambda___(   3 )=       0.009428   gamma___=       0.002108 meV   omega=      8.8695 meV
     lambda_tr(   3 )=      -0.002159   gamma_tr=      -0.000483 meV   omega=      8.8695 meV
     lambda___( tot )=       0.054372
     lambda_tr( tot )=       0.120430
     -------------------------------------------------------------------


     Number of (k,k+q) pairs on the Fermi surface:      216 out of      216


     ismear =     1 iq =      59 coord.:   0.16667  0.50000  0.66667 wt:   0.00463
     -------------------------------------------------------------------
     lambda___(   1 )=       0.121773   gamma___=       0.010501 meV   omega=      5.5086 meV
     lambda_tr(   1 )=       0.123685   gamma_tr=       0.010666 meV   omega=      5.5086 meV
     lambda___(   2 )=       0.084280   gamma___=       0.009852 meV   omega=      6.4134 meV
     lambda_tr(   2 )=       0.081883   gamma_tr=       0.009571 meV   omega=      6.4134 meV
     lambda___(   3 )=       0.083602   gamma___=       0.017598 meV   omega=      8.6064 meV
     lambda_tr(   3 )=       0.091094   gamma_tr=       0.019175 meV   omega=      8.6064 meV
     lambda___( tot )=       0.289656
     lambda_tr( tot )=       0.296662
     -------------------------------------------------------------------


     Number of (k,k+q) pairs on the Fermi surface:      216 out of      216


     ismear =     1 iq =      60 coord.:   0.16667  0.50000  0.83333 wt:   0.00463
     -------------------------------------------------------------------
     lambda___(   1 )=       0.005574   gamma___=       0.000419 meV   omega=      5.1442 meV
     lambda_tr(   1 )=       0.012109   gamma_tr=       0.000911 meV   omega=      5.1442 meV
     lambda___(   2 )=       0.004979   gamma___=       0.000669 meV   omega=      6.8777 meV
     lambda_tr(   2 )=      -0.000028   gamma_tr=      -0.000004 meV   omega=      6.8777 meV
     lambda___(   3 )=       0.016913   gamma___=       0.003086 meV   omega=      8.0133 meV
     lambda_tr(   3 )=       0.076443   gamma_tr=       0.013950 meV   omega=      8.0133 meV
     lambda___( tot )=       0.027465
     lambda_tr( tot )=       0.088524
     -------------------------------------------------------------------


     Number of (k,k+q) pairs on the Fermi surface:      216 out of      216


     ismear =     1 iq =      61 coord.:   0.16667  0.66667  0.00000 wt:   0.00463
     -------------------------------------------------------------------
     lambda___(   1 )=       0.040548   gamma___=       0.002055 meV   omega=      4.2226 meV
     lambda_tr(   1 )=       0.188282   gamma_tr=       0.009541 meV   omega=      4.2226 meV
     lambda___(   2 )=       0.032856   gamma___=       0.002449 meV   omega=      5.1214 meV
     lambda_tr(   2 )=      -0.063410   gamma_tr=      -0.004727 meV   omega=      5.1214 meV
     lambda___(   3 )=       0.008107   gamma___=       0.001493 meV   omega=      8.0497 meV
     lambda_tr(   3 )=      -0.014104   gamma_tr=      -0.002597 meV   omega=      8.0497 meV
     lambda___( tot )=       0.081510
     lambda_tr( tot )=       0.110767
     -------------------------------------------------------------------


     Number of (k,k+q) pairs on the Fermi surface:      216 out of      216


     ismear =     1 iq =      62 coord.:   0.16667  0.66667  0.16667 wt:   0.00463
     -------------------------------------------------------------------
     lambda___(   1 )=      -0.056762   gamma___=      -0.003031 meV   omega=      4.3349 meV
     lambda_tr(   1 )=       0.100073   gamma_tr=       0.005344 meV   omega=      4.3349 meV
     lambda___(   2 )=       0.059937   gamma___=       0.004852 meV   omega=      5.3373 meV
     lambda_tr(   2 )=      -0.075339   gamma_tr=      -0.006099 meV   omega=      5.3373 meV
     lambda___(   3 )=       0.017308   gamma___=       0.003509 meV   omega=      8.4470 meV
     lambda_tr(   3 )=      -0.319337   gamma_tr=      -0.064753 meV   omega=      8.4470 meV
     lambda___( tot )=       0.020483
     lambda_tr( tot )=      -0.294603
     -------------------------------------------------------------------


     Number of (k,k+q) pairs on the Fermi surface:      216 out of      216


     ismear =     1 iq =      63 coord.:   0.16667  0.66667  0.33333 wt:   0.00463
     -------------------------------------------------------------------
     lambda___(   1 )=       0.004567   gamma___=       0.000343 meV   omega=      5.1442 meV
     lambda_tr(   1 )=       0.011056   gamma_tr=       0.000831 meV   omega=      5.1442 meV
     lambda___(   2 )=       0.004343   gamma___=       0.000584 meV   omega=      6.8777 meV
     lambda_tr(   2 )=       0.000182   gamma_tr=       0.000024 meV   omega=      6.8777 meV
     lambda___(   3 )=       0.016159   gamma___=       0.002949 meV   omega=      8.0133 meV
     lambda_tr(   3 )=       0.073536   gamma_tr=       0.013419 meV   omega=      8.0133 meV
     lambda___( tot )=       0.025068
     lambda_tr( tot )=       0.084774
     -------------------------------------------------------------------


     Number of (k,k+q) pairs on the Fermi surface:      216 out of      216


     ismear =     1 iq =      64 coord.:   0.16667  0.66667  0.50000 wt:   0.00463
     -------------------------------------------------------------------
     lambda___(   1 )=       0.078112   gamma___=       0.006736 meV   omega=      5.5086 meV
     lambda_tr(   1 )=       0.079594   gamma_tr=       0.006864 meV   omega=      5.5086 meV
     lambda___(   2 )=       0.038395   gamma___=       0.004488 meV   omega=      6.4134 meV
     lambda_tr(   2 )=       0.036777   gamma_tr=       0.004299 meV   omega=      6.4134 meV
     lambda___(   3 )=       0.082513   gamma___=       0.017369 meV   omega=      8.6064 meV
     lambda_tr(   3 )=       0.088025   gamma_tr=       0.018529 meV   omega=      8.6064 meV
     lambda___( tot )=       0.199021
     lambda_tr( tot )=       0.204396
     -------------------------------------------------------------------


     Number of (k,k+q) pairs on the Fermi surface:      216 out of      216


     ismear =     1 iq =      65 coord.:   0.16667  0.66667  0.66667 wt:   0.00463
     -------------------------------------------------------------------
     lambda___(   1 )=       0.031706   gamma___=       0.002065 meV   omega=      4.7874 meV
[...]
      210        7      6.8740    159.9356     64.1839      1.0440     -0.0422
      211        7      6.7121    142.7834    127.1182      1.2009     -0.1673
      212        7      5.5884    200.4466    195.4941      1.4879     -0.3279
      213        7      4.6673    192.2053    169.9328      1.3732     -0.2718
      214        7      5.4585    138.9652    164.7610      1.3348     -0.2508
      215        7      6.8732    159.0198     64.0398      1.0439     -0.0420
      216        7      7.7957    128.8987     37.6813      1.0737     -0.0686
  
        1        8      8.2862    105.9410      0.1216      0.9687      0.0323
        2        8      7.7982    130.1036     39.3611      1.0788     -0.0730
        3        8      6.7126    172.9864     88.4498      1.0927     -0.0848
        4        8      6.1174    170.8653      9.3583      0.9162      0.0915
        5        8      6.7126    171.5784     93.4330      1.0951     -0.0868
        6        8      7.7982    128.0686     37.6130      1.0745     -0.0693
        7        8      7.7982    128.9493     38.6485      1.0764     -0.0710
        8        8      6.7129    143.1696    125.6261      1.1944     -0.1628
        9        8      5.5908    200.9883    192.1266      1.4624     -0.3162
       10        8      4.6703    193.5782    171.6227      1.3850     -0.2780
       11        8      5.4617    140.3142    168.6113      1.3546     -0.2618
       12        8      6.8817    160.4722     63.2302      1.0379     -0.0365
       13        8      6.7126    171.4447     93.8074      1.0998     -0.0907
       14        8      5.5908    199.7933    191.2977      1.4616     -0.3158
       15        8      3.4267    142.8590    116.6471      1.0857     -0.0789
       16        8      2.3802     74.1426    219.3946      1.3065     -0.2346
       17        8      3.4954    171.0467    162.2324      1.1579     -0.1364
       18        8      5.4617    139.4553    162.5971      1.3316     -0.2490
       19        8      6.1174    170.5140      9.3134      0.9169      0.0907
       20        8      4.6703    192.0224    173.0438      1.3966     -0.2840
       21        8      2.3802     74.3871    217.3312      1.3008     -0.2312
       22        8      1.7131    187.1333     16.2887      0.8438      0.1851
       23        8      2.3802     71.5841    220.1347      1.3063     -0.2345
       24        8      4.6703    193.9588    174.9531      1.4038     -0.2877
       25        8      6.7126    173.0559     92.4184      1.0945     -0.0863
       26        8      5.4617    140.1074    168.4997      1.3562     -0.2626
       27        8      3.4954    171.9060    163.9351      1.1724     -0.1471
       28        8      2.3802     73.2773    218.3000      1.3064     -0.2345
       29        8      3.4267    140.6246    128.8843      1.1201     -0.1073
       30        8      5.5908    203.4389    192.7706      1.4635     -0.3167
       31        8      7.7982    128.3982     37.3706      1.0727     -0.0678
       32        8      6.8817    162.8782     66.1346      1.0435     -0.0417
       33        8      5.4617    141.0802    163.1661      1.3390     -0.2532
       34        8      4.6703    193.2091    176.8020      1.4117     -0.2916
       35        8      5.5908    202.7280    190.8710      1.4559     -0.3131
       36        8      6.7129    142.8884    120.8673      1.1818     -0.1538
       37        8      7.7982    128.1116     37.2627      1.0725     -0.0676
       38        8      6.7129    142.7152    126.2061      1.1978     -0.1651
       39        8      5.5908    202.1421    197.0801      1.4873     -0.3276
       40        8      4.6703    193.2357    174.7341      1.4021     -0.2868
       41        8      5.4617    140.0772    166.5584      1.3457     -0.2569
       42        8      6.8817    159.7484     61.6262      1.0366     -0.0353
       43        8      6.7121    142.2972    123.9648      1.1908     -0.1602
       44        8      7.7982    129.4804     41.9754      1.0876     -0.0806
       45        8      6.8827    162.1868     64.8852      1.0406     -0.0390
       46        8      5.4623    142.0974    163.4291      1.3403     -0.2539
       47        8      4.6689    192.3592    177.5949      1.4148     -0.2932
       48        8      5.5902    201.4454    192.2394      1.4628     -0.3164
       49        8      5.5902    198.3451    189.7634      1.4579     -0.3141
       50        8      6.8817    161.2881     64.5537      1.0405     -0.0389
       51        8      5.5908    201.3648    194.8815      1.4758     -0.3224
       52        8      4.0623    202.6760    302.3859      1.7594     -0.4316
       53        8      2.9909    210.1260    379.4465      2.0145     -0.5036
       54        8      4.0609    198.8455    303.1763      1.7715     -0.4355
       55        8      4.6689    191.3135    170.0248      1.3791     -0.2749
       56        8      5.4617    140.9630    161.4515      1.3285     -0.2473
       57        8      4.0621    201.0300    302.8820      1.7641     -0.4332
       58        8      2.3802     73.0850    220.2750      1.3134     -0.2386
       59        8      1.4397    191.2466    151.3996      0.9974      0.0026
       60        8      2.9909    210.6383    377.2979      1.9856     -0.4964
       61        8      5.4623    140.7327    166.3706      1.3492     -0.2588
       62        8      4.6703    194.4578    177.0290      1.4119     -0.2917
       63        8      2.9903    208.1680    379.7101      2.0373     -0.5092
       64        8      1.4368    194.0427    152.4291      0.9987      0.0013
       65        8      2.3802     72.1243    218.3888      1.3020     -0.2319
       66        8      4.0623    203.4008    305.8615      1.7787     -0.4378
       67        8      6.8827    162.3675     64.8118      1.0408     -0.0392
       68        8      5.5908    202.9450    198.8308      1.4877     -0.3278
       69        8      4.0621    201.4463    304.5312      1.7809     -0.4385
       70        8      2.9903    207.4207    376.0833      1.9939     -0.4985
       71        8      4.0621    202.3867    303.6912      1.7547     -0.4301
       72        8      5.5908    202.3541    189.9637      1.4502     -0.3104
       73        8      6.7126    170.8765     90.4738      1.0933     -0.0853
       74        8      5.5908    201.9007    197.6480      1.4861     -0.3271
       75        8      3.4267    143.2266    117.9084      1.0854     -0.0787
       76        8      2.3802     74.4979    218.5615      1.3052     -0.2338
       77        8      3.4954    170.3238    160.3440      1.1545     -0.1338
       78        8      5.4617    140.5842    163.2302      1.3367     -0.2519
       79        8      5.5902    199.1033    192.5178      1.4686     -0.3191
       80        8      6.8817    160.0094     64.1680      1.0412     -0.0396
       81        8      5.5908    201.5017    198.9235      1.4973     -0.3321
       82        8      4.0623    201.0687    303.1991      1.7763     -0.4370
       83        8      2.9909    209.2735    377.7313      2.0115     -0.5029
       84        8      4.0609    199.9672    304.4630      1.7739     -0.4363
       85        8      3.4267    139.7911    118.4577      1.0881     -0.0810
       86        8      5.5902    201.8306    195.7458      1.4815     -0.3250
       87        8      6.7126    172.5872     92.0615      1.1002     -0.0911
       88        8      5.4623    141.9795    164.5836      1.3425     -0.2551
       89        8      3.4954    171.8765    159.1389      1.1485     -0.1293
       90        8      2.3795     74.3131    216.2877      1.2913     -0.2256
       91        8      2.3795     75.0753    218.5400      1.2991     -0.2302
       92        8      4.0609    200.2574    300.3222      1.7594     -0.4316
       93        8      5.4617    141.4399    162.8475      1.3345     -0.2507
       94        8      4.6703    194.1659    172.9252      1.3920     -0.2816
       95        8      2.9909    209.2110    382.6256      2.0429     -0.5105
       96        8      1.4395    196.3035    147.8042      0.9889      0.0113
       97        8      3.4954    171.7964    159.0908      1.1547     -0.1340
       98        8      2.9909    211.8493    377.9678      2.0070     -0.5017
       99        8      3.4954    173.1087    157.9542      1.1433     -0.1253
      100        8      2.9903    210.6300    383.1919      2.0463     -0.5113
      101        8      3.4954    172.4473    164.8584      1.1713     -0.1463
      102        8      2.9909    208.8359    376.3927      1.9904     -0.4976
      103        8      5.4623    140.3963    167.9634      1.3529     -0.2609
      104        8      4.0623    201.9355    303.5446      1.7617     -0.4324
      105        8      2.3802     73.7170    220.4807      1.3031     -0.2326
      106        8      1.4368    193.0694    149.9516      0.9923      0.0078
      107        8      2.9903    210.2943    383.9526      2.0443     -0.5108
      108        8      4.6703    194.0550    174.0531      1.3991     -0.2853
      109        8      6.1174    171.0083      9.4110      0.9161      0.0916
      110        8      4.6703    193.1899    173.8613      1.3971     -0.2843
      111        8      2.3802     74.9090    219.6458      1.3057     -0.2341
      112        8      1.7131    186.8146     16.3282      0.8437      0.1853
      113        8      2.3802     72.9821    221.4698      1.3100     -0.2367
      114        8      4.6703    194.5787    171.5470      1.3852     -0.2781
      115        8      4.6689    192.1498    175.2649      1.4031     -0.2873
      116        8      5.4617    138.8899    163.3796      1.3356     -0.2513
      117        8      4.0621    199.3556    300.5460      1.7634     -0.4329
      118        8      2.3802     75.4313    220.1857      1.3147     -0.2394
      119        8      1.4397    193.6941    150.3046      0.9940      0.0060
      120        8      2.9909    213.5373    383.6750      2.0339     -0.5083
      121        8      2.3795     72.8968    218.9678      1.2982     -0.2297
      122        8      4.0609    199.2211    301.6995      1.7694     -0.4348
      123        8      5.4617    140.1865    160.9438      1.3286     -0.2474
      124        8      4.6703    192.1164    174.4866      1.4040     -0.2877
      125        8      2.9909    209.6380    377.5401      2.0128     -0.5032
      126        8      1.4395    194.2762    147.4898      0.9862      0.0140
      127        8      1.7143    187.0394     15.9072      0.8438      0.1851
      128        8      2.3795     73.6919    218.7854      1.3021     -0.2320
      129        8      4.6689    194.0234    173.1897      1.3896     -0.2804
      130        8      6.1174    170.4062      9.3358      0.9165      0.0911
      131        8      4.6689    192.9631    174.5516      1.3970     -0.2842
      132        8      2.3795     74.1940    217.9022      1.2989     -0.2301
      133        8      2.3795     75.6017    219.6915      1.3108     -0.2371
      134        8      1.4395    194.3962    150.5856      0.9962      0.0038
      135        8      2.9909    212.9472    380.7003      2.0154     -0.5038
      136        8      4.6703    193.0287    173.8698      1.3990     -0.2852
      137        8      5.4617    139.9155    162.5633      1.3322     -0.2494
      138        8      4.0609    200.2445    305.6824      1.7863     -0.4402
      139        8      4.6689    192.6152    176.5675      1.4072     -0.2893
      140        8      2.9909    210.4730    377.0290      2.0154     -0.5038
      141        8      1.4397    195.3913    148.3325      0.9871      0.0131
      142        8      2.3802     74.0156    220.5622      1.3049     -0.2337
      143        8      4.0621    201.2143    298.7190      1.7397     -0.4252
      144        8      5.4617    140.8933    161.4352      1.3291     -0.2476
      145        8      6.7126    172.5917     93.4818      1.1015     -0.0921
      146        8      5.4617    141.4287    164.8235      1.3433     -0.2556
      147        8      3.4954    172.1045    154.5521      1.1351     -0.1191
      148        8      2.3802     73.0540    219.0112      1.2998     -0.2306
      149        8      3.4267    139.4556    122.0191      1.1000     -0.0909
      150        8      5.5908    201.2241    194.0707      1.4772     -0.3230
      151        8      5.4623    141.3972    163.7266      1.3384     -0.2528
      152        8      4.6703    193.0384    175.6008      1.4095     -0.2905
      153        8      2.9903    207.4386    378.8314      2.0478     -0.5117
      154        8      1.4368    194.7605    148.4364      0.9914      0.0086
      155        8      2.3802     72.6553    220.8796      1.3051     -0.2338
      156        8      4.0623    201.1284    301.1527      1.7575     -0.4310
      157        8      3.4954    171.7432    155.8444      1.1339     -0.1181
      158        8      2.9909    209.7646    377.8972      2.0143     -0.5036
      159        8      3.4954    170.3610    161.8481      1.1642     -0.1411
      160        8      2.9903    207.4438    373.5248      1.9908     -0.4977
      161        8      3.4954    171.7332    156.0747      1.1424     -0.1246
      162        8      2.9909    213.7384    380.9429      2.0125     -0.5031
      163        8      2.3795     75.1353    218.5651      1.2979     -0.2295
      164        8      1.4395    191.6263    148.5014      0.9922      0.0079
      165        8      2.9909    209.3231    377.0933      1.9958     -0.4989
      166        8      4.6703    193.3232    176.0715      1.4091     -0.2903
      167        8      5.4617    140.2481    165.1019      1.3412     -0.2544
      168        8      4.0609    201.2621    305.7773      1.7842     -0.4395
      169        8      3.4267    142.4232    115.6381      1.0791     -0.0733
      170        8      2.3795     75.4394    218.8941      1.3060     -0.2343
      171        8      3.4954    169.2677    158.8167      1.1519     -0.1318
      172        8      5.4623    140.5436    165.7589      1.3486     -0.2585
      173        8      6.7126    171.8274     91.7987      1.0922     -0.0844
      174        8      5.5902    200.8870    197.8080      1.4930     -0.3302
      175        8      5.5902    201.1214    200.2752      1.5020     -0.3342
      176        8      4.0609    200.5611    302.9271      1.7810     -0.4385
      177        8      2.9909    211.4206    377.6121      2.0018     -0.5004
      178        8      4.0623    200.9499    302.2512      1.7563     -0.4306
      179        8      5.5908    200.4970    189.7209      1.4524     -0.3115
      180        8      6.8817    159.5476     62.7706      1.0402     -0.0386
      181        8      7.7982    129.3287     40.9332      1.0842     -0.0777
      182        8      6.8817    161.0394     64.1034      1.0410     -0.0394
      183        8      5.4617    141.5334    158.8703      1.3235     -0.2444
      184        8      4.6703    193.8599    177.6464      1.4179     -0.2947
      185        8      5.5908    202.2455    193.9421      1.4683     -0.3190
      186        8      6.7129    143.0709    124.0951      1.1920     -0.1611
      187        8      6.8827    162.1745     65.0310      1.0396     -0.0381
      188        8      5.5908    202.1947    195.9127      1.4779     -0.3234
      189        8      4.0621    201.3393    300.1736      1.7537     -0.4298
      190        8      2.9903    211.0370    381.7831      2.0417     -0.5102
      191        8      4.0621    200.5714    304.0247      1.7618     -0.4324
      192        8      5.5908    200.2569    192.2338      1.4687     -0.3191
      193        8      5.4623    140.6365    163.7475      1.3364     -0.2517
      194        8      4.0623    200.3140    300.4253      1.7552     -0.4303
      195        8      2.3802     74.5391    217.2514      1.3042     -0.2333
      196        8      1.4368    192.7374    150.9872      0.9959      0.0042
      197        8      2.9903    211.9391    382.5607      2.0294     -0.5072
      198        8      4.6703    193.4406    171.2849      1.3851     -0.2780
      199        8      4.6689    191.8640    176.5193      1.4083     -0.2899
      200        8      2.9909    207.8667    376.0951      2.0129     -0.5032
      201        8      1.4397    196.1508    150.0259      0.9934      0.0066
      202        8      2.3802     73.7177    216.8272      1.2960     -0.2284
      203        8      4.0621    203.4983    304.0068      1.7614     -0.4323
      204        8      5.4617    141.0619    163.0590      1.3366     -0.2518
      205        8      5.5902    201.5037    196.1664      1.4770     -0.3229
      206        8      4.0609    200.8254    301.6371      1.7713     -0.4354
      207        8      2.9909    208.1977    375.6222      1.9915     -0.4979
      208        8      4.0623    202.2167    301.4082      1.7502     -0.4286
      209        8      5.5908    203.3189    189.3672      1.4444     -0.3076
      210        8      6.8817    160.8574     62.7092      1.0382     -0.0368
      211        8      6.7121    142.7834    127.1182      1.2009     -0.1673
      212        8      5.5902    201.4476    195.9297      1.4824     -0.3254
      213        8      4.6689    192.6308    169.5258      1.3748     -0.2726
      214        8      5.4623    139.8017    166.4904      1.3477     -0.2580
      215        8      6.8827    159.9714     61.8470      1.0364     -0.0351
      216        8      7.7982    128.6398     37.5219      1.0735     -0.0685
  
     ===================================================================
     Memory usage:  VmHWM =        95Mb
                   VmPeak =       286Mb
     ===================================================================


     ===================================================================
     Eliashberg Spectral Function in the Migdal Approximation
     ===================================================================

     lambda :    0.2411072
     lambda_tr :    0.5958426
 
     Estimated Allen-Dynes Tc
 
     logavg =    0.0003771 l_a2F =    0.2411644
     mu =   0.10 Tc =         0.001794683131 K
     mu =   0.12 Tc =         0.000183951433 K
     mu =   0.14 Tc =         0.000005110415 K
     mu =   0.16 Tc =         0.000000007982 K
     mu =   0.18 Tc =         0.000000000000 K
     mu =   0.20 Tc =         0.000000000000 K
     a2F          :      0.08s CPU      0.08s WALL (       1 calls)

     Unfolding on the coarse grid
     elphon_wrap  :    369.44s CPU    382.08s WALL (       1 calls)

     INITIALIZATION: 

     init_vloc    :      0.12s CPU      0.11s WALL (      29 calls)
     init_us_1    :      1.81s CPU      1.85s WALL (      29 calls)


     Electron-Phonon interpolation
     ephwann      :      7.28s CPU      7.60s WALL (       1 calls)
     ep-interp    :      6.92s CPU      7.22s WALL (     216 calls)
     PH SELF-ENER :      0.51s CPU      0.52s WALL (     216 calls)

     Ham: step 1  :      0.00s CPU      0.00s WALL (       1 calls)
     Ham: step 2  :      0.00s CPU      0.00s WALL (       1 calls)
     ep: step 1   :      0.02s CPU      0.02s WALL (      81 calls)
     ep: step 2   :      0.02s CPU      0.02s WALL (      81 calls)
     DynW2B       :      0.01s CPU      0.00s WALL (     216 calls)
     HamW2B       :      2.94s CPU      3.03s WALL (   93744 calls)
     ephW2Bp      :      0.22s CPU      0.25s WALL (     216 calls)


     Total program execution
     EPW          :  6m44.68s CPU     6m58.55s WALL

                                                                                          
 Please consider citing:                                                                  
 S. Ponce, E. R. Margine, C. Verdi and F. Giustino, Comput. Phys. Commun. 209, 116 (2016) 
                                                                                          
