 BEGIN_INFO
   #
   # this is a Band-XCRYSDEN-Structure-File
   # aimed at Visualization of Fermi Surface
   #
   # Case:   ni                                                                              
   #
 Fermi Energy:         15.1160
 END_INFO
 BEGIN_BLOCK_BANDGRID_3D
 band_energies
 BANDGRID_3D_BANDS
    4
   17   17   17
  0.000000  0.000000  0.000000
 -1.000000 -1.000000  1.000000
  1.000000  1.000000  1.000000
 -1.000000  1.000000 -1.000000
BAND:   3
   13.0169   13.0560   13.1536   13.2456   13.2534   13.1787
   13.0814   13.0074   12.9803   13.0074   13.0814   13.1787
   13.2534   13.2456   13.1536   13.0560   13.0169   13.0560
   13.0822   13.1697   13.2673   13.2734   13.1736   13.0607
   13.1009   13.0504   13.0516   13.1061   13.1054   13.2129
   13.2661   13.2277   13.1127   13.0560   13.1536   13.1697
   13.2748   13.3851   13.3301   13.1496   12.9818   13.0264
   13.2548   13.2281   13.1830   12.9183   13.0790   13.2147
   13.2704   13.2277   13.1536   13.2456   13.2673   13.3851
   13.5834   13.4485   13.2040   12.9903   12.8883   12.9787
   13.0690   12.9086   12.6388   12.8452   13.0616   13.2147
   13.2661   13.2456   13.2534   13.2734   13.3301   13.4485
   13.5616   13.4570   13.2770   13.1177   13.0151   12.9300
   12.7511   12.4520   12.5527   12.8452   13.0790   13.2129
   13.2534   13.1787   13.1736   13.1496   13.2040   13.4570
   13.9150   13.9704   13.7697   13.5179   13.2319   12.9049
   12.5781   12.4520   12.6388   12.9183   13.1054   13.1787
   13.0814   13.0607   12.9818   12.9903   13.2770   13.9704
   14.8630   14.6450   14.2668   13.8173   13.3323   12.9049
   12.7511   12.9086   13.1830   13.1061   13.0814   13.0074
   13.1009   13.0264   12.8883   13.1177   13.7697   14.6450
   15.0754   14.9790   14.4508   13.8173   13.2319   12.9300
   13.0690   13.2281   13.0516   13.0074   12.9803   13.0504
   13.2548   12.9787   13.0151   13.5179   14.2668   14.9790
   15.1076   14.9790   14.2668   13.5179   13.0151   12.9787
   13.2548   13.0504   12.9803   13.0074   13.0516   13.2281
   13.0690   12.9300   13.2319   13.8173   14.4508   14.9790
   15.0754   14.6450   13.7697   13.1177   12.8883   13.0264
   13.1009   13.0074   13.0814   13.1061   13.1830   12.9086
   12.7511   12.9049   13.3323   13.8173   14.2668   14.6450
   14.8630   13.9704   13.2770   12.9903   12.9818   13.0607
   13.0814   13.1787   13.1054   12.9183   12.6388   12.4520
   12.5781   12.9049   13.2319   13.5179   13.7697   13.9704
   13.9150   13.4570   13.2040   13.1496   13.1736   13.1787
   13.2534   13.2129   13.0790   12.8452   12.5527   12.4520
   12.7511   12.9300   13.0151   13.1177   13.2770   13.4570
   13.5616   13.4485   13.3301   13.2734   13.2534   13.2456
   13.2661   13.2147   13.0616   12.8452   12.6388   12.9086
   13.0690   12.9787   12.8883   12.9903   13.2040   13.4485
   13.5834   13.3851   13.2673   13.2456   13.1536   13.2277
   13.2704   13.2147   13.0790   12.9183   13.1830   13.2281
   13.2548   13.0264   12.9818   13.1496   13.3301   13.3851
   13.2748   13.1697   13.1536   13.0560   13.1127   13.2277
   13.2661   13.2129   13.1054   13.1061   13.0516   13.0504
   13.1009   13.0607   13.1736   13.2734   13.2673   13.1697
   13.0822   13.0560   13.0169   13.0560   13.1536   13.2456
   13.2534   13.1787   13.0814   13.0074   12.9803   13.0074
   13.0814   13.1787   13.2534   13.2456   13.1536   13.0560
   13.0169   13.0560   13.0822   13.1697   13.2673   13.2734
   13.1736   13.0607   13.1009   13.0504   13.0516   13.1061
   13.1054   13.2129   13.2661   13.2277   13.1127   13.0560
   13.0822   13.0560   13.1127   13.2277   13.2661   13.2129
   13.1054   13.1061   13.0516   13.0504   13.1009   13.0607
   13.1736   13.2734   13.2673   13.1697   13.0822   13.1697
   13.1127   13.1697   13.2702   13.2985   13.2053   13.0517
   12.9662   13.1953   13.1723   13.1953   12.9662   13.0517
   13.2053   13.2985   13.2702   13.1697   13.2673   13.2277
   13.2702   13.3851   13.3876   13.2161   13.0009   12.8418
   12.9286   13.1591   13.1076   12.7854   12.8297   13.0317
   13.2111   13.2985   13.2673   13.2734   13.2661   13.2985
   13.3876   13.4485   13.3086   13.0966   12.9067   12.8249
   12.8698   12.8416   12.5971   12.5303   12.7870   13.0317
   13.2053   13.2734   13.1736   13.2129   13.2053   13.2161
   13.3086   13.4570   13.4605   13.3278   13.1651   13.0075
   12.8220   12.5497   12.2855   12.5303   12.8297   13.0517
   13.1736   13.0607   13.1054   13.0517   13.0009   13.0966
   13.4605   13.9704   14.0435   13.8407   13.5459   13.1886
   12.8048   12.5497   12.5971   12.7854   12.9662   13.0607
   13.1009   13.1061   12.9662   12.8418   12.9067   13.3278
   14.0435   14.6450   14.5596   14.2063   13.7129   13.1886
   12.8220   12.8416   13.1076   13.1953   13.1009   13.0504
   13.0516   13.1953   12.9286   12.8249   13.1651   13.8407
   14.5596   14.9790   14.7655   14.2063   13.5459   13.0075
   12.8698   13.1591   13.1723   13.0504   13.0516   13.0504
   13.1723   13.1591   12.8698   13.0075   13.5459   14.2063
   14.7655   14.9790   14.5596   13.8407   13.1651   12.8249
   12.9286   13.1953   13.0516   13.1061   13.1009   13.1953
   13.1076   12.8416   12.8220   13.1886   13.7129   14.2063
   14.5596   14.6450   14.0435   13.3278   12.9067   12.8418
   12.9662   13.1061   13.1054   13.0607   12.9662   12.7854
   12.5971   12.5497   12.8048   13.1886   13.5459   13.8407
   14.0435   13.9704   13.4605   13.0966   13.0009   13.0517
   13.1054   13.2129   13.1736   13.0517   12.8297   12.5303
   12.2855   12.5497   12.8220   13.0075   13.1651   13.3278
   13.4605   13.4570   13.3086   13.2161   13.2053   13.2129
   13.2661   13.2734   13.2053   13.0317   12.7870   12.5303
   12.5971   12.8416   12.8698   12.8249   12.9067   13.0966
   13.3086   13.4485   13.3876   13.2985   13.2661   13.2277
   13.2673   13.2985   13.2111   13.0317   12.8297   12.7854
   13.1076   13.1591   12.9286   12.8418   13.0009   13.2161
   13.3876   13.3851   13.2702   13.2277   13.1127   13.1697
   13.2702   13.2985   13.2053   13.0517   12.9662   13.1953
   13.1723   13.1953   12.9662   13.0517   13.2053   13.2985
   13.2702   13.1697   13.1127   13.0560   13.0822   13.1697
   13.2673   13.2734   13.1736   13.0607   13.1009   13.0504
   13.0516   13.1061   13.1054   13.2129   13.2661   13.2277
   13.1127   13.0560   13.1536   13.1697   13.2748   13.3851
   13.3301   13.1496   12.9818   13.0264   13.2548   13.2281
   13.1830   12.9183   13.0790   13.2147   13.2704   13.2277
   13.1536   13.1697   13.1127   13.1697   13.2702   13.2985
   13.2053   13.0517   12.9662   13.1953   13.1723   13.1953
   12.9662   13.0517   13.2053   13.2985   13.2702   13.1697
   13.2748   13.1697   13.1536   13.2277   13.2704   13.2147
   13.0790   12.9183   13.1830   13.2281   13.2548   13.0264
   12.9818   13.1496   13.3301   13.3851   13.2748   13.3851
   13.2702   13.2277   13.2673   13.2985   13.2111   13.0317
   12.8297   12.7854   13.1076   13.1591   12.9286   12.8418
   13.0009   13.2161   13.3876   13.3851   13.3301   13.2985
   13.2704   13.2985   13.3301   13.2161   13.0034   12.7658
   12.6068   12.7313   12.8609   12.7313   12.6068   12.7658
   13.0034   13.2161   13.3301   13.1496   13.2053   13.2147
   13.2111   13.2161   13.2040   13.0966   12.9114   12.7255
   12.6386   12.6462   12.5373   12.3260   12.4882   12.7658
   13.0009   13.1496   12.9818   13.0517   13.0790   13.0317
   13.0034   13.0966   13.2770   13.3278   13.2131   13.0339
   12.8290   12.5734   12.2769   12.3260   12.6068   12.8418
   12.9818   13.0264   12.9662   12.9183   12.8297   12.7658
   12.9114   13.3278   13.7697   13.8407   13.6469   13.3284
   12.9330   12.5734   12.5373   12.7313   12.9286   13.0264
   13.2548   13.1953   13.1830   12.7854   12.6068   12.7255
   13.2131   13.8407   14.2668   14.2063   13.8421   13.3284
   12.8290   12.6462   12.8609   13.1591   13.2548   13.2281
   13.1723   13.2281   13.1076   12.7313   12.6386   13.0339
   13.6469   14.2063   14.4508   14.2063   13.6469   13.0339
   12.6386   12.7313   13.1076   13.2281   13.1830   13.1953
   13.2548   13.1591   12.8609   12.6462   12.8290   13.3284
   13.8421   14.2063   14.2668   13.8407   13.2131   12.7255
   12.6068   12.7854   13.1830   12.9183   12.9662   13.0264
   12.9286   12.7313   12.5373   12.5734   12.9330   13.3284
   13.6469   13.8407   13.7697   13.3278   12.9114   12.7658
   12.8297   12.9183   13.0790   13.0517   12.9818   12.8418
   12.6068   12.3260   12.2769   12.5734   12.8290   13.0339
   13.2131   13.3278   13.2770   13.0966   13.0034   13.0317
   13.0790   13.2147   13.2053   13.1496   13.0009   12.7658
   12.4882   12.3260   12.5373   12.6462   12.6386   12.7255
   12.9114   13.0966   13.2040   13.2161   13.2111   13.2147
   13.2704   13.2985   13.3301   13.2161   13.0034   12.7658
   12.6068   12.7313   12.8609   12.7313   12.6068   12.7658
   13.0034   13.2161   13.3301   13.2985   13.2704   13.2277
   13.2702   13.3851   13.3876   13.2161   13.0009   12.8418
   12.9286   13.1591   13.1076   12.7854   12.8297   13.0317
   13.2111   13.2985   13.2673   13.2277   13.1536   13.1697
   13.2748   13.3851   13.3301   13.1496   12.9818   13.0264
   13.2548   13.2281   13.1830   12.9183   13.0790   13.2147
   13.2704   13.2277   13.1536   13.2456   13.2673   13.3851
   13.5834   13.4485   13.2040   12.9903   12.8883   12.9787
   13.0690   12.9086   12.6388   12.8452   13.0616   13.2147
   13.2661   13.2456   13.2673   13.2277   13.2702   13.3851
   13.3876   13.2161   13.0009   12.8418   12.9286   13.1591
   13.1076   12.7854   12.8297   13.0317   13.2111   13.2985
   13.2673   13.3851   13.2702   13.2277   13.2673   13.2985
   13.2111   13.0317   12.8297   12.7854   13.1076   13.1591
   12.9286   12.8418   13.0009   13.2161   13.3876   13.3851
   13.5834   13.3851   13.2673   13.2456   13.2661   13.2147
   13.0616   12.8452   12.6388   12.9086   13.0690   12.9787
   12.8883   12.9903   13.2040   13.4485   13.5834   13.4485
   13.3876   13.2985   13.2661   13.2734   13.2053   13.0317
   12.7870   12.5303   12.5971   12.8416   12.8698   12.8249
   12.9067   13.0966   13.3086   13.4485   13.2040   13.2161
   13.2111   13.2147   13.2053   13.1496   13.0009   12.7658
   12.4882   12.3260   12.5373   12.6462   12.6386   12.7255
   12.9114   13.0966   13.2040   12.9903   13.0009   13.0317
   13.0616   13.0317   13.0009   12.9903   12.9067   12.7255
   12.5158   12.3995   12.4088   12.3995   12.5158   12.7255
   12.9067   12.9903   12.8883   12.8418   12.8297   12.8452
   12.7870   12.7658   12.9067   13.1177   13.1651   13.0339
   12.8198   12.5593   12.2553   12.3995   12.6386   12.8249
   12.8883   12.9787   12.9286   12.7854   12.6388   12.5303
   12.4882   12.7255   13.1651   13.5179   13.5459   13.3284
   12.9722   12.5593   12.4088   12.6462   12.8698   12.9787
   13.0690   13.1591   13.1076   12.9086   12.5971   12.3260
   12.5158   13.0339   13.5459   13.8173   13.7129   13.3284
   12.8198   12.3995   12.5373   12.8416   13.0690   12.9086
   13.1076   13.1591   13.0690   12.8416   12.5373   12.3995
   12.8198   13.3284   13.7129   13.8173   13.5459   13.0339
   12.5158   12.3260   12.5971   12.9086   12.6388   12.7854
   12.9286   12.9787   12.8698   12.6462   12.4088   12.5593
   12.9722   13.3284   13.5459   13.5179   13.1651   12.7255
   12.4882   12.5303   12.6388   12.8452   12.8297   12.8418
   12.8883   12.8249   12.6386   12.3995   12.2553   12.5593
   12.8198   13.0339   13.1651   13.1177   12.9067   12.7658
   12.7870   12.8452   13.0616   13.0317   13.0009   12.9903
   12.9067   12.7255   12.5158   12.3995   12.4088   12.3995
   12.5158   12.7255   12.9067   12.9903   13.0009   13.0317
   13.0616   13.2147   13.2111   13.2161   13.2040   13.0966
   12.9114   12.7255   12.6386   12.6462   12.5373   12.3260
   12.4882   12.7658   13.0009   13.1496   13.2053   13.2147
   13.2661   13.2985   13.3876   13.4485   13.3086   13.0966
   12.9067   12.8249   12.8698   12.8416   12.5971   12.5303
   12.7870   13.0317   13.2053   13.2734   13.2661   13.2456
   13.2673   13.3851   13.5834   13.4485   13.2040   12.9903
   12.8883   12.9787   13.0690   12.9086   12.6388   12.8452
   13.0616   13.2147   13.2661   13.2456   13.2534   13.2734
   13.3301   13.4485   13.5616   13.4570   13.2770   13.1177
   13.0151   12.9300   12.7511   12.4520   12.5527   12.8452
   13.0790   13.2129   13.2534   13.2734   13.2661   13.2985
   13.3876   13.4485   13.3086   13.0966   12.9067   12.8249
   12.8698   12.8416   12.5971   12.5303   12.7870   13.0317
   13.2053   13.2734   13.3301   13.2985   13.2704   13.2985
   13.3301   13.2161   13.0034   12.7658   12.6068   12.7313
   12.8609   12.7313   12.6068   12.7658   13.0034   13.2161
   13.3301   13.4485   13.3876   13.2985   13.2661   13.2734
   13.2053   13.0317   12.7870   12.5303   12.5971   12.8416
   12.8698   12.8249   12.9067   13.0966   13.3086   13.4485
   13.5616   13.4485   13.3301   13.2734   13.2534   13.2129
   13.0790   12.8452   12.5527   12.4520   12.7511   12.9300
   13.0151   13.1177   13.2770   13.4570   13.5616   13.4570
   13.3086   13.2161   13.2053   13.2129   13.1736   13.0517
   12.8297   12.5303   12.2855   12.5497   12.8220   13.0075
   13.1651   13.3278   13.4605   13.4570   13.2770   13.0966
   13.0034   13.0317   13.0790   13.0517   12.9818   12.8418
   12.6068   12.3260   12.2769   12.5734   12.8290   13.0339
   13.2131   13.3278   13.2770   13.1177   12.9067   12.7658
   12.7870   12.8452   12.8297   12.8418   12.8883   12.8249
   12.6386   12.3995   12.2553   12.5593   12.8198   13.0339
   13.1651   13.1177   13.0151   12.8249   12.6068   12.5303
   12.5527   12.5303   12.6068   12.8249   13.0151   13.0075
   12.8290   12.5593   12.2447   12.5593   12.8290   13.0075
   13.0151   12.9300   12.8698   12.7313   12.5971   12.4520
   12.2855   12.3260   12.6386   13.0075   13.2319   13.1886
   12.9330   12.5593   12.2553   12.5734   12.8220   12.9300
   12.7511   12.8416   12.8609   12.8416   12.7511   12.5497
   12.2769   12.3995   12.8290   13.1886   13.3323   13.1886
   12.8290   12.3995   12.2769   12.5497   12.7511   12.4520
   12.5971   12.7313   12.8698   12.9300   12.8220   12.5734
   12.2553   12.5593   12.9330   13.1886   13.2319   13.0075
   12.6386   12.3260   12.2855   12.4520   12.5527   12.5303
   12.6068   12.8249   13.0151   13.0075   12.8290   12.5593
   12.2447   12.5593   12.8290   13.0075   13.0151   12.8249
   12.6068   12.5303   12.5527   12.8452   12.7870   12.7658
   12.9067   13.1177   13.1651   13.0339   12.8198   12.5593
   12.2553   12.3995   12.6386   12.8249   12.8883   12.8418
   12.8297   12.8452   13.0790   13.0317   13.0034   13.0966
   13.2770   13.3278   13.2131   13.0339   12.8290   12.5734
   12.2769   12.3260   12.6068   12.8418   12.9818   13.0517
   13.0790   13.2129   13.2053   13.2161   13.3086   13.4570
   13.4605   13.3278   13.1651   13.0075   12.8220   12.5497
   12.2855   12.5303   12.8297   13.0517   13.1736   13.2129
   13.2534   13.2734   13.3301   13.4485   13.5616   13.4570
   13.2770   13.1177   13.0151   12.9300   12.7511   12.4520
   12.5527   12.8452   13.0790   13.2129   13.2534   13.1787
   13.1736   13.1496   13.2040   13.4570   13.9150   13.9704
   13.7697   13.5179   13.2319   12.9049   12.5781   12.4520
   12.6388   12.9183   13.1054   13.1787   13.1736   13.2129
   13.2053   13.2161   13.3086   13.4570   13.4605   13.3278
   13.1651   13.0075   12.8220   12.5497   12.2855   12.5303
   12.8297   13.0517   13.1736   13.1496   13.2053   13.2147
   13.2111   13.2161   13.2040   13.0966   12.9114   12.7255
   12.6386   12.6462   12.5373   12.3260   12.4882   12.7658
   13.0009   13.1496   13.2040   13.2161   13.2111   13.2147
   13.2053   13.1496   13.0009   12.7658   12.4882   12.3260
   12.5373   12.6462   12.6386   12.7255   12.9114   13.0966
   13.2040   13.4570   13.3086   13.2161   13.2053   13.2129
   13.1736   13.0517   12.8297   12.5303   12.2855   12.5497
   12.8220   13.0075   13.1651   13.3278   13.4605   13.4570
   13.9150   13.4570   13.2040   13.1496   13.1736   13.1787
   13.1054   12.9183   12.6388   12.4520   12.5781   12.9049
   13.2319   13.5179   13.7697   13.9704   13.9150   13.9704
   13.4605   13.0966   13.0009   13.0517   13.1054   13.0607
   12.9662   12.7854   12.5971   12.5497   12.8048   13.1886
   13.5459   13.8407   14.0435   13.9704   13.7697   13.3278
   12.9114   12.7658   12.8297   12.9183   12.9662   13.0264
   12.9286   12.7313   12.5373   12.5734   12.9330   13.3284
   13.6469   13.8407   13.7697   13.5179   13.1651   12.7255
   12.4882   12.5303   12.6388   12.7854   12.9286   12.9787
   12.8698   12.6462   12.4088   12.5593   12.9722   13.3284
   13.5459   13.5179   13.2319   13.0075   12.6386   12.3260
   12.2855   12.4520   12.5971   12.7313   12.8698   12.9300
   12.8220   12.5734   12.2553   12.5593   12.9330   13.1886
   13.2319   12.9049   12.8220   12.6462   12.5373   12.5497
   12.5781   12.5497   12.5373   12.6462   12.8220   12.9049
   12.8048   12.5734   12.4088   12.5734   12.8048   12.9049
   12.5781   12.5497   12.5373   12.6462   12.8220   12.9049
   12.8048   12.5734   12.4088   12.5734   12.8048   12.9049
   12.8220   12.6462   12.5373   12.5497   12.5781   12.4520
   12.2855   12.3260   12.6386   13.0075   13.2319   13.1886
   12.9330   12.5593   12.2553   12.5734   12.8220   12.9300
   12.8698   12.7313   12.5971   12.4520   12.6388   12.5303
   12.4882   12.7255   13.1651   13.5179   13.5459   13.3284
   12.9722   12.5593   12.4088   12.6462   12.8698   12.9787
   12.9286   12.7854   12.6388   12.9183   12.8297   12.7658
   12.9114   13.3278   13.7697   13.8407   13.6469   13.3284
   12.9330   12.5734   12.5373   12.7313   12.9286   13.0264
   12.9662   12.9183   13.1054   13.0517   13.0009   13.0966
   13.4605   13.9704   14.0435   13.8407   13.5459   13.1886
   12.8048   12.5497   12.5971   12.7854   12.9662   13.0607
   13.1054   13.1787   13.1736   13.1496   13.2040   13.4570
   13.9150   13.9704   13.7697   13.5179   13.2319   12.9049
   12.5781   12.4520   12.6388   12.9183   13.1054   13.1787
   13.0814   13.0607   12.9818   12.9903   13.2770   13.9704
   14.8630   14.6450   14.2668   13.8173   13.3323   12.9049
   12.7511   12.9086   13.1830   13.1061   13.0814   13.0607
   13.1054   13.0517   13.0009   13.0966   13.4605   13.9704
   14.0435   13.8407   13.5459   13.1886   12.8048   12.5497
   12.5971   12.7854   12.9662   13.0607   12.9818   13.0517
   13.0790   13.0317   13.0034   13.0966   13.2770   13.3278
   13.2131   13.0339   12.8290   12.5734   12.2769   12.3260
   12.6068   12.8418   12.9818   12.9903   13.0009   13.0317
   13.0616   13.0317   13.0009   12.9903   12.9067   12.7255
   12.5158   12.3995   12.4088   12.3995   12.5158   12.7255
   12.9067   12.9903   13.2770   13.0966   13.0034   13.0317
   13.0790   13.0517   12.9818   12.8418   12.6068   12.3260
   12.2769   12.5734   12.8290   13.0339   13.2131   13.3278
   13.2770   13.9704   13.4605   13.0966   13.0009   13.0517
   13.1054   13.0607   12.9662   12.7854   12.5971   12.5497
   12.8048   13.1886   13.5459   13.8407   14.0435   13.9704
   14.8630   13.9704   13.2770   12.9903   12.9818   13.0607
   13.0814   13.1061   13.1830   12.9086   12.7511   12.9049
   13.3323   13.8173   14.2668   14.6450   14.8630   14.6450
   14.0435   13.3278   12.9067   12.8418   12.9662   13.1061
   13.1009   13.1953   13.1076   12.8416   12.8220   13.1886
   13.7129   14.2063   14.5596   14.6450   14.2668   13.8407
   13.2131   12.7255   12.6068   12.7854   13.1830   13.1953
   13.2548   13.1591   12.8609   12.6462   12.8290   13.3284
   13.8421   14.2063   14.2668   13.8173   13.5459   13.0339
   12.5158   12.3260   12.5971   12.9086   13.1076   13.1591
   13.0690   12.8416   12.5373   12.3995   12.8198   13.3284
   13.7129   13.8173   13.3323   13.1886   12.8290   12.3995
   12.2769   12.5497   12.7511   12.8416   12.8609   12.8416
   12.7511   12.5497   12.2769   12.3995   12.8290   13.1886
   13.3323   12.9049   12.8048   12.5734   12.4088   12.5734
   12.8048   12.9049   12.8220   12.6462   12.5373   12.5497
   12.5781   12.5497   12.5373   12.6462   12.8220   12.9049
   12.7511   12.5497   12.2769   12.3995   12.8290   13.1886
   13.3323   13.1886   12.8290   12.3995   12.2769   12.5497
   12.7511   12.8416   12.8609   12.8416   12.7511   12.9086
   12.5971   12.3260   12.5158   13.0339   13.5459   13.8173
   13.7129   13.3284   12.8198   12.3995   12.5373   12.8416
   13.0690   13.1591   13.1076   12.9086   13.1830   12.7854
   12.6068   12.7255   13.2131   13.8407   14.2668   14.2063
   13.8421   13.3284   12.8290   12.6462   12.8609   13.1591
   13.2548   13.1953   13.1830   13.1061   12.9662   12.8418
   12.9067   13.3278   14.0435   14.6450   14.5596   14.2063
   13.7129   13.1886   12.8220   12.8416   13.1076   13.1953
   13.1009   13.1061   13.0814   13.0607   12.9818   12.9903
   13.2770   13.9704   14.8630   14.6450   14.2668   13.8173
   13.3323   12.9049   12.7511   12.9086   13.1830   13.1061
   13.0814   13.0074   13.1009   13.0264   12.8883   13.1177
   13.7697   14.6450   15.0754   14.9790   14.4508   13.8173
   13.2319   12.9300   13.0690   13.2281   13.0516   13.0074
   13.1009   13.1061   12.9662   12.8418   12.9067   13.3278
   14.0435   14.6450   14.5596   14.2063   13.7129   13.1886
   12.8220   12.8416   13.1076   13.1953   13.1009   13.0264
   12.9662   12.9183   12.8297   12.7658   12.9114   13.3278
   13.7697   13.8407   13.6469   13.3284   12.9330   12.5734
   12.5373   12.7313   12.9286   13.0264   12.8883   12.8418
   12.8297   12.8452   12.7870   12.7658   12.9067   13.1177
   13.1651   13.0339   12.8198   12.5593   12.2553   12.3995
   12.6386   12.8249   12.8883   13.1177   12.9067   12.7658
   12.7870   12.8452   12.8297   12.8418   12.8883   12.8249
   12.6386   12.3995   12.2553   12.5593   12.8198   13.0339
   13.1651   13.1177   13.7697   13.3278   12.9114   12.7658
   12.8297   12.9183   12.9662   13.0264   12.9286   12.7313
   12.5373   12.5734   12.9330   13.3284   13.6469   13.8407
   13.7697   14.6450   14.0435   13.3278   12.9067   12.8418
   12.9662   13.1061   13.1009   13.1953   13.1076   12.8416
   12.8220   13.1886   13.7129   14.2063   14.5596   14.6450
   15.0754   14.6450   13.7697   13.1177   12.8883   13.0264
   13.1009   13.0074   13.0516   13.2281   13.0690   12.9300
   13.2319   13.8173   14.4508   14.9790   15.0754   14.9790
   14.5596   13.8407   13.1651   12.8249   12.9286   13.1953
   13.0516   13.0504   13.1723   13.1591   12.8698   13.0075
   13.5459   14.2063   14.7655   14.9790   14.4508   14.2063
   13.6469   13.0339   12.6386   12.7313   13.1076   13.2281
   13.1723   13.2281   13.1076   12.7313   12.6386   13.0339
   13.6469   14.2063   14.4508   13.8173   13.7129   13.3284
   12.8198   12.3995   12.5373   12.8416   13.0690   13.1591
   13.1076   12.9086   12.5971   12.3260   12.5158   13.0339
   13.5459   13.8173   13.2319   13.1886   12.9330   12.5593
   12.2553   12.5734   12.8220   12.9300   12.8698   12.7313
   12.5971   12.4520   12.2855   12.3260   12.6386   13.0075
   13.2319   12.9300   12.8220   12.5734   12.2553   12.5593
   12.9330   13.1886   13.2319   13.0075   12.6386   12.3260
   12.2855   12.4520   12.5971   12.7313   12.8698   12.9300
   13.0690   12.8416   12.5373   12.3995   12.8198   13.3284
   13.7129   13.8173   13.5459   13.0339   12.5158   12.3260
   12.5971   12.9086   13.1076   13.1591   13.0690   13.2281
   13.1076   12.7313   12.6386   13.0339   13.6469   14.2063
   14.4508   14.2063   13.6469   13.0339   12.6386   12.7313
   13.1076   13.2281   13.1723   13.2281   13.0516   13.1953
   12.9286   12.8249   13.1651   13.8407   14.5596   14.9790
   14.7655   14.2063   13.5459   13.0075   12.8698   13.1591
   13.1723   13.0504   13.0516   13.0074   13.1009   13.0264
   12.8883   13.1177   13.7697   14.6450   15.0754   14.9790
   14.4508   13.8173   13.2319   12.9300   13.0690   13.2281
   13.0516   13.0074   12.9803   13.0504   13.2548   12.9787
   13.0151   13.5179   14.2668   14.9790   15.1076   14.9790
   14.2668   13.5179   13.0151   12.9787   13.2548   13.0504
   12.9803   13.0504   13.0516   13.1953   12.9286   12.8249
   13.1651   13.8407   14.5596   14.9790   14.7655   14.2063
   13.5459   13.0075   12.8698   13.1591   13.1723   13.0504
   13.2548   13.1953   13.1830   12.7854   12.6068   12.7255
   13.2131   13.8407   14.2668   14.2063   13.8421   13.3284
   12.8290   12.6462   12.8609   13.1591   13.2548   12.9787
   12.9286   12.7854   12.6388   12.5303   12.4882   12.7255
   13.1651   13.5179   13.5459   13.3284   12.9722   12.5593
   12.4088   12.6462   12.8698   12.9787   13.0151   12.8249
   12.6068   12.5303   12.5527   12.5303   12.6068   12.8249
   13.0151   13.0075   12.8290   12.5593   12.2447   12.5593
   12.8290   13.0075   13.0151   13.5179   13.1651   12.7255
   12.4882   12.5303   12.6388   12.7854   12.9286   12.9787
   12.8698   12.6462   12.4088   12.5593   12.9722   13.3284
   13.5459   13.5179   14.2668   13.8407   13.2131   12.7255
   12.6068   12.7854   13.1830   13.1953   13.2548   13.1591
   12.8609   12.6462   12.8290   13.3284   13.8421   14.2063
   14.2668   14.9790   14.5596   13.8407   13.1651   12.8249
   12.9286   13.1953   13.0516   13.0504   13.1723   13.1591
   12.8698   13.0075   13.5459   14.2063   14.7655   14.9790
   15.1076   14.9790   14.2668   13.5179   13.0151   12.9787
   13.2548   13.0504   12.9803   13.0504   13.2548   12.9787
   13.0151   13.5179   14.2668   14.9790   15.1076   14.9790
   14.7655   14.2063   13.5459   13.0075   12.8698   13.1591
   13.1723   13.0504   13.0516   13.1953   12.9286   12.8249
   13.1651   13.8407   14.5596   14.9790   14.2668   14.2063
   13.8421   13.3284   12.8290   12.6462   12.8609   13.1591
   13.2548   13.1953   13.1830   12.7854   12.6068   12.7255
   13.2131   13.8407   14.2668   13.5179   13.5459   13.3284
   12.9722   12.5593   12.4088   12.6462   12.8698   12.9787
   12.9286   12.7854   12.6388   12.5303   12.4882   12.7255
   13.1651   13.5179   13.0151   13.0075   12.8290   12.5593
   12.2447   12.5593   12.8290   13.0075   13.0151   12.8249
   12.6068   12.5303   12.5527   12.5303   12.6068   12.8249
   13.0151   12.9787   12.8698   12.6462   12.4088   12.5593
   12.9722   13.3284   13.5459   13.5179   13.1651   12.7255
   12.4882   12.5303   12.6388   12.7854   12.9286   12.9787
   13.2548   13.1591   12.8609   12.6462   12.8290   13.3284
   13.8421   14.2063   14.2668   13.8407   13.2131   12.7255
   12.6068   12.7854   13.1830   13.1953   13.2548   13.0504
   13.1723   13.1591   12.8698   13.0075   13.5459   14.2063
   14.7655   14.9790   14.5596   13.8407   13.1651   12.8249
   12.9286   13.1953   13.0516   13.0504   12.9803   13.0504
   13.2548   12.9787   13.0151   13.5179   14.2668   14.9790
   15.1076   14.9790   14.2668   13.5179   13.0151   12.9787
   13.2548   13.0504   12.9803   13.0074   13.0516   13.2281
   13.0690   12.9300   13.2319   13.8173   14.4508   14.9790
   15.0754   14.6450   13.7697   13.1177   12.8883   13.0264
   13.1009   13.0074   13.0516   13.0504   13.1723   13.1591
   12.8698   13.0075   13.5459   14.2063   14.7655   14.9790
   14.5596   13.8407   13.1651   12.8249   12.9286   13.1953
   13.0516   13.2281   13.1723   13.2281   13.1076   12.7313
   12.6386   13.0339   13.6469   14.2063   14.4508   14.2063
   13.6469   13.0339   12.6386   12.7313   13.1076   13.2281
   13.0690   13.1591   13.1076   12.9086   12.5971   12.3260
   12.5158   13.0339   13.5459   13.8173   13.7129   13.3284
   12.8198   12.3995   12.5373   12.8416   13.0690   12.9300
   12.8698   12.7313   12.5971   12.4520   12.2855   12.3260
   12.6386   13.0075   13.2319   13.1886   12.9330   12.5593
   12.2553   12.5734   12.8220   12.9300   13.2319   13.0075
   12.6386   12.3260   12.2855   12.4520   12.5971   12.7313
   12.8698   12.9300   12.8220   12.5734   12.2553   12.5593
   12.9330   13.1886   13.2319   13.8173   13.5459   13.0339
   12.5158   12.3260   12.5971   12.9086   13.1076   13.1591
   13.0690   12.8416   12.5373   12.3995   12.8198   13.3284
   13.7129   13.8173   14.4508   14.2063   13.6469   13.0339
   12.6386   12.7313   13.1076   13.2281   13.1723   13.2281
   13.1076   12.7313   12.6386   13.0339   13.6469   14.2063
   14.4508   14.9790   14.7655   14.2063   13.5459   13.0075
   12.8698   13.1591   13.1723   13.0504   13.0516   13.1953
   12.9286   12.8249   13.1651   13.8407   14.5596   14.9790
   15.0754   14.9790   14.4508   13.8173   13.2319   12.9300
   13.0690   13.2281   13.0516   13.0074   13.1009   13.0264
   12.8883   13.1177   13.7697   14.6450   15.0754   14.6450
   14.5596   14.2063   13.7129   13.1886   12.8220   12.8416
   13.1076   13.1953   13.1009   13.1061   12.9662   12.8418
   12.9067   13.3278   14.0435   14.6450   13.7697   13.8407
   13.6469   13.3284   12.9330   12.5734   12.5373   12.7313
   12.9286   13.0264   12.9662   12.9183   12.8297   12.7658
   12.9114   13.3278   13.7697   13.1177   13.1651   13.0339
   12.8198   12.5593   12.2553   12.3995   12.6386   12.8249
   12.8883   12.8418   12.8297   12.8452   12.7870   12.7658
   12.9067   13.1177   12.8883   12.8249   12.6386   12.3995
   12.2553   12.5593   12.8198   13.0339   13.1651   13.1177
   12.9067   12.7658   12.7870   12.8452   12.8297   12.8418
   12.8883   13.0264   12.9286   12.7313   12.5373   12.5734
   12.9330   13.3284   13.6469   13.8407   13.7697   13.3278
   12.9114   12.7658   12.8297   12.9183   12.9662   13.0264
   13.1009   13.1953   13.1076   12.8416   12.8220   13.1886
   13.7129   14.2063   14.5596   14.6450   14.0435   13.3278
   12.9067   12.8418   12.9662   13.1061   13.1009   13.0074
   13.0516   13.2281   13.0690   12.9300   13.2319   13.8173
   14.4508   14.9790   15.0754   14.6450   13.7697   13.1177
   12.8883   13.0264   13.1009   13.0074   13.0814   13.1061
   13.1830   12.9086   12.7511   12.9049   13.3323   13.8173
   14.2668   14.6450   14.8630   13.9704   13.2770   12.9903