 BEGIN_INFO
   #
   # this is a Band-XCRYSDEN-Structure-File
   # aimed at Visualization of Fermi Surface
   #
   # Case:   ni                                                                              
   #
 Fermi Energy:         15.2788
 END_INFO
 BEGIN_BLOCK_BANDGRID_3D
 band_energies
 BANDGRID_3D_BANDS
    4
   17   17   17
  0.000000  0.000000  0.000000
 -1.000000 -1.000000  1.000000
  1.000000  1.000000  1.000000
 -1.000000  1.000000 -1.000000
BAND:   3
   13.3663   13.4061   13.5044   13.5930   13.5910   13.5061
   13.4019   13.3240   13.2956   13.3240   13.4019   13.5061
   13.5910   13.5930   13.5044   13.4061   13.3663   13.4061
   13.4324   13.5209   13.6157   13.6096   13.4982   13.3788
   13.4200   13.3668   13.3677   13.4246   13.4264   13.5418
   13.6056   13.5751   13.4642   13.4061   13.5044   13.5209
   13.6277   13.7347   13.6592   13.4664   13.2946   13.3122
   13.5742   13.5456   13.4123   13.2295   13.3937   13.5407
   13.6088   13.5751   13.5044   13.5930   13.6157   13.7347
   13.9412   13.7600   13.5074   13.2892   13.1850   13.2660
   13.3446   13.1780   12.9430   13.1432   13.3729   13.5407
   13.6056   13.5930   13.5910   13.6096   13.6592   13.7600
   13.8365   13.7299   13.5520   13.3954   13.2990   13.2187
   13.0381   12.7444   12.8319   13.1432   13.3937   13.5418
   13.5910   13.5061   13.4982   13.4664   13.5074   13.7299
   14.1250   14.2178   14.0412   13.7994   13.5189   13.1936
   12.8675   12.7444   12.9430   13.2295   13.4264   13.5061
   13.4019   13.3788   13.2946   13.2892   13.5520   14.2178
   15.2488   14.9598   14.5715   14.1149   13.6237   13.1936
   13.0381   13.1780   13.4123   13.4246   13.4019   13.3240
   13.4200   13.3122   13.1850   13.3954   14.0412   14.9598
   15.4128   15.3353   14.7709   14.1149   13.5189   13.2187
   13.3446   13.5456   13.3677   13.3240   13.2956   13.3668
   13.5742   13.2660   13.2990   13.7994   14.5715   15.3353
   15.4456   15.3353   14.5715   13.7994   13.2990   13.2660
   13.5742   13.3668   13.2956   13.3240   13.3677   13.5456
   13.3446   13.2187   13.5189   14.1149   14.7709   15.3353
   15.4128   14.9598   14.0412   13.3954   13.1850   13.3122
   13.4200   13.3240   13.4019   13.4246   13.4123   13.1780
   13.0381   13.1936   13.6237   14.1149   14.5715   14.9598
   15.2488   14.2178   13.5520   13.2892   13.2946   13.3788
   13.4019   13.5061   13.4264   13.2295   12.9430   12.7444
   12.8675   13.1936   13.5189   13.7994   14.0412   14.2178
   14.1250   13.7299   13.5074   13.4664   13.4982   13.5061
   13.5910   13.5418   13.3937   13.1432   12.8319   12.7444
   13.0381   13.2187   13.2990   13.3954   13.5520   13.7299
   13.8365   13.7600   13.6592   13.6096   13.5910   13.5930
   13.6056   13.5407   13.3729   13.1432   12.9430   13.1780
   13.3446   13.2660   13.1850   13.2892   13.5074   13.7600
   13.9412   13.7347   13.6157   13.5930   13.5044   13.5751
   13.6088   13.5407   13.3937   13.2295   13.4123   13.5456
   13.5742   13.3122   13.2946   13.4664   13.6592   13.7347
   13.6277   13.5209   13.5044   13.4061   13.4642   13.5751
   13.6056   13.5418   13.4264   13.4246   13.3677   13.3668
   13.4200   13.3788   13.4982   13.6096   13.6157   13.5209
   13.4324   13.4061   13.3663   13.4061   13.5044   13.5930
   13.5910   13.5061   13.4019   13.3240   13.2956   13.3240
   13.4019   13.5061   13.5910   13.5930   13.5044   13.4061
   13.3663   13.4061   13.4324   13.5209   13.6157   13.6096
   13.4982   13.3788   13.4200   13.3668   13.3677   13.4246
   13.4264   13.5418   13.6056   13.5751   13.4642   13.4061
   13.4324   13.4061   13.4642   13.5751   13.6056   13.5418
   13.4264   13.4246   13.3677   13.3668   13.4200   13.3788
   13.4982   13.6096   13.6157   13.5209   13.4324   13.5209
   13.4642   13.5209   13.6185   13.6364   13.5296   13.3681
   13.2718   13.5117   13.4895   13.5117   13.2718   13.3681
   13.5296   13.6364   13.6185   13.5209   13.6157   13.5751
   13.6185   13.7347   13.7199   13.5324   13.3091   13.1483
   13.2167   13.4254   13.3689   13.0814   13.1350   13.3430
   13.5345   13.6364   13.6157   13.6096   13.6056   13.6364
   13.7199   13.7600   13.6084   13.3900   13.1965   13.1149
   13.1587   13.1257   12.8858   12.8210   13.0850   13.3430
   13.5296   13.6096   13.4982   13.5418   13.5296   13.5324
   13.6084   13.7299   13.7275   13.5996   13.4426   13.2920
   13.1111   12.8390   12.5785   12.8210   13.1350   13.3681
   13.4982   13.3788   13.4264   13.3681   13.3091   13.3900
   13.7275   14.2178   14.3207   14.1282   13.8359   13.4787
   13.0937   12.8390   12.8858   13.0814   13.2718   13.3788
   13.4200   13.4246   13.2718   13.1483   13.1965   13.5996
   14.3207   14.9598   14.8833   14.5174   14.0118   13.4787
   13.1111   13.1257   13.3689   13.5117   13.4200   13.3668
   13.3677   13.5117   13.2167   13.1149   13.4426   14.1282
   14.8833   15.3353   15.1067   14.5174   13.8359   13.2920
   13.1587   13.4254   13.4895   13.3668   13.3677   13.3668
   13.4895   13.4254   13.1587   13.2920   13.8359   14.5174
   15.1067   15.3353   14.8833   14.1282   13.4426   13.1149
   13.2167   13.5117   13.3677   13.4246   13.4200   13.5117
   13.3689   13.1257   13.1111   13.4787   14.0118   14.5174
   14.8833   14.9598   14.3207   13.5996   13.1965   13.1483
   13.2718   13.4246   13.4264   13.3788   13.2718   13.0814
   12.8858   12.8390   13.0937   13.4787   13.8359   14.1282
   14.3207   14.2178   13.7275   13.3900   13.3091   13.3681
   13.4264   13.5418   13.4982   13.3681   13.1350   12.8210
   12.5785   12.8390   13.1111   13.2920   13.4426   13.5996
   13.7275   13.7299   13.6084   13.5324   13.5296   13.5418
   13.6056   13.6096   13.5296   13.3430   13.0850   12.8210
   12.8858   13.1257   13.1587   13.1149   13.1965   13.3900
   13.6084   13.7600   13.7199   13.6364   13.6056   13.5751
   13.6157   13.6364   13.5345   13.3430   13.1350   13.0814
   13.3689   13.4254   13.2167   13.1483   13.3091   13.5324
   13.7199   13.7347   13.6185   13.5751   13.4642   13.5209
   13.6185   13.6364   13.5296   13.3681   13.2718   13.5117
   13.4895   13.5117   13.2718   13.3681   13.5296   13.6364
   13.6185   13.5209   13.4642   13.4061   13.4324   13.5209
   13.6157   13.6096   13.4982   13.3788   13.4200   13.3668
   13.3677   13.4246   13.4264   13.5418   13.6056   13.5751
   13.4642   13.4061   13.5044   13.5209   13.6277   13.7347
   13.6592   13.4664   13.2946   13.3122   13.5742   13.5456
   13.4123   13.2295   13.3937   13.5407   13.6088   13.5751
   13.5044   13.5209   13.4642   13.5209   13.6185   13.6364
   13.5296   13.3681   13.2718   13.5117   13.4895   13.5117
   13.2718   13.3681   13.5296   13.6364   13.6185   13.5209
   13.6277   13.5209   13.5044   13.5751   13.6088   13.5407
   13.3937   13.2295   13.4123   13.5456   13.5742   13.3122
   13.2946   13.4664   13.6592   13.7347   13.6277   13.7347
   13.6185   13.5751   13.6157   13.6364   13.5345   13.3430
   13.1350   13.0814   13.3689   13.4254   13.2167   13.1483
   13.3091   13.5324   13.7199   13.7347   13.6592   13.6364
   13.6088   13.6364   13.6592   13.5324   13.3095   13.0646
   12.9057   13.0198   13.1434   13.0198   12.9057   13.0646
   13.3095   13.5324   13.6592   13.4664   13.5296   13.5407
   13.5345   13.5324   13.5074   13.3900   13.1980   13.0082
   12.9240   12.9355   12.8263   12.6173   12.7771   13.0646
   13.3091   13.4664   13.2946   13.3681   13.3937   13.3430
   13.3095   13.3900   13.5520   13.5996   13.4894   13.3146
   13.1151   12.8624   12.5669   12.6173   12.9057   13.1483
   13.2946   13.3122   13.2718   13.2295   13.1350   13.0646
   13.1980   13.5996   14.0412   14.1282   13.9400   13.6213
   13.2234   12.8624   12.8263   13.0198   13.2167   13.3122
   13.5742   13.5117   13.4123   13.0814   12.9057   13.0082
   13.4894   14.1282   14.5715   14.5174   14.1459   13.6213
   13.1151   12.9355   13.1434   13.4254   13.5742   13.5456
   13.4895   13.5456   13.3689   13.0198   12.9240   13.3146
   13.9400   14.5174   14.7709   14.5174   13.9400   13.3146
   12.9240   13.0198   13.3689   13.5456   13.4123   13.5117
   13.5742   13.4254   13.1434   12.9355   13.1151   13.6213
   14.1459   14.5174   14.5715   14.1282   13.4894   13.0082
   12.9057   13.0814   13.4123   13.2295   13.2718   13.3122
   13.2167   13.0198   12.8263   12.8624   13.2234   13.6213
   13.9400   14.1282   14.0412   13.5996   13.1980   13.0646
   13.1350   13.2295   13.3937   13.3681   13.2946   13.1483
   12.9057   12.6173   12.5669   12.8624   13.1151   13.3146
   13.4894   13.5996   13.5520   13.3900   13.3095   13.3430
   13.3937   13.5407   13.5296   13.4664   13.3091   13.0646
   12.7771   12.6173   12.8263   12.9355   12.9240   13.0082
   13.1980   13.3900   13.5074   13.5324   13.5345   13.5407
   13.6088   13.6364   13.6592   13.5324   13.3095   13.0646
   12.9057   13.0198   13.1434   13.0198   12.9057   13.0646
   13.3095   13.5324   13.6592   13.6364   13.6088   13.5751
   13.6185   13.7347   13.7199   13.5324   13.3091   13.1483
   13.2167   13.4254   13.3689   13.0814   13.1350   13.3430
   13.5345   13.6364   13.6157   13.5751   13.5044   13.5209
   13.6277   13.7347   13.6592   13.4664   13.2946   13.3122
   13.5742   13.5456   13.4123   13.2295   13.3937   13.5407
   13.6088   13.5751   13.5044   13.5930   13.6157   13.7347
   13.9412   13.7600   13.5074   13.2892   13.1850   13.2660
   13.3446   13.1780   12.9430   13.1432   13.3729   13.5407
   13.6056   13.5930   13.6157   13.5751   13.6185   13.7347
   13.7199   13.5324   13.3091   13.1483   13.2167   13.4254
   13.3689   13.0814   13.1350   13.3430   13.5345   13.6364
   13.6157   13.7347   13.6185   13.5751   13.6157   13.6364
   13.5345   13.3430   13.1350   13.0814   13.3689   13.4254
   13.2167   13.1483   13.3091   13.5324   13.7199   13.7347
   13.9412   13.7347   13.6157   13.5930   13.6056   13.5407
   13.3729   13.1432   12.9430   13.1780   13.3446   13.2660
   13.1850   13.2892   13.5074   13.7600   13.9412   13.7600
   13.7199   13.6364   13.6056   13.6096   13.5296   13.3430
   13.0850   12.8210   12.8858   13.1257   13.1587   13.1149
   13.1965   13.3900   13.6084   13.7600   13.5074   13.5324
   13.5345   13.5407   13.5296   13.4664   13.3091   13.0646
   12.7771   12.6173   12.8263   12.9355   12.9240   13.0082
   13.1980   13.3900   13.5074   13.2892   13.3091   13.3430
   13.3729   13.3430   13.3091   13.2892   13.1965   13.0082
   12.7930   12.6815   12.6984   12.6815   12.7930   13.0082
   13.1965   13.2892   13.1850   13.1483   13.1350   13.1432
   13.0850   13.0646   13.1965   13.3954   13.4426   13.3146
   13.1035   12.8467   12.5437   12.6815   12.9240   13.1149
   13.1850   13.2660   13.2167   13.0814   12.9430   12.8210
   12.7771   13.0082   13.4426   13.7994   13.8359   13.6213
   13.2635   12.8467   12.6984   12.9355   13.1587   13.2660
   13.3446   13.4254   13.3689   13.1780   12.8858   12.6173
   12.7930   13.3146   13.8359   14.1149   14.0118   13.6213
   13.1035   12.6815   12.8263   13.1257   13.3446   13.1780
   13.3689   13.4254   13.3446   13.1257   12.8263   12.6815
   13.1035   13.6213   14.0118   14.1149   13.8359   13.3146
   12.7930   12.6173   12.8858   13.1780   12.9430   13.0814
   13.2167   13.2660   13.1587   12.9355   12.6984   12.8467
   13.2635   13.6213   13.8359   13.7994   13.4426   13.0082
   12.7771   12.8210   12.9430   13.1432   13.1350   13.1483
   13.1850   13.1149   12.9240   12.6815   12.5437   12.8467
   13.1035   13.3146   13.4426   13.3954   13.1965   13.0646
   13.0850   13.1432   13.3729   13.3430   13.3091   13.2892
   13.1965   13.0082   12.7930   12.6815   12.6984   12.6815
   12.7930   13.0082   13.1965   13.2892   13.3091   13.3430
   13.3729   13.5407   13.5345   13.5324   13.5074   13.3900
   13.1980   13.0082   12.9240   12.9355   12.8263   12.6173
   12.7771   13.0646   13.3091   13.4664   13.5296   13.5407
   13.6056   13.6364   13.7199   13.7600   13.6084   13.3900
   13.1965   13.1149   13.1587   13.1257   12.8858   12.8210
   13.0850   13.3430   13.5296   13.6096   13.6056   13.5930
   13.6157   13.7347   13.9412   13.7600   13.5074   13.2892
   13.1850   13.2660   13.3446   13.1780   12.9430   13.1432
   13.3729   13.5407   13.6056   13.5930   13.5910   13.6096
   13.6592   13.7600   13.8365   13.7299   13.5520   13.3954
   13.2990   13.2187   13.0381   12.7444   12.8319   13.1432
   13.3937   13.5418   13.5910   13.6096   13.6056   13.6364
   13.7199   13.7600   13.6084   13.3900   13.1965   13.1149
   13.1587   13.1257   12.8858   12.8210   13.0850   13.3430
   13.5296   13.6096   13.6592   13.6364   13.6088   13.6364
   13.6592   13.5324   13.3095   13.0646   12.9057   13.0198
   13.1434   13.0198   12.9057   13.0646   13.3095   13.5324
   13.6592   13.7600   13.7199   13.6364   13.6056   13.6096
   13.5296   13.3430   13.0850   12.8210   12.8858   13.1257
   13.1587   13.1149   13.1965   13.3900   13.6084   13.7600
   13.8365   13.7600   13.6592   13.6096   13.5910   13.5418
   13.3937   13.1432   12.8319   12.7444   13.0381   13.2187
   13.2990   13.3954   13.5520   13.7299   13.8365   13.7299
   13.6084   13.5324   13.5296   13.5418   13.4982   13.3681
   13.1350   12.8210   12.5785   12.8390   13.1111   13.2920
   13.4426   13.5996   13.7275   13.7299   13.5520   13.3900
   13.3095   13.3430   13.3937   13.3681   13.2946   13.1483
   12.9057   12.6173   12.5669   12.8624   13.1151   13.3146
   13.4894   13.5996   13.5520   13.3954   13.1965   13.0646
   13.0850   13.1432   13.1350   13.1483   13.1850   13.1149
   12.9240   12.6815   12.5437   12.8467   13.1035   13.3146
   13.4426   13.3954   13.2990   13.1149   12.9057   12.8210
   12.8319   12.8210   12.9057   13.1149   13.2990   13.2920
   13.1151   12.8467   12.5325   12.8467   13.1151   13.2920
   13.2990   13.2187   13.1587   13.0198   12.8858   12.7444
   12.5785   12.6173   12.9240   13.2920   13.5189   13.4787
   13.2234   12.8467   12.5437   12.8624   13.1111   13.2187
   13.0381   13.1257   13.1434   13.1257   13.0381   12.8390
   12.5669   12.6815   13.1151   13.4787   13.6237   13.4787
   13.1151   12.6815   12.5669   12.8390   13.0381   12.7444
   12.8858   13.0198   13.1587   13.2187   13.1111   12.8624
   12.5437   12.8467   13.2234   13.4787   13.5189   13.2920
   12.9240   12.6173   12.5785   12.7444   12.8319   12.8210
   12.9057   13.1149   13.2990   13.2920   13.1151   12.8467
   12.5325   12.8467   13.1151   13.2920   13.2990   13.1149
   12.9057   12.8210   12.8319   13.1432   13.0850   13.0646
   13.1965   13.3954   13.4426   13.3146   13.1035   12.8467
   12.5437   12.6815   12.9240   13.1149   13.1850   13.1483
   13.1350   13.1432   13.3937   13.3430   13.3095   13.3900
   13.5520   13.5996   13.4894   13.3146   13.1151   12.8624
   12.5669   12.6173   12.9057   13.1483   13.2946   13.3681
   13.3937   13.5418   13.5296   13.5324   13.6084   13.7299
   13.7275   13.5996   13.4426   13.2920   13.1111   12.8390
   12.5785   12.8210   13.1350   13.3681   13.4982   13.5418
   13.5910   13.6096   13.6592   13.7600   13.8365   13.7299
   13.5520   13.3954   13.2990   13.2187   13.0381   12.7444
   12.8319   13.1432   13.3937   13.5418   13.5910   13.5061
   13.4982   13.4664   13.5074   13.7299   14.1250   14.2178
   14.0412   13.7994   13.5189   13.1936   12.8675   12.7444
   12.9430   13.2295   13.4264   13.5061   13.4982   13.5418
   13.5296   13.5324   13.6084   13.7299   13.7275   13.5996
   13.4426   13.2920   13.1111   12.8390   12.5785   12.8210
   13.1350   13.3681   13.4982   13.4664   13.5296   13.5407
   13.5345   13.5324   13.5074   13.3900   13.1980   13.0082
   12.9240   12.9355   12.8263   12.6173   12.7771   13.0646
   13.3091   13.4664   13.5074   13.5324   13.5345   13.5407
   13.5296   13.4664   13.3091   13.0646   12.7771   12.6173
   12.8263   12.9355   12.9240   13.0082   13.1980   13.3900
   13.5074   13.7299   13.6084   13.5324   13.5296   13.5418
   13.4982   13.3681   13.1350   12.8210   12.5785   12.8390
   13.1111   13.2920   13.4426   13.5996   13.7275   13.7299
   14.1250   13.7299   13.5074   13.4664   13.4982   13.5061
   13.4264   13.2295   12.9430   12.7444   12.8675   13.1936
   13.5189   13.7994   14.0412   14.2178   14.1250   14.2178
   13.7275   13.3900   13.3091   13.3681   13.4264   13.3788
   13.2718   13.0814   12.8858   12.8390   13.0937   13.4787
   13.8359   14.1282   14.3207   14.2178   14.0412   13.5996
   13.1980   13.0646   13.1350   13.2295   13.2718   13.3122
   13.2167   13.0198   12.8263   12.8624   13.2234   13.6213
   13.9400   14.1282   14.0412   13.7994   13.4426   13.0082
   12.7771   12.8210   12.9430   13.0814   13.2167   13.2660
   13.1587   12.9355   12.6984   12.8467   13.2635   13.6213
   13.8359   13.7994   13.5189   13.2920   12.9240   12.6173
   12.5785   12.7444   12.8858   13.0198   13.1587   13.2187
   13.1111   12.8624   12.5437   12.8467   13.2234   13.4787
   13.5189   13.1936   13.1111   12.9355   12.8263   12.8390
   12.8675   12.8390   12.8263   12.9355   13.1111   13.1936
   13.0937   12.8624   12.6984   12.8624   13.0937   13.1936
   12.8675   12.8390   12.8263   12.9355   13.1111   13.1936
   13.0937   12.8624   12.6984   12.8624   13.0937   13.1936
   13.1111   12.9355   12.8263   12.8390   12.8675   12.7444
   12.5785   12.6173   12.9240   13.2920   13.5189   13.4787
   13.2234   12.8467   12.5437   12.8624   13.1111   13.2187
   13.1587   13.0198   12.8858   12.7444   12.9430   12.8210
   12.7771   13.0082   13.4426   13.7994   13.8359   13.6213
   13.2635   12.8467   12.6984   12.9355   13.1587   13.2660
   13.2167   13.0814   12.9430   13.2295   13.1350   13.0646
   13.1980   13.5996   14.0412   14.1282   13.9400   13.6213
   13.2234   12.8624   12.8263   13.0198   13.2167   13.3122
   13.2718   13.2295   13.4264   13.3681   13.3091   13.3900
   13.7275   14.2178   14.3207   14.1282   13.8359   13.4787
   13.0937   12.8390   12.8858   13.0814   13.2718   13.3788
   13.4264   13.5061   13.4982   13.4664   13.5074   13.7299
   14.1250   14.2178   14.0412   13.7994   13.5189   13.1936
   12.8675   12.7444   12.9430   13.2295   13.4264   13.5061
   13.4019   13.3788   13.2946   13.2892   13.5520   14.2178
   15.2488   14.9598   14.5715   14.1149   13.6237   13.1936
   13.0381   13.1780   13.4123   13.4246   13.4019   13.3788
   13.4264   13.3681   13.3091   13.3900   13.7275   14.2178
   14.3207   14.1282   13.8359   13.4787   13.0937   12.8390
   12.8858   13.0814   13.2718   13.3788   13.2946   13.3681
   13.3937   13.3430   13.3095   13.3900   13.5520   13.5996
   13.4894   13.3146   13.1151   12.8624   12.5669   12.6173
   12.9057   13.1483   13.2946   13.2892   13.3091   13.3430
   13.3729   13.3430   13.3091   13.2892   13.1965   13.0082
   12.7930   12.6815   12.6984   12.6815   12.7930   13.0082
   13.1965   13.2892   13.5520   13.3900   13.3095   13.3430
   13.3937   13.3681   13.2946   13.1483   12.9057   12.6173
   12.5669   12.8624   13.1151   13.3146   13.4894   13.5996
   13.5520   14.2178   13.7275   13.3900   13.3091   13.3681
   13.4264   13.3788   13.2718   13.0814   12.8858   12.8390
   13.0937   13.4787   13.8359   14.1282   14.3207   14.2178
   15.2488   14.2178   13.5520   13.2892   13.2946   13.3788
   13.4019   13.4246   13.4123   13.1780   13.0381   13.1936
   13.6237   14.1149   14.5715   14.9598   15.2488   14.9598
   14.3207   13.5996   13.1965   13.1483   13.2718   13.4246
   13.4200   13.5117   13.3689   13.1257   13.1111   13.4787
   14.0118   14.5174   14.8833   14.9598   14.5715   14.1282
   13.4894   13.0082   12.9057   13.0814   13.4123   13.5117
   13.5742   13.4254   13.1434   12.9355   13.1151   13.6213
   14.1459   14.5174   14.5715   14.1149   13.8359   13.3146
   12.7930   12.6173   12.8858   13.1780   13.3689   13.4254
   13.3446   13.1257   12.8263   12.6815   13.1035   13.6213
   14.0118   14.1149   13.6237   13.4787   13.1151   12.6815
   12.5669   12.8390   13.0381   13.1257   13.1434   13.1257
   13.0381   12.8390   12.5669   12.6815   13.1151   13.4787
   13.6237   13.1936   13.0937   12.8624   12.6984   12.8624
   13.0937   13.1936   13.1111   12.9355   12.8263   12.8390
   12.8675   12.8390   12.8263   12.9355   13.1111   13.1936
   13.0381   12.8390   12.5669   12.6815   13.1151   13.4787
   13.6237   13.4787   13.1151   12.6815   12.5669   12.8390
   13.0381   13.1257   13.1434   13.1257   13.0381   13.1780
   12.8858   12.6173   12.7930   13.3146   13.8359   14.1149
   14.0118   13.6213   13.1035   12.6815   12.8263   13.1257
   13.3446   13.4254   13.3689   13.1780   13.4123   13.0814
   12.9057   13.0082   13.4894   14.1282   14.5715   14.5174
   14.1459   13.6213   13.1151   12.9355   13.1434   13.4254
   13.5742   13.5117   13.4123   13.4246   13.2718   13.1483
   13.1965   13.5996   14.3207   14.9598   14.8833   14.5174
   14.0118   13.4787   13.1111   13.1257   13.3689   13.5117
   13.4200   13.4246   13.4019   13.3788   13.2946   13.2892
   13.5520   14.2178   15.2488   14.9598   14.5715   14.1149
   13.6237   13.1936   13.0381   13.1780   13.4123   13.4246
   13.4019   13.3240   13.4200   13.3122   13.1850   13.3954
   14.0412   14.9598   15.4128   15.3353   14.7709   14.1149
   13.5189   13.2187   13.3446   13.5456   13.3677   13.3240
   13.4200   13.4246   13.2718   13.1483   13.1965   13.5996
   14.3207   14.9598   14.8833   14.5174   14.0118   13.4787
   13.1111   13.1257   13.3689   13.5117   13.4200   13.3122
   13.2718   13.2295   13.1350   13.0646   13.1980   13.5996
   14.0412   14.1282   13.9400   13.6213   13.2234   12.8624
   12.8263   13.0198   13.2167   13.3122   13.1850   13.1483
   13.1350   13.1432   13.0850   13.0646   13.1965   13.3954
   13.4426   13.3146   13.1035   12.8467   12.5437   12.6815
   12.9240   13.1149   13.1850   13.3954   13.1965   13.0646
   13.0850   13.1432   13.1350   13.1483   13.1850   13.1149
   12.9240   12.6815   12.5437   12.8467   13.1035   13.3146
   13.4426   13.3954   14.0412   13.5996   13.1980   13.0646
   13.1350   13.2295   13.2718   13.3122   13.2167   13.0198
   12.8263   12.8624   13.2234   13.6213   13.9400   14.1282
   14.0412   14.9598   14.3207   13.5996   13.1965   13.1483
   13.2718   13.4246   13.4200   13.5117   13.3689   13.1257
   13.1111   13.4787   14.0118   14.5174   14.8833   14.9598
   15.4128   14.9598   14.0412   13.3954   13.1850   13.3122
   13.4200   13.3240   13.3677   13.5456   13.3446   13.2187
   13.5189   14.1149   14.7709   15.3353   15.4128   15.3353
   14.8833   14.1282   13.4426   13.1149   13.2167   13.5117
   13.3677   13.3668   13.4895   13.4254   13.1587   13.2920
   13.8359   14.5174   15.1067   15.3353   14.7709   14.5174
   13.9400   13.3146   12.9240   13.0198   13.3689   13.5456
   13.4895   13.5456   13.3689   13.0198   12.9240   13.3146
   13.9400   14.5174   14.7709   14.1149   14.0118   13.6213
   13.1035   12.6815   12.8263   13.1257   13.3446   13.4254
   13.3689   13.1780   12.8858   12.6173   12.7930   13.3146
   13.8359   14.1149   13.5189   13.4787   13.2234   12.8467
   12.5437   12.8624   13.1111   13.2187   13.1587   13.0198
   12.8858   12.7444   12.5785   12.6173   12.9240   13.2920
   13.5189   13.2187   13.1111   12.8624   12.5437   12.8467
   13.2234   13.4787   13.5189   13.2920   12.9240   12.6173
   12.5785   12.7444   12.8858   13.0198   13.1587   13.2187
   13.3446   13.1257   12.8263   12.6815   13.1035   13.6213
   14.0118   14.1149   13.8359   13.3146   12.7930   12.6173
   12.8858   13.1780   13.3689   13.4254   13.3446   13.5456
   13.3689   13.0198   12.9240   13.3146   13.9400   14.5174
   14.7709   14.5174   13.9400   13.3146   12.9240   13.0198
   13.3689   13.5456   13.4895   13.5456   13.3677   13.5117
   13.2167   13.1149   13.4426   14.1282   14.8833   15.3353
   15.1067   14.5174   13.8359   13.2920   13.1587   13.4254
   13.4895   13.3668   13.3677   13.3240   13.4200   13.3122
   13.1850   13.3954   14.0412   14.9598   15.4128   15.3353
   14.7709   14.1149   13.5189   13.2187   13.3446   13.5456
   13.3677   13.3240   13.2956   13.3668   13.5742   13.2660
   13.2990   13.7994   14.5715   15.3353   15.4456   15.3353
   14.5715   13.7994   13.2990   13.2660   13.5742   13.3668
   13.2956   13.3668   13.3677   13.5117   13.2167   13.1149
   13.4426   14.1282   14.8833   15.3353   15.1067   14.5174
   13.8359   13.2920   13.1587   13.4254   13.4895   13.3668
   13.5742   13.5117   13.4123   13.0814   12.9057   13.0082
   13.4894   14.1282   14.5715   14.5174   14.1459   13.6213
   13.1151   12.9355   13.1434   13.4254   13.5742   13.2660
   13.2167   13.0814   12.9430   12.8210   12.7771   13.0082
   13.4426   13.7994   13.8359   13.6213   13.2635   12.8467
   12.6984   12.9355   13.1587   13.2660   13.2990   13.1149
   12.9057   12.8210   12.8319   12.8210   12.9057   13.1149
   13.2990   13.2920   13.1151   12.8467   12.5325   12.8467
   13.1151   13.2920   13.2990   13.7994   13.4426   13.0082
   12.7771   12.8210   12.9430   13.0814   13.2167   13.2660
   13.1587   12.9355   12.6984   12.8467   13.2635   13.6213
   13.8359   13.7994   14.5715   14.1282   13.4894   13.0082
   12.9057   13.0814   13.4123   13.5117   13.5742   13.4254
   13.1434   12.9355   13.1151   13.6213   14.1459   14.5174
   14.5715   15.3353   14.8833   14.1282   13.4426   13.1149
   13.2167   13.5117   13.3677   13.3668   13.4895   13.4254
   13.1587   13.2920   13.8359   14.5174   15.1067   15.3353
   15.4456   15.3353   14.5715   13.7994   13.2990   13.2660
   13.5742   13.3668   13.2956   13.3668   13.5742   13.2660
   13.2990   13.7994   14.5715   15.3353   15.4456   15.3353
   15.1067   14.5174   13.8359   13.2920   13.1587   13.4254
   13.4895   13.3668   13.3677   13.5117   13.2167   13.1149
   13.4426   14.1282   14.8833   15.3353   14.5715   14.5174
   14.1459   13.6213   13.1151   12.9355   13.1434   13.4254
   13.5742   13.5117   13.4123   13.0814   12.9057   13.0082
   13.4894   14.1282   14.5715   13.7994   13.8359   13.6213
   13.2635   12.8467   12.6984   12.9355   13.1587   13.2660
   13.2167   13.0814   12.9430   12.8210   12.7771   13.0082
   13.4426   13.7994   13.2990   13.2920   13.1151   12.8467
   12.5325   12.8467   13.1151   13.2920   13.2990   13.1149
   12.9057   12.8210   12.8319   12.8210   12.9057   13.1149
   13.2990   13.2660   13.1587   12.9355   12.6984   12.8467
   13.2635   13.6213   13.8359   13.7994   13.4426   13.0082
   12.7771   12.8210   12.9430   13.0814   13.2167   13.2660
   13.5742   13.4254   13.1434   12.9355   13.1151   13.6213
   14.1459   14.5174   14.5715   14.1282   13.4894   13.0082
   12.9057   13.0814   13.4123   13.5117   13.5742   13.3668
   13.4895   13.4254   13.1587   13.2920   13.8359   14.5174
   15.1067   15.3353   14.8833   14.1282   13.4426   13.1149
   13.2167   13.5117   13.3677   13.3668   13.2956   13.3668
   13.5742   13.2660   13.2990   13.7994   14.5715   15.3353
   15.4456   15.3353   14.5715   13.7994   13.2990   13.2660
   13.5742   13.3668   13.2956   13.3240   13.3677   13.5456
   13.3446   13.2187   13.5189   14.1149   14.7709   15.3353
   15.4128   14.9598   14.0412   13.3954   13.1850   13.3122
   13.4200   13.3240   13.3677   13.3668   13.4895   13.4254
   13.1587   13.2920   13.8359   14.5174   15.1067   15.3353
   14.8833   14.1282   13.4426   13.1149   13.2167   13.5117
   13.3677   13.5456   13.4895   13.5456   13.3689   13.0198
   12.9240   13.3146   13.9400   14.5174   14.7709   14.5174
   13.9400   13.3146   12.9240   13.0198   13.3689   13.5456
   13.3446   13.4254   13.3689   13.1780   12.8858   12.6173
   12.7930   13.3146   13.8359   14.1149   14.0118   13.6213
   13.1035   12.6815   12.8263   13.1257   13.3446   13.2187
   13.1587   13.0198   12.8858   12.7444   12.5785   12.6173
   12.9240   13.2920   13.5189   13.4787   13.2234   12.8467
   12.5437   12.8624   13.1111   13.2187   13.5189   13.2920
   12.9240   12.6173   12.5785   12.7444   12.8858   13.0198
   13.1587   13.2187   13.1111   12.8624   12.5437   12.8467
   13.2234   13.4787   13.5189   14.1149   13.8359   13.3146
   12.7930   12.6173   12.8858   13.1780   13.3689   13.4254
   13.3446   13.1257   12.8263   12.6815   13.1035   13.6213
   14.0118   14.1149   14.7709   14.5174   13.9400   13.3146
   12.9240   13.0198   13.3689   13.5456   13.4895   13.5456
   13.3689   13.0198   12.9240   13.3146   13.9400   14.5174
   14.7709   15.3353   15.1067   14.5174   13.8359   13.2920
   13.1587   13.4254   13.4895   13.3668   13.3677   13.5117
   13.2167   13.1149   13.4426   14.1282   14.8833   15.3353
   15.4128   15.3353   14.7709   14.1149   13.5189   13.2187
   13.3446   13.5456   13.3677   13.3240   13.4200   13.3122
   13.1850   13.3954   14.0412   14.9598   15.4128   14.9598
   14.8833   14.5174   14.0118   13.4787   13.1111   13.1257
   13.3689   13.5117   13.4200   13.4246   13.2718   13.1483
   13.1965   13.5996   14.3207   14.9598   14.0412   14.1282
   13.9400   13.6213   13.2234   12.8624   12.8263   13.0198
   13.2167   13.3122   13.2718   13.2295   13.1350   13.0646
   13.1980   13.5996   14.0412   13.3954   13.4426   13.3146
   13.1035   12.8467   12.5437   12.6815   12.9240   13.1149
   13.1850   13.1483   13.1350   13.1432   13.0850   13.0646
   13.1965   13.3954   13.1850   13.1149   12.9240   12.6815
   12.5437   12.8467   13.1035   13.3146   13.4426   13.3954
   13.1965   13.0646   13.0850   13.1432   13.1350   13.1483
   13.1850   13.3122   13.2167   13.0198   12.8263   12.8624
   13.2234   13.6213   13.9400   14.1282   14.0412   13.5996
   13.1980   13.0646   13.1350   13.2295   13.2718   13.3122
   13.4200   13.5117   13.3689   13.1257   13.1111   13.4787
   14.0118   14.5174   14.8833   14.9598   14.3207   13.5996
   13.1965   13.1483   13.2718   13.4246   13.4200   13.3240
   13.3677   13.5456   13.3446   13.2187   13.5189   14.1149
   14.7709   15.3353   15.4128   14.9598   14.0412   13.3954
   13.1850   13.3122   13.4200   13.3240   13.4019   13.4246
   13.4123   13.1780   13.0381   13.1936   13.6237   14.1149
   14.5715   14.9598   15.2488   14.2178   13.5520   13.2892