 BEGIN_INFO
   #
   # this is a Band-XCRYSDEN-Structure-File
   # aimed at Visualization of Fermi Surface
   #
   # Case:   ni_fsup.bxsf
   #
 Fermi Energy:         15.3269
 END_INFO
 BEGIN_BLOCK_BANDGRID_3D
 band_energies
 BANDGRID_3D_BANDS
    4
   17   17   17
  0.000000  0.000000  0.000000
 -1.000000 -1.000000  1.000000
  1.000000  1.000000  1.000000
 -1.000000  1.000000 -1.000000
BAND:   3
   12.5712   12.6095   12.7059   12.8010   12.8198   12.7572
   12.6685   12.5994   12.5739   12.5994   12.6685   12.7572
   12.8198   12.8010   12.7059   12.6095   12.5712   12.6095
   12.6353   12.7216   12.8219   12.8416   12.7562   12.6758
   12.6897   12.6426   12.6440   12.6955   12.6962   12.7909
   12.8311   12.7783   12.6645   12.6095   12.7059   12.7216
   12.8244   12.9376   12.9054   12.7409   12.5785   12.6739
   12.8429   12.8185   12.8446   12.5265   12.6758   12.7965
   12.8369   12.7783   12.7059   12.8010   12.8219   12.9376
   13.1267   13.0424   12.8108   12.6040   12.5061   12.6112
   12.7171   12.5719   12.2558   12.4639   12.6621   12.7965
   12.8311   12.8010   12.8198   12.8416   12.9054   13.0424
   13.2088   13.1014   12.9186   12.7567   12.6473   12.5572
   12.3828   12.0796   12.1965   12.4639   12.6758   12.7909
   12.8198   12.7572   12.7562   12.7409   12.8108   13.1014
   13.6535   13.6308   13.4082   13.1484   12.8581   12.5308
   12.2042   12.0796   12.2558   12.5265   12.6962   12.7572
   12.6685   12.6758   12.5785   12.6040   12.9186   13.6308
   14.3706   14.2203   13.8640   13.4276   12.9528   12.5308
   12.3828   12.5719   12.8446   12.6955   12.6685   12.5994
   12.6897   12.6739   12.5061   12.7567   13.4082   14.2203
   14.6384   14.5137   14.0304   13.4276   12.8581   12.5572
   12.7171   12.8185   12.6440   12.5994   12.5739   12.6426
   12.8429   12.6112   12.6473   13.1484   13.8640   14.5137
   14.6700   14.5137   13.8640   13.1484   12.6473   12.6112
   12.8429   12.6426   12.5739   12.5994   12.6440   12.8185
   12.7171   12.5572   12.8581   13.4276   14.0304   14.5137
   14.6384   14.2203   13.4082   12.7567   12.5061   12.6739
   12.6897   12.5994   12.6685   12.6955   12.8446   12.5719
   12.3828   12.5308   12.9528   13.4276   13.8640   14.2203
   14.3706   13.6308   12.9186   12.6040   12.5785   12.6758
   12.6685   12.7572   12.6962   12.5265   12.2558   12.0796
   12.2042   12.5308   12.8581   13.1484   13.4082   13.6308
   13.6535   13.1014   12.8108   12.7409   12.7562   12.7572
   12.8198   12.7909   12.6758   12.4639   12.1965   12.0796
   12.3828   12.5572   12.6473   12.7567   12.9186   13.1014
   13.2088   13.0424   12.9054   12.8416   12.8198   12.8010
   12.8311   12.7965   12.6621   12.4639   12.2558   12.5719
   12.7171   12.6112   12.5061   12.6040   12.8108   13.0424
   13.1267   12.9376   12.8219   12.8010   12.7059   12.7783
   12.8369   12.7965   12.6758   12.5265   12.8446   12.8185
   12.8429   12.6739   12.5785   12.7409   12.9054   12.9376
   12.8244   12.7216   12.7059   12.6095   12.6645   12.7783
   12.8311   12.7909   12.6962   12.6955   12.6440   12.6426
   12.6897   12.6758   12.7562   12.8416   12.8219   12.7216
   12.6353   12.6095   12.5712   12.6095   12.7059   12.8010
   12.8198   12.7572   12.6685   12.5994   12.5739   12.5994
   12.6685   12.7572   12.8198   12.8010   12.7059   12.6095
   12.5712   12.6095   12.6353   12.7216   12.8219   12.8416
   12.7562   12.6758   12.6897   12.6426   12.6440   12.6955
   12.6962   12.7909   12.8311   12.7783   12.6645   12.6095
   12.6353   12.6095   12.6645   12.7783   12.8311   12.7909
   12.6962   12.6955   12.6440   12.6426   12.6897   12.6758
   12.7562   12.8416   12.8219   12.7216   12.6353   12.7216
   12.6645   12.7216   12.8251   12.8651   12.7881   12.6452
   12.6031   12.7858   12.7633   12.7858   12.6031   12.6452
   12.7881   12.8651   12.8251   12.7216   12.8219   12.7783
   12.8251   12.9376   12.9585   12.8073   12.6029   12.4468
   12.5649   12.8189   12.7762   12.4218   12.4383   12.6312
   12.7951   12.8651   12.8219   12.8416   12.8311   12.8651
   12.9585   13.0424   12.9190   12.7162   12.5318   12.4510
   12.4985   12.4782   12.2326   12.1589   12.4039   12.6312
   12.7881   12.8416   12.7562   12.7909   12.7881   12.8073
   12.9190   13.1014   13.1095   12.9712   12.8030   12.6380
   12.4482   12.1772   11.9082   12.1589   12.4383   12.6452
   12.7562   12.6758   12.6962   12.6452   12.6029   12.7162
   13.1095   13.6308   13.6688   13.4604   13.1663   12.8112
   12.4306   12.1772   12.2326   12.4218   12.6031   12.6758
   12.6897   12.6955   12.6031   12.4468   12.5318   12.9712
   13.6688   14.2203   14.1323   13.7976   13.3223   12.8112
   12.4482   12.4782   12.7762   12.7858   12.6897   12.6426
   12.6440   12.7858   12.5649   12.4510   12.8030   13.4604
   14.1323   14.5137   14.3188   13.7976   13.1663   12.6380
   12.4985   12.8189   12.7633   12.6426   12.6440   12.6426
   12.7633   12.8189   12.4985   12.6380   13.1663   13.7976
   14.3188   14.5137   14.1323   13.4604   12.8030   12.4510
   12.5649   12.7858   12.6440   12.6955   12.6897   12.7858
   12.7762   12.4782   12.4482   12.8112   13.3223   13.7976
   14.1323   14.2203   13.6688   12.9712   12.5318   12.4468
   12.6031   12.6955   12.6962   12.6758   12.6031   12.4218
   12.2326   12.1772   12.4306   12.8112   13.1663   13.4604
   13.6688   13.6308   13.1095   12.7162   12.6029   12.6452
   12.6962   12.7909   12.7562   12.6452   12.4383   12.1589
   11.9082   12.1772   12.4482   12.6380   12.8030   12.9712
   13.1095   13.1014   12.9190   12.8073   12.7881   12.7909
   12.8311   12.8416   12.7881   12.6312   12.4039   12.1589
   12.2326   12.4782   12.4985   12.4510   12.5318   12.7162
   12.9190   13.0424   12.9585   12.8651   12.8311   12.7783
   12.8219   12.8651   12.7951   12.6312   12.4383   12.4218
   12.7762   12.8189   12.5649   12.4468   12.6029   12.8073
   12.9585   12.9376   12.8251   12.7783   12.6645   12.7216
   12.8251   12.8651   12.7881   12.6452   12.6031   12.7858
   12.7633   12.7858   12.6031   12.6452   12.7881   12.8651
   12.8251   12.7216   12.6645   12.6095   12.6353   12.7216
   12.8219   12.8416   12.7562   12.6758   12.6897   12.6426
   12.6440   12.6955   12.6962   12.7909   12.8311   12.7783
   12.6645   12.6095   12.7059   12.7216   12.8244   12.9376
   12.9054   12.7409   12.5785   12.6739   12.8429   12.8185
   12.8446   12.5265   12.6758   12.7965   12.8369   12.7783
   12.7059   12.7216   12.6645   12.7216   12.8251   12.8651
   12.7881   12.6452   12.6031   12.7858   12.7633   12.7858
   12.6031   12.6452   12.7881   12.8651   12.8251   12.7216
   12.8244   12.7216   12.7059   12.7783   12.8369   12.7965
   12.6758   12.5265   12.8446   12.8185   12.8429   12.6739
   12.5785   12.7409   12.9054   12.9376   12.8244   12.9376
   12.8251   12.7783   12.8219   12.8651   12.7951   12.6312
   12.4383   12.4218   12.7762   12.8189   12.5649   12.4468
   12.6029   12.8073   12.9585   12.9376   12.9054   12.8651
   12.8369   12.8651   12.9054   12.8073   12.6079   12.3800
   12.2217   12.3638   12.5001   12.3638   12.2217   12.3800
   12.6079   12.8073   12.9054   12.7409   12.7881   12.7965
   12.7951   12.8073   12.8108   12.7162   12.5399   12.3595
   12.2702   12.2739   12.1666   11.9509   12.1151   12.3800
   12.6029   12.7409   12.5785   12.6452   12.6758   12.6312
   12.6079   12.7162   12.9186   12.9712   12.8515   12.6682
   12.4579   12.1998   11.9030   11.9509   12.2217   12.4468
   12.5785   12.6739   12.6031   12.5265   12.4383   12.3800
   12.5399   12.9712   13.4082   13.4604   13.2627   12.9467
   12.5562   12.1998   12.1666   12.3638   12.5649   12.6739
   12.8429   12.7858   12.8446   12.4218   12.2217   12.3595
   12.8515   13.4604   13.8640   13.7976   13.4447   12.9467
   12.4579   12.2739   12.5001   12.8189   12.8429   12.8185
   12.7633   12.8185   12.7762   12.3638   12.2702   12.6682
   13.2627   13.7976   14.0304   13.7976   13.2627   12.6682
   12.2702   12.3638   12.7762   12.8185   12.8446   12.7858
   12.8429   12.8189   12.5001   12.2739   12.4579   12.9467
   13.4447   13.7976   13.8640   13.4604   12.8515   12.3595
   12.2217   12.4218   12.8446   12.5265   12.6031   12.6739
   12.5649   12.3638   12.1666   12.1998   12.5562   12.9467
   13.2627   13.4604   13.4082   12.9712   12.5399   12.3800
   12.4383   12.5265   12.6758   12.6452   12.5785   12.4468
   12.2217   11.9509   11.9030   12.1998   12.4579   12.6682
   12.8515   12.9712   12.9186   12.7162   12.6079   12.6312
   12.6758   12.7965   12.7881   12.7409   12.6029   12.3800
   12.1151   11.9509   12.1666   12.2739   12.2702   12.3595
   12.5399   12.7162   12.8108   12.8073   12.7951   12.7965
   12.8369   12.8651   12.9054   12.8073   12.6079   12.3800
   12.2217   12.3638   12.5001   12.3638   12.2217   12.3800
   12.6079   12.8073   12.9054   12.8651   12.8369   12.7783
   12.8251   12.9376   12.9585   12.8073   12.6029   12.4468
   12.5649   12.8189   12.7762   12.4218   12.4383   12.6312
   12.7951   12.8651   12.8219   12.7783   12.7059   12.7216
   12.8244   12.9376   12.9054   12.7409   12.5785   12.6739
   12.8429   12.8185   12.8446   12.5265   12.6758   12.7965
   12.8369   12.7783   12.7059   12.8010   12.8219   12.9376
   13.1267   13.0424   12.8108   12.6040   12.5061   12.6112
   12.7171   12.5719   12.2558   12.4639   12.6621   12.7965
   12.8311   12.8010   12.8219   12.7783   12.8251   12.9376
   12.9585   12.8073   12.6029   12.4468   12.5649   12.8189
   12.7762   12.4218   12.4383   12.6312   12.7951   12.8651
   12.8219   12.9376   12.8251   12.7783   12.8219   12.8651
   12.7951   12.6312   12.4383   12.4218   12.7762   12.8189
   12.5649   12.4468   12.6029   12.8073   12.9585   12.9376
   13.1267   12.9376   12.8219   12.8010   12.8311   12.7965
   12.6621   12.4639   12.2558   12.5719   12.7171   12.6112
   12.5061   12.6040   12.8108   13.0424   13.1267   13.0424
   12.9585   12.8651   12.8311   12.8416   12.7881   12.6312
   12.4039   12.1589   12.2326   12.4782   12.4985   12.4510
   12.5318   12.7162   12.9190   13.0424   12.8108   12.8073
   12.7951   12.7965   12.7881   12.7409   12.6029   12.3800
   12.1151   11.9509   12.1666   12.2739   12.2702   12.3595
   12.5399   12.7162   12.8108   12.6040   12.6029   12.6312
   12.6621   12.6312   12.6029   12.6040   12.5318   12.3595
   12.1566   12.0355   12.0358   12.0355   12.1566   12.3595
   12.5318   12.6040   12.5061   12.4468   12.4383   12.4639
   12.4039   12.3800   12.5318   12.7567   12.8030   12.6682
   12.4513   12.1875   11.8832   12.0355   12.2702   12.4510
   12.5061   12.6112   12.5649   12.4218   12.2558   12.1589
   12.1151   12.3595   12.8030   13.1484   13.1663   12.9467
   12.5941   12.1875   12.0358   12.2739   12.4985   12.6112
   12.7171   12.8189   12.7762   12.5719   12.2326   11.9509
   12.1566   12.6682   13.1663   13.4276   13.3223   12.9467
   12.4513   12.0355   12.1666   12.4782   12.7171   12.5719
   12.7762   12.8189   12.7171   12.4782   12.1666   12.0355
   12.4513   12.9467   13.3223   13.4276   13.1663   12.6682
   12.1566   11.9509   12.2326   12.5719   12.2558   12.4218
   12.5649   12.6112   12.4985   12.2739   12.0358   12.1875
   12.5941   12.9467   13.1663   13.1484   12.8030   12.3595
   12.1151   12.1589   12.2558   12.4639   12.4383   12.4468
   12.5061   12.4510   12.2702   12.0355   11.8832   12.1875
   12.4513   12.6682   12.8030   12.7567   12.5318   12.3800
   12.4039   12.4639   12.6621   12.6312   12.6029   12.6040
   12.5318   12.3595   12.1566   12.0355   12.0358   12.0355
   12.1566   12.3595   12.5318   12.6040   12.6029   12.6312
   12.6621   12.7965   12.7951   12.8073   12.8108   12.7162
   12.5399   12.3595   12.2702   12.2739   12.1666   11.9509
   12.1151   12.3800   12.6029   12.7409   12.7881   12.7965
   12.8311   12.8651   12.9585   13.0424   12.9190   12.7162
   12.5318   12.4510   12.4985   12.4782   12.2326   12.1589
   12.4039   12.6312   12.7881   12.8416   12.8311   12.8010
   12.8219   12.9376   13.1267   13.0424   12.8108   12.6040
   12.5061   12.6112   12.7171   12.5719   12.2558   12.4639
   12.6621   12.7965   12.8311   12.8010   12.8198   12.8416
   12.9054   13.0424   13.2088   13.1014   12.9186   12.7567
   12.6473   12.5572   12.3828   12.0796   12.1965   12.4639
   12.6758   12.7909   12.8198   12.8416   12.8311   12.8651
   12.9585   13.0424   12.9190   12.7162   12.5318   12.4510
   12.4985   12.4782   12.2326   12.1589   12.4039   12.6312
   12.7881   12.8416   12.9054   12.8651   12.8369   12.8651
   12.9054   12.8073   12.6079   12.3800   12.2217   12.3638
   12.5001   12.3638   12.2217   12.3800   12.6079   12.8073
   12.9054   13.0424   12.9585   12.8651   12.8311   12.8416
   12.7881   12.6312   12.4039   12.1589   12.2326   12.4782
   12.4985   12.4510   12.5318   12.7162   12.9190   13.0424
   13.2088   13.0424   12.9054   12.8416   12.8198   12.7909
   12.6758   12.4639   12.1965   12.0796   12.3828   12.5572
   12.6473   12.7567   12.9186   13.1014   13.2088   13.1014
   12.9190   12.8073   12.7881   12.7909   12.7562   12.6452
   12.4383   12.1589   11.9082   12.1772   12.4482   12.6380
   12.8030   12.9712   13.1095   13.1014   12.9186   12.7162
   12.6079   12.6312   12.6758   12.6452   12.5785   12.4468
   12.2217   11.9509   11.9030   12.1998   12.4579   12.6682
   12.8515   12.9712   12.9186   12.7567   12.5318   12.3800
   12.4039   12.4639   12.4383   12.4468   12.5061   12.4510
   12.2702   12.0355   11.8832   12.1875   12.4513   12.6682
   12.8030   12.7567   12.6473   12.4510   12.2217   12.1589
   12.1965   12.1589   12.2217   12.4510   12.6473   12.6380
   12.4579   12.1875   11.8733   12.1875   12.4579   12.6380
   12.6473   12.5572   12.4985   12.3638   12.2326   12.0796
   11.9082   11.9509   12.2702   12.6380   12.8581   12.8112
   12.5562   12.1875   11.8832   12.1998   12.4482   12.5572
   12.3828   12.4782   12.5001   12.4782   12.3828   12.1772
   11.9030   12.0355   12.4579   12.8112   12.9528   12.8112
   12.4579   12.0355   11.9030   12.1772   12.3828   12.0796
   12.2326   12.3638   12.4985   12.5572   12.4482   12.1998
   11.8832   12.1875   12.5562   12.8112   12.8581   12.6380
   12.2702   11.9509   11.9082   12.0796   12.1965   12.1589
   12.2217   12.4510   12.6473   12.6380   12.4579   12.1875
   11.8733   12.1875   12.4579   12.6380   12.6473   12.4510
   12.2217   12.1589   12.1965   12.4639   12.4039   12.3800
   12.5318   12.7567   12.8030   12.6682   12.4513   12.1875
   11.8832   12.0355   12.2702   12.4510   12.5061   12.4468
   12.4383   12.4639   12.6758   12.6312   12.6079   12.7162
   12.9186   12.9712   12.8515   12.6682   12.4579   12.1998
   11.9030   11.9509   12.2217   12.4468   12.5785   12.6452
   12.6758   12.7909   12.7881   12.8073   12.9190   13.1014
   13.1095   12.9712   12.8030   12.6380   12.4482   12.1772
   11.9082   12.1589   12.4383   12.6452   12.7562   12.7909
   12.8198   12.8416   12.9054   13.0424   13.2088   13.1014
   12.9186   12.7567   12.6473   12.5572   12.3828   12.0796
   12.1965   12.4639   12.6758   12.7909   12.8198   12.7572
   12.7562   12.7409   12.8108   13.1014   13.6535   13.6308
   13.4082   13.1484   12.8581   12.5308   12.2042   12.0796
   12.2558   12.5265   12.6962   12.7572   12.7562   12.7909
   12.7881   12.8073   12.9190   13.1014   13.1095   12.9712
   12.8030   12.6380   12.4482   12.1772   11.9082   12.1589
   12.4383   12.6452   12.7562   12.7409   12.7881   12.7965
   12.7951   12.8073   12.8108   12.7162   12.5399   12.3595
   12.2702   12.2739   12.1666   11.9509   12.1151   12.3800
   12.6029   12.7409   12.8108   12.8073   12.7951   12.7965
   12.7881   12.7409   12.6029   12.3800   12.1151   11.9509
   12.1666   12.2739   12.2702   12.3595   12.5399   12.7162
   12.8108   13.1014   12.9190   12.8073   12.7881   12.7909
   12.7562   12.6452   12.4383   12.1589   11.9082   12.1772
   12.4482   12.6380   12.8030   12.9712   13.1095   13.1014
   13.6535   13.1014   12.8108   12.7409   12.7562   12.7572
   12.6962   12.5265   12.2558   12.0796   12.2042   12.5308
   12.8581   13.1484   13.4082   13.6308   13.6535   13.6308
   13.1095   12.7162   12.6029   12.6452   12.6962   12.6758
   12.6031   12.4218   12.2326   12.1772   12.4306   12.8112
   13.1663   13.4604   13.6688   13.6308   13.4082   12.9712
   12.5399   12.3800   12.4383   12.5265   12.6031   12.6739
   12.5649   12.3638   12.1666   12.1998   12.5562   12.9467
   13.2627   13.4604   13.4082   13.1484   12.8030   12.3595
   12.1151   12.1589   12.2558   12.4218   12.5649   12.6112
   12.4985   12.2739   12.0358   12.1875   12.5941   12.9467
   13.1663   13.1484   12.8581   12.6380   12.2702   11.9509
   11.9082   12.0796   12.2326   12.3638   12.4985   12.5572
   12.4482   12.1998   11.8832   12.1875   12.5562   12.8112
   12.8581   12.5308   12.4482   12.2739   12.1666   12.1772
   12.2042   12.1772   12.1666   12.2739   12.4482   12.5308
   12.4306   12.1998   12.0358   12.1998   12.4306   12.5308
   12.2042   12.1772   12.1666   12.2739   12.4482   12.5308
   12.4306   12.1998   12.0358   12.1998   12.4306   12.5308
   12.4482   12.2739   12.1666   12.1772   12.2042   12.0796
   11.9082   11.9509   12.2702   12.6380   12.8581   12.8112
   12.5562   12.1875   11.8832   12.1998   12.4482   12.5572
   12.4985   12.3638   12.2326   12.0796   12.2558   12.1589
   12.1151   12.3595   12.8030   13.1484   13.1663   12.9467
   12.5941   12.1875   12.0358   12.2739   12.4985   12.6112
   12.5649   12.4218   12.2558   12.5265   12.4383   12.3800
   12.5399   12.9712   13.4082   13.4604   13.2627   12.9467
   12.5562   12.1998   12.1666   12.3638   12.5649   12.6739
   12.6031   12.5265   12.6962   12.6452   12.6029   12.7162
   13.1095   13.6308   13.6688   13.4604   13.1663   12.8112
   12.4306   12.1772   12.2326   12.4218   12.6031   12.6758
   12.6962   12.7572   12.7562   12.7409   12.8108   13.1014
   13.6535   13.6308   13.4082   13.1484   12.8581   12.5308
   12.2042   12.0796   12.2558   12.5265   12.6962   12.7572
   12.6685   12.6758   12.5785   12.6040   12.9186   13.6308
   14.3706   14.2203   13.8640   13.4276   12.9528   12.5308
   12.3828   12.5719   12.8446   12.6955   12.6685   12.6758
   12.6962   12.6452   12.6029   12.7162   13.1095   13.6308
   13.6688   13.4604   13.1663   12.8112   12.4306   12.1772
   12.2326   12.4218   12.6031   12.6758   12.5785   12.6452
   12.6758   12.6312   12.6079   12.7162   12.9186   12.9712
   12.8515   12.6682   12.4579   12.1998   11.9030   11.9509
   12.2217   12.4468   12.5785   12.6040   12.6029   12.6312
   12.6621   12.6312   12.6029   12.6040   12.5318   12.3595
   12.1566   12.0355   12.0358   12.0355   12.1566   12.3595
   12.5318   12.6040   12.9186   12.7162   12.6079   12.6312
   12.6758   12.6452   12.5785   12.4468   12.2217   11.9509
   11.9030   12.1998   12.4579   12.6682   12.8515   12.9712
   12.9186   13.6308   13.1095   12.7162   12.6029   12.6452
   12.6962   12.6758   12.6031   12.4218   12.2326   12.1772
   12.4306   12.8112   13.1663   13.4604   13.6688   13.6308
   14.3706   13.6308   12.9186   12.6040   12.5785   12.6758
   12.6685   12.6955   12.8446   12.5719   12.3828   12.5308
   12.9528   13.4276   13.8640   14.2203   14.3706   14.2203
   13.6688   12.9712   12.5318   12.4468   12.6031   12.6955
   12.6897   12.7858   12.7762   12.4782   12.4482   12.8112
   13.3223   13.7976   14.1323   14.2203   13.8640   13.4604
   12.8515   12.3595   12.2217   12.4218   12.8446   12.7858
   12.8429   12.8189   12.5001   12.2739   12.4579   12.9467
   13.4447   13.7976   13.8640   13.4276   13.1663   12.6682
   12.1566   11.9509   12.2326   12.5719   12.7762   12.8189
   12.7171   12.4782   12.1666   12.0355   12.4513   12.9467
   13.3223   13.4276   12.9528   12.8112   12.4579   12.0355
   11.9030   12.1772   12.3828   12.4782   12.5001   12.4782
   12.3828   12.1772   11.9030   12.0355   12.4579   12.8112
   12.9528   12.5308   12.4306   12.1998   12.0358   12.1998
   12.4306   12.5308   12.4482   12.2739   12.1666   12.1772
   12.2042   12.1772   12.1666   12.2739   12.4482   12.5308
   12.3828   12.1772   11.9030   12.0355   12.4579   12.8112
   12.9528   12.8112   12.4579   12.0355   11.9030   12.1772
   12.3828   12.4782   12.5001   12.4782   12.3828   12.5719
   12.2326   11.9509   12.1566   12.6682   13.1663   13.4276
   13.3223   12.9467   12.4513   12.0355   12.1666   12.4782
   12.7171   12.8189   12.7762   12.5719   12.8446   12.4218
   12.2217   12.3595   12.8515   13.4604   13.8640   13.7976
   13.4447   12.9467   12.4579   12.2739   12.5001   12.8189
   12.8429   12.7858   12.8446   12.6955   12.6031   12.4468
   12.5318   12.9712   13.6688   14.2203   14.1323   13.7976
   13.3223   12.8112   12.4482   12.4782   12.7762   12.7858
   12.6897   12.6955   12.6685   12.6758   12.5785   12.6040
   12.9186   13.6308   14.3706   14.2203   13.8640   13.4276
   12.9528   12.5308   12.3828   12.5719   12.8446   12.6955
   12.6685   12.5994   12.6897   12.6739   12.5061   12.7567
   13.4082   14.2203   14.6384   14.5137   14.0304   13.4276
   12.8581   12.5572   12.7171   12.8185   12.6440   12.5994
   12.6897   12.6955   12.6031   12.4468   12.5318   12.9712
   13.6688   14.2203   14.1323   13.7976   13.3223   12.8112
   12.4482   12.4782   12.7762   12.7858   12.6897   12.6739
   12.6031   12.5265   12.4383   12.3800   12.5399   12.9712
   13.4082   13.4604   13.2627   12.9467   12.5562   12.1998
   12.1666   12.3638   12.5649   12.6739   12.5061   12.4468
   12.4383   12.4639   12.4039   12.3800   12.5318   12.7567
   12.8030   12.6682   12.4513   12.1875   11.8832   12.0355
   12.2702   12.4510   12.5061   12.7567   12.5318   12.3800
   12.4039   12.4639   12.4383   12.4468   12.5061   12.4510
   12.2702   12.0355   11.8832   12.1875   12.4513   12.6682
   12.8030   12.7567   13.4082   12.9712   12.5399   12.3800
   12.4383   12.5265   12.6031   12.6739   12.5649   12.3638
   12.1666   12.1998   12.5562   12.9467   13.2627   13.4604
   13.4082   14.2203   13.6688   12.9712   12.5318   12.4468
   12.6031   12.6955   12.6897   12.7858   12.7762   12.4782
   12.4482   12.8112   13.3223   13.7976   14.1323   14.2203
   14.6384   14.2203   13.4082   12.7567   12.5061   12.6739
   12.6897   12.5994   12.6440   12.8185   12.7171   12.5572
   12.8581   13.4276   14.0304   14.5137   14.6384   14.5137
   14.1323   13.4604   12.8030   12.4510   12.5649   12.7858
   12.6440   12.6426   12.7633   12.8189   12.4985   12.6380
   13.1663   13.7976   14.3188   14.5137   14.0304   13.7976
   13.2627   12.6682   12.2702   12.3638   12.7762   12.8185
   12.7633   12.8185   12.7762   12.3638   12.2702   12.6682
   13.2627   13.7976   14.0304   13.4276   13.3223   12.9467
   12.4513   12.0355   12.1666   12.4782   12.7171   12.8189
   12.7762   12.5719   12.2326   11.9509   12.1566   12.6682
   13.1663   13.4276   12.8581   12.8112   12.5562   12.1875
   11.8832   12.1998   12.4482   12.5572   12.4985   12.3638
   12.2326   12.0796   11.9082   11.9509   12.2702   12.6380
   12.8581   12.5572   12.4482   12.1998   11.8832   12.1875
   12.5562   12.8112   12.8581   12.6380   12.2702   11.9509
   11.9082   12.0796   12.2326   12.3638   12.4985   12.5572
   12.7171   12.4782   12.1666   12.0355   12.4513   12.9467
   13.3223   13.4276   13.1663   12.6682   12.1566   11.9509
   12.2326   12.5719   12.7762   12.8189   12.7171   12.8185
   12.7762   12.3638   12.2702   12.6682   13.2627   13.7976
   14.0304   13.7976   13.2627   12.6682   12.2702   12.3638
   12.7762   12.8185   12.7633   12.8185   12.6440   12.7858
   12.5649   12.4510   12.8030   13.4604   14.1323   14.5137
   14.3188   13.7976   13.1663   12.6380   12.4985   12.8189
   12.7633   12.6426   12.6440   12.5994   12.6897   12.6739
   12.5061   12.7567   13.4082   14.2203   14.6384   14.5137
   14.0304   13.4276   12.8581   12.5572   12.7171   12.8185
   12.6440   12.5994   12.5739   12.6426   12.8429   12.6112
   12.6473   13.1484   13.8640   14.5137   14.6700   14.5137
   13.8640   13.1484   12.6473   12.6112   12.8429   12.6426
   12.5739   12.6426   12.6440   12.7858   12.5649   12.4510
   12.8030   13.4604   14.1323   14.5137   14.3188   13.7976
   13.1663   12.6380   12.4985   12.8189   12.7633   12.6426
   12.8429   12.7858   12.8446   12.4218   12.2217   12.3595
   12.8515   13.4604   13.8640   13.7976   13.4447   12.9467
   12.4579   12.2739   12.5001   12.8189   12.8429   12.6112
   12.5649   12.4218   12.2558   12.1589   12.1151   12.3595
   12.8030   13.1484   13.1663   12.9467   12.5941   12.1875
   12.0358   12.2739   12.4985   12.6112   12.6473   12.4510
   12.2217   12.1589   12.1965   12.1589   12.2217   12.4510
   12.6473   12.6380   12.4579   12.1875   11.8733   12.1875
   12.4579   12.6380   12.6473   13.1484   12.8030   12.3595
   12.1151   12.1589   12.2558   12.4218   12.5649   12.6112
   12.4985   12.2739   12.0358   12.1875   12.5941   12.9467
   13.1663   13.1484   13.8640   13.4604   12.8515   12.3595
   12.2217   12.4218   12.8446   12.7858   12.8429   12.8189
   12.5001   12.2739   12.4579   12.9467   13.4447   13.7976
   13.8640   14.5137   14.1323   13.4604   12.8030   12.4510
   12.5649   12.7858   12.6440   12.6426   12.7633   12.8189
   12.4985   12.6380   13.1663   13.7976   14.3188   14.5137
   14.6700   14.5137   13.8640   13.1484   12.6473   12.6112
   12.8429   12.6426   12.5739   12.6426   12.8429   12.6112
   12.6473   13.1484   13.8640   14.5137   14.6700   14.5137
   14.3188   13.7976   13.1663   12.6380   12.4985   12.8189
   12.7633   12.6426   12.6440   12.7858   12.5649   12.4510
   12.8030   13.4604   14.1323   14.5137   13.8640   13.7976
   13.4447   12.9467   12.4579   12.2739   12.5001   12.8189
   12.8429   12.7858   12.8446   12.4218   12.2217   12.3595
   12.8515   13.4604   13.8640   13.1484   13.1663   12.9467
   12.5941   12.1875   12.0358   12.2739   12.4985   12.6112
   12.5649   12.4218   12.2558   12.1589   12.1151   12.3595
   12.8030   13.1484   12.6473   12.6380   12.4579   12.1875
   11.8733   12.1875   12.4579   12.6380   12.6473   12.4510
   12.2217   12.1589   12.1965   12.1589   12.2217   12.4510
   12.6473   12.6112   12.4985   12.2739   12.0358   12.1875
   12.5941   12.9467   13.1663   13.1484   12.8030   12.3595
   12.1151   12.1589   12.2558   12.4218   12.5649   12.6112
   12.8429   12.8189   12.5001   12.2739   12.4579   12.9467
   13.4447   13.7976   13.8640   13.4604   12.8515   12.3595
   12.2217   12.4218   12.8446   12.7858   12.8429   12.6426
   12.7633   12.8189   12.4985   12.6380   13.1663   13.7976
   14.3188   14.5137   14.1323   13.4604   12.8030   12.4510
   12.5649   12.7858   12.6440   12.6426   12.5739   12.6426
   12.8429   12.6112   12.6473   13.1484   13.8640   14.5137
   14.6700   14.5137   13.8640   13.1484   12.6473   12.6112
   12.8429   12.6426   12.5739   12.5994   12.6440   12.8185
   12.7171   12.5572   12.8581   13.4276   14.0304   14.5137
   14.6384   14.2203   13.4082   12.7567   12.5061   12.6739
   12.6897   12.5994   12.6440   12.6426   12.7633   12.8189
   12.4985   12.6380   13.1663   13.7976   14.3188   14.5137
   14.1323   13.4604   12.8030   12.4510   12.5649   12.7858
   12.6440   12.8185   12.7633   12.8185   12.7762   12.3638
   12.2702   12.6682   13.2627   13.7976   14.0304   13.7976
   13.2627   12.6682   12.2702   12.3638   12.7762   12.8185
   12.7171   12.8189   12.7762   12.5719   12.2326   11.9509
   12.1566   12.6682   13.1663   13.4276   13.3223   12.9467
   12.4513   12.0355   12.1666   12.4782   12.7171   12.5572
   12.4985   12.3638   12.2326   12.0796   11.9082   11.9509
   12.2702   12.6380   12.8581   12.8112   12.5562   12.1875
   11.8832   12.1998   12.4482   12.5572   12.8581   12.6380
   12.2702   11.9509   11.9082   12.0796   12.2326   12.3638
   12.4985   12.5572   12.4482   12.1998   11.8832   12.1875
   12.5562   12.8112   12.8581   13.4276   13.1663   12.6682
   12.1566   11.9509   12.2326   12.5719   12.7762   12.8189
   12.7171   12.4782   12.1666   12.0355   12.4513   12.9467
   13.3223   13.4276   14.0304   13.7976   13.2627   12.6682
   12.2702   12.3638   12.7762   12.8185   12.7633   12.8185
   12.7762   12.3638   12.2702   12.6682   13.2627   13.7976
   14.0304   14.5137   14.3188   13.7976   13.1663   12.6380
   12.4985   12.8189   12.7633   12.6426   12.6440   12.7858
   12.5649   12.4510   12.8030   13.4604   14.1323   14.5137
   14.6384   14.5137   14.0304   13.4276   12.8581   12.5572
   12.7171   12.8185   12.6440   12.5994   12.6897   12.6739
   12.5061   12.7567   13.4082   14.2203   14.6384   14.2203
   14.1323   13.7976   13.3223   12.8112   12.4482   12.4782
   12.7762   12.7858   12.6897   12.6955   12.6031   12.4468
   12.5318   12.9712   13.6688   14.2203   13.4082   13.4604
   13.2627   12.9467   12.5562   12.1998   12.1666   12.3638
   12.5649   12.6739   12.6031   12.5265   12.4383   12.3800
   12.5399   12.9712   13.4082   12.7567   12.8030   12.6682
   12.4513   12.1875   11.8832   12.0355   12.2702   12.4510
   12.5061   12.4468   12.4383   12.4639   12.4039   12.3800
   12.5318   12.7567   12.5061   12.4510   12.2702   12.0355
   11.8832   12.1875   12.4513   12.6682   12.8030   12.7567
   12.5318   12.3800   12.4039   12.4639   12.4383   12.4468
   12.5061   12.6739   12.5649   12.3638   12.1666   12.1998
   12.5562   12.9467   13.2627   13.4604   13.4082   12.9712
   12.5399   12.3800   12.4383   12.5265   12.6031   12.6739
   12.6897   12.7858   12.7762   12.4782   12.4482   12.8112
   13.3223   13.7976   14.1323   14.2203   13.6688   12.9712
   12.5318   12.4468   12.6031   12.6955   12.6897   12.5994
   12.6440   12.8185   12.7171   12.5572   12.8581   13.4276
   14.0304   14.5137   14.6384   14.2203   13.4082   12.7567
   12.5061   12.6739   12.6897   12.5994   12.6685   12.6955
   12.8446   12.5719   12.3828   12.5308   12.9528   13.4276
   13.8640   14.2203   14.3706   13.6308   12.9186   12.6040
   12.5785   12.6758   12.6685   12.6955   12.6897   12.7858