 BEGIN_INFO
   #
   # this is a Band-XCRYSDEN-Structure-File
   # aimed at Visualization of Fermi Surface
   #
   # Case:   ni_fsdw.bxsf
   #
 Fermi Energy:         15.3269
 END_INFO
 BEGIN_BLOCK_BANDGRID_3D
 band_energies
 BANDGRID_3D_BANDS
    4
   17   17   17
  0.000000  0.000000  0.000000
 -1.000000 -1.000000  1.000000
  1.000000  1.000000  1.000000
 -1.000000  1.000000 -1.000000
BAND:   3
   13.3773   13.4172   13.5155   13.6039   13.6015   13.5162
   13.4117   13.3337   13.3053   13.3337   13.4117   13.5162
   13.6015   13.6039   13.5155   13.4172   13.3773   13.4172
   13.4435   13.5320   13.6267   13.6200   13.5082   13.3886
   13.4298   13.3764   13.3773   13.4343   13.4363   13.5520
   13.6162   13.5861   13.4753   13.4172   13.5155   13.5320
   13.6389   13.7457   13.6693   13.4761   13.3042   13.3213
   13.5840   13.5552   13.4198   13.2390   13.4034   13.5508
   13.6194   13.5861   13.5155   13.6039   13.6267   13.7457
   13.9525   13.7694   13.5166   13.2983   13.1942   13.2751
   13.3534   13.1866   12.9525   13.1524   13.3825   13.5508
   13.6162   13.6039   13.6015   13.6200   13.6693   13.7694
   13.8446   13.7381   13.5604   13.4040   13.3079   13.2278
   13.0471   12.7537   12.8405   13.1524   13.4034   13.5520
   13.6015   13.5162   13.5082   13.4761   13.5166   13.7381
   14.1313   14.2252   14.0496   13.8082   13.5279   13.2026
   12.8766   12.7537   12.9525   13.2390   13.4363   13.5162
   13.4117   13.3886   13.3042   13.2983   13.5604   14.2252
   15.2610   14.9695   14.5809   14.1242   13.6328   13.2026
   13.0471   13.1866   13.4198   13.4343   13.4117   13.3337
   13.4298   13.3213   13.1942   13.4040   14.0496   14.9695
   15.4227   15.3464   14.7809   14.1242   13.5279   13.2278
   13.3534   13.5552   13.3773   13.3337   13.3053   13.3764
   13.5840   13.2751   13.3079   13.8082   14.5809   15.3464
   15.4556   15.3464   14.5809   13.8082   13.3079   13.2751
   13.5840   13.3764   13.3053   13.3337   13.3773   13.5552
   13.3534   13.2278   13.5279   14.1242   14.7809   15.3464
   15.4227   14.9695   14.0496   13.4040   13.1942   13.3213
   13.4298   13.3337   13.4117   13.4343   13.4198   13.1866
   13.0471   13.2026   13.6328   14.1242   14.5809   14.9695
   15.2610   14.2252   13.5604   13.2983   13.3042   13.3886
   13.4117   13.5162   13.4363   13.2390   12.9525   12.7537
   12.8766   13.2026   13.5279   13.8082   14.0496   14.2252
   14.1313   13.7381   13.5166   13.4761   13.5082   13.5162
   13.6015   13.5520   13.4034   13.1524   12.8405   12.7537
   13.0471   13.2278   13.3079   13.4040   13.5604   13.7381
   13.8446   13.7694   13.6693   13.6200   13.6015   13.6039
   13.6162   13.5508   13.3825   13.1524   12.9525   13.1866
   13.3534   13.2751   13.1942   13.2983   13.5166   13.7694
   13.9525   13.7457   13.6267   13.6039   13.5155   13.5861
   13.6194   13.5508   13.4034   13.2390   13.4198   13.5552
   13.5840   13.3213   13.3042   13.4761   13.6693   13.7457
   13.6389   13.5320   13.5155   13.4172   13.4753   13.5861
   13.6162   13.5520   13.4363   13.4343   13.3773   13.3764
   13.4298   13.3886   13.5082   13.6200   13.6267   13.5320
   13.4435   13.4172   13.3773   13.4172   13.5155   13.6039
   13.6015   13.5162   13.4117   13.3337   13.3053   13.3337
   13.4117   13.5162   13.6015   13.6039   13.5155   13.4172
   13.3773   13.4172   13.4435   13.5320   13.6267   13.6200
   13.5082   13.3886   13.4298   13.3764   13.3773   13.4343
   13.4363   13.5520   13.6162   13.5861   13.4753   13.4172
   13.4435   13.4172   13.4753   13.5861   13.6162   13.5520
   13.4363   13.4343   13.3773   13.3764   13.4298   13.3886
   13.5082   13.6200   13.6267   13.5320   13.4435   13.5320
   13.4753   13.5320   13.6294   13.6469   13.5396   13.3778
   13.2814   13.5213   13.4991   13.5213   13.2814   13.3778
   13.5396   13.6469   13.6294   13.5320   13.6267   13.5861
   13.6294   13.7457   13.7301   13.5420   13.3185   13.1577
   13.2258   13.4339   13.3772   13.0908   13.1444   13.3526
   13.5445   13.6469   13.6267   13.6200   13.6162   13.6469
   13.7301   13.7694   13.6174   13.3989   13.2054   13.1240
   13.1678   13.1347   12.8949   12.8300   13.0942   13.3526
   13.5396   13.6200   13.5082   13.5520   13.5396   13.5420
   13.6174   13.7381   13.7356   13.6080   13.4512   13.3009
   13.1202   12.8481   12.5878   12.8300   13.1444   13.3778
   13.5082   13.3886   13.4363   13.3778   13.3185   13.3989
   13.7356   14.2252   14.3292   14.1371   13.8449   13.4878
   13.1028   12.8481   12.8949   13.0908   13.2814   13.3886
   13.4298   13.4343   13.2814   13.1577   13.2054   13.6080
   14.3292   14.9695   14.8933   14.5271   14.0212   13.4878
   13.1202   13.1347   13.3772   13.5213   13.4298   13.3764
   13.3773   13.5213   13.2258   13.1240   13.4512   14.1371
   14.8933   15.3464   15.1173   14.5271   13.8449   13.3009
   13.1678   13.4339   13.4991   13.3764   13.3773   13.3764
   13.4991   13.4339   13.1678   13.3009   13.8449   14.5271
   15.1173   15.3464   14.8933   14.1371   13.4512   13.1240
   13.2258   13.5213   13.3773   13.4343   13.4298   13.5213
   13.3772   13.1347   13.1202   13.4878   14.0212   14.5271
   14.8933   14.9695   14.3292   13.6080   13.2054   13.1577
   13.2814   13.4343   13.4363   13.3886   13.2814   13.0908
   12.8949   12.8481   13.1028   13.4878   13.8449   14.1371
   14.3292   14.2252   13.7356   13.3989   13.3185   13.3778
   13.4363   13.5520   13.5082   13.3778   13.1444   12.8300
   12.5878   12.8481   13.1202   13.3009   13.4512   13.6080
   13.7356   13.7381   13.6174   13.5420   13.5396   13.5520
   13.6162   13.6200   13.5396   13.3526   13.0942   12.8300
   12.8949   13.1347   13.1678   13.1240   13.2054   13.3989
   13.6174   13.7694   13.7301   13.6469   13.6162   13.5861
   13.6267   13.6469   13.5445   13.3526   13.1444   13.0908
   13.3772   13.4339   13.2258   13.1577   13.3185   13.5420
   13.7301   13.7457   13.6294   13.5861   13.4753   13.5320
   13.6294   13.6469   13.5396   13.3778   13.2814   13.5213
   13.4991   13.5213   13.2814   13.3778   13.5396   13.6469
   13.6294   13.5320   13.4753   13.4172   13.4435   13.5320
   13.6267   13.6200   13.5082   13.3886   13.4298   13.3764
   13.3773   13.4343   13.4363   13.5520   13.6162   13.5861
   13.4753   13.4172   13.5155   13.5320   13.6389   13.7457
   13.6693   13.4761   13.3042   13.3213   13.5840   13.5552
   13.4198   13.2390   13.4034   13.5508   13.6194   13.5861
   13.5155   13.5320   13.4753   13.5320   13.6294   13.6469
   13.5396   13.3778   13.2814   13.5213   13.4991   13.5213
   13.2814   13.3778   13.5396   13.6469   13.6294   13.5320
   13.6389   13.5320   13.5155   13.5861   13.6194   13.5508
   13.4034   13.2390   13.4198   13.5552   13.5840   13.3213
   13.3042   13.4761   13.6693   13.7457   13.6389   13.7457
   13.6294   13.5861   13.6267   13.6469   13.5445   13.3526
   13.1444   13.0908   13.3772   13.4339   13.2258   13.1577
   13.3185   13.5420   13.7301   13.7457   13.6693   13.6469
   13.6194   13.6469   13.6693   13.5420   13.3188   13.0737
   12.9149   13.0289   13.1524   13.0289   12.9149   13.0737
   13.3188   13.5420   13.6693   13.4761   13.5396   13.5508
   13.5445   13.5420   13.5166   13.3989   13.2067   13.0169
   12.9329   12.9446   12.8354   12.6264   12.7859   13.0737
   13.3185   13.4761   13.3042   13.3778   13.4034   13.3526
   13.3188   13.3989   13.5604   13.6080   13.4979   13.3233
   13.1240   12.8715   12.5760   12.6264   12.9149   13.1577
   13.3042   13.3213   13.2814   13.2390   13.1444   13.0737
   13.2067   13.6080   14.0496   14.1371   13.9492   13.6305
   13.2325   12.8715   12.8354   13.0289   13.2258   13.3213
   13.5840   13.5213   13.4198   13.0908   12.9149   13.0169
   13.4979   14.1371   14.5809   14.5271   14.1554   13.6305
   13.1240   12.9446   13.1524   13.4339   13.5840   13.5552
   13.4991   13.5552   13.3772   13.0289   12.9329   13.3233
   13.9492   14.5271   14.7809   14.5271   13.9492   13.3233
   12.9329   13.0289   13.3772   13.5552   13.4198   13.5213
   13.5840   13.4339   13.1524   12.9446   13.1240   13.6305
   14.1554   14.5271   14.5809   14.1371   13.4979   13.0169
   12.9149   13.0908   13.4198   13.2390   13.2814   13.3213
   13.2258   13.0289   12.8354   12.8715   13.2325   13.6305
   13.9492   14.1371   14.0496   13.6080   13.2067   13.0737
   13.1444   13.2390   13.4034   13.3778   13.3042   13.1577
   12.9149   12.6264   12.5760   12.8715   13.1240   13.3233
   13.4979   13.6080   13.5604   13.3989   13.3188   13.3526
   13.4034   13.5508   13.5396   13.4761   13.3185   13.0737
   12.7859   12.6264   12.8354   12.9446   12.9329   13.0169
   13.2067   13.3989   13.5166   13.5420   13.5445   13.5508
   13.6194   13.6469   13.6693   13.5420   13.3188   13.0737
   12.9149   13.0289   13.1524   13.0289   12.9149   13.0737
   13.3188   13.5420   13.6693   13.6469   13.6194   13.5861
   13.6294   13.7457   13.7301   13.5420   13.3185   13.1577
   13.2258   13.4339   13.3772   13.0908   13.1444   13.3526
   13.5445   13.6469   13.6267   13.5861   13.5155   13.5320
   13.6389   13.7457   13.6693   13.4761   13.3042   13.3213
   13.5840   13.5552   13.4198   13.2390   13.4034   13.5508
   13.6194   13.5861   13.5155   13.6039   13.6267   13.7457
   13.9525   13.7694   13.5166   13.2983   13.1942   13.2751
   13.3534   13.1866   12.9525   13.1524   13.3825   13.5508
   13.6162   13.6039   13.6267   13.5861   13.6294   13.7457
   13.7301   13.5420   13.3185   13.1577   13.2258   13.4339
   13.3772   13.0908   13.1444   13.3526   13.5445   13.6469
   13.6267   13.7457   13.6294   13.5861   13.6267   13.6469
   13.5445   13.3526   13.1444   13.0908   13.3772   13.4339
   13.2258   13.1577   13.3185   13.5420   13.7301   13.7457
   13.9525   13.7457   13.6267   13.6039   13.6162   13.5508
   13.3825   13.1524   12.9525   13.1866   13.3534   13.2751
   13.1942   13.2983   13.5166   13.7694   13.9525   13.7694
   13.7301   13.6469   13.6162   13.6200   13.5396   13.3526
   13.0942   12.8300   12.8949   13.1347   13.1678   13.1240
   13.2054   13.3989   13.6174   13.7694   13.5166   13.5420
   13.5445   13.5508   13.5396   13.4761   13.3185   13.0737
   12.7859   12.6264   12.8354   12.9446   12.9329   13.0169
   13.2067   13.3989   13.5166   13.2983   13.3185   13.3526
   13.3825   13.3526   13.3185   13.2983   13.2054   13.0169
   12.8016   12.6904   12.7075   12.6904   12.8016   13.0169
   13.2054   13.2983   13.1942   13.1577   13.1444   13.1524
   13.0942   13.0737   13.2054   13.4040   13.4512   13.3233
   13.1124   12.8557   12.5527   12.6904   12.9329   13.1240
   13.1942   13.2751   13.2258   13.0908   12.9525   12.8300
   12.7859   13.0169   13.4512   13.8082   13.8449   13.6305
   13.2726   12.8557   12.7075   12.9446   13.1678   13.2751
   13.3534   13.4339   13.3772   13.1866   12.8949   12.6264
   12.8016   13.3233   13.8449   14.1242   14.0212   13.6305
   13.1124   12.6904   12.8354   13.1347   13.3534   13.1866
   13.3772   13.4339   13.3534   13.1347   12.8354   12.6904
   13.1124   13.6305   14.0212   14.1242   13.8449   13.3233
   12.8016   12.6264   12.8949   13.1866   12.9525   13.0908
   13.2258   13.2751   13.1678   12.9446   12.7075   12.8557
   13.2726   13.6305   13.8449   13.8082   13.4512   13.0169
   12.7859   12.8300   12.9525   13.1524   13.1444   13.1577
   13.1942   13.1240   12.9329   12.6904   12.5527   12.8557
   13.1124   13.3233   13.4512   13.4040   13.2054   13.0737
   13.0942   13.1524   13.3825   13.3526   13.3185   13.2983
   13.2054   13.0169   12.8016   12.6904   12.7075   12.6904
   12.8016   13.0169   13.2054   13.2983   13.3185   13.3526
   13.3825   13.5508   13.5445   13.5420   13.5166   13.3989
   13.2067   13.0169   12.9329   12.9446   12.8354   12.6264
   12.7859   13.0737   13.3185   13.4761   13.5396   13.5508
   13.6162   13.6469   13.7301   13.7694   13.6174   13.3989
   13.2054   13.1240   13.1678   13.1347   12.8949   12.8300
   13.0942   13.3526   13.5396   13.6200   13.6162   13.6039
   13.6267   13.7457   13.9525   13.7694   13.5166   13.2983
   13.1942   13.2751   13.3534   13.1866   12.9525   13.1524
   13.3825   13.5508   13.6162   13.6039   13.6015   13.6200
   13.6693   13.7694   13.8446   13.7381   13.5604   13.4040
   13.3079   13.2278   13.0471   12.7537   12.8405   13.1524
   13.4034   13.5520   13.6015   13.6200   13.6162   13.6469
   13.7301   13.7694   13.6174   13.3989   13.2054   13.1240
   13.1678   13.1347   12.8949   12.8300   13.0942   13.3526
   13.5396   13.6200   13.6693   13.6469   13.6194   13.6469
   13.6693   13.5420   13.3188   13.0737   12.9149   13.0289
   13.1524   13.0289   12.9149   13.0737   13.3188   13.5420
   13.6693   13.7694   13.7301   13.6469   13.6162   13.6200
   13.5396   13.3526   13.0942   12.8300   12.8949   13.1347
   13.1678   13.1240   13.2054   13.3989   13.6174   13.7694
   13.8446   13.7694   13.6693   13.6200   13.6015   13.5520
   13.4034   13.1524   12.8405   12.7537   13.0471   13.2278
   13.3079   13.4040   13.5604   13.7381   13.8446   13.7381
   13.6174   13.5420   13.5396   13.5520   13.5082   13.3778
   13.1444   12.8300   12.5878   12.8481   13.1202   13.3009
   13.4512   13.6080   13.7356   13.7381   13.5604   13.3989
   13.3188   13.3526   13.4034   13.3778   13.3042   13.1577
   12.9149   12.6264   12.5760   12.8715   13.1240   13.3233
   13.4979   13.6080   13.5604   13.4040   13.2054   13.0737
   13.0942   13.1524   13.1444   13.1577   13.1942   13.1240
   12.9329   12.6904   12.5527   12.8557   13.1124   13.3233
   13.4512   13.4040   13.3079   13.1240   12.9149   12.8300
   12.8405   12.8300   12.9149   13.1240   13.3079   13.3009
   13.1240   12.8557   12.5415   12.8557   13.1240   13.3009
   13.3079   13.2278   13.1678   13.0289   12.8949   12.7537
   12.5878   12.6264   12.9329   13.3009   13.5279   13.4878
   13.2325   12.8557   12.5527   12.8715   13.1202   13.2278
   13.0471   13.1347   13.1524   13.1347   13.0471   12.8481
   12.5760   12.6904   13.1240   13.4878   13.6328   13.4878
   13.1240   12.6904   12.5760   12.8481   13.0471   12.7537
   12.8949   13.0289   13.1678   13.2278   13.1202   12.8715
   12.5527   12.8557   13.2325   13.4878   13.5279   13.3009
   12.9329   12.6264   12.5878   12.7537   12.8405   12.8300
   12.9149   13.1240   13.3079   13.3009   13.1240   12.8557
   12.5415   12.8557   13.1240   13.3009   13.3079   13.1240
   12.9149   12.8300   12.8405   13.1524   13.0942   13.0737
   13.2054   13.4040   13.4512   13.3233   13.1124   12.8557
   12.5527   12.6904   12.9329   13.1240   13.1942   13.1577
   13.1444   13.1524   13.4034   13.3526   13.3188   13.3989
   13.5604   13.6080   13.4979   13.3233   13.1240   12.8715
   12.5760   12.6264   12.9149   13.1577   13.3042   13.3778
   13.4034   13.5520   13.5396   13.5420   13.6174   13.7381
   13.7356   13.6080   13.4512   13.3009   13.1202   12.8481
   12.5878   12.8300   13.1444   13.3778   13.5082   13.5520
   13.6015   13.6200   13.6693   13.7694   13.8446   13.7381
   13.5604   13.4040   13.3079   13.2278   13.0471   12.7537
   12.8405   13.1524   13.4034   13.5520   13.6015   13.5162
   13.5082   13.4761   13.5166   13.7381   14.1313   14.2252
   14.0496   13.8082   13.5279   13.2026   12.8766   12.7537
   12.9525   13.2390   13.4363   13.5162   13.5082   13.5520
   13.5396   13.5420   13.6174   13.7381   13.7356   13.6080
   13.4512   13.3009   13.1202   12.8481   12.5878   12.8300
   13.1444   13.3778   13.5082   13.4761   13.5396   13.5508
   13.5445   13.5420   13.5166   13.3989   13.2067   13.0169
   12.9329   12.9446   12.8354   12.6264   12.7859   13.0737
   13.3185   13.4761   13.5166   13.5420   13.5445   13.5508
   13.5396   13.4761   13.3185   13.0737   12.7859   12.6264
   12.8354   12.9446   12.9329   13.0169   13.2067   13.3989
   13.5166   13.7381   13.6174   13.5420   13.5396   13.5520
   13.5082   13.3778   13.1444   12.8300   12.5878   12.8481
   13.1202   13.3009   13.4512   13.6080   13.7356   13.7381
   14.1313   13.7381   13.5166   13.4761   13.5082   13.5162
   13.4363   13.2390   12.9525   12.7537   12.8766   13.2026
   13.5279   13.8082   14.0496   14.2252   14.1313   14.2252
   13.7356   13.3989   13.3185   13.3778   13.4363   13.3886
   13.2814   13.0908   12.8949   12.8481   13.1028   13.4878
   13.8449   14.1371   14.3292   14.2252   14.0496   13.6080
   13.2067   13.0737   13.1444   13.2390   13.2814   13.3213
   13.2258   13.0289   12.8354   12.8715   13.2325   13.6305
   13.9492   14.1371   14.0496   13.8082   13.4512   13.0169
   12.7859   12.8300   12.9525   13.0908   13.2258   13.2751
   13.1678   12.9446   12.7075   12.8557   13.2726   13.6305
   13.8449   13.8082   13.5279   13.3009   12.9329   12.6264
   12.5878   12.7537   12.8949   13.0289   13.1678   13.2278
   13.1202   12.8715   12.5527   12.8557   13.2325   13.4878
   13.5279   13.2026   13.1202   12.9446   12.8354   12.8481
   12.8766   12.8481   12.8354   12.9446   13.1202   13.2026
   13.1028   12.8715   12.7075   12.8715   13.1028   13.2026
   12.8766   12.8481   12.8354   12.9446   13.1202   13.2026
   13.1028   12.8715   12.7075   12.8715   13.1028   13.2026
   13.1202   12.9446   12.8354   12.8481   12.8766   12.7537
   12.5878   12.6264   12.9329   13.3009   13.5279   13.4878
   13.2325   12.8557   12.5527   12.8715   13.1202   13.2278
   13.1678   13.0289   12.8949   12.7537   12.9525   12.8300
   12.7859   13.0169   13.4512   13.8082   13.8449   13.6305
   13.2726   12.8557   12.7075   12.9446   13.1678   13.2751
   13.2258   13.0908   12.9525   13.2390   13.1444   13.0737
   13.2067   13.6080   14.0496   14.1371   13.9492   13.6305
   13.2325   12.8715   12.8354   13.0289   13.2258   13.3213
   13.2814   13.2390   13.4363   13.3778   13.3185   13.3989
   13.7356   14.2252   14.3292   14.1371   13.8449   13.4878
   13.1028   12.8481   12.8949   13.0908   13.2814   13.3886
   13.4363   13.5162   13.5082   13.4761   13.5166   13.7381
   14.1313   14.2252   14.0496   13.8082   13.5279   13.2026
   12.8766   12.7537   12.9525   13.2390   13.4363   13.5162
   13.4117   13.3886   13.3042   13.2983   13.5604   14.2252
   15.2610   14.9695   14.5809   14.1242   13.6328   13.2026
   13.0471   13.1866   13.4198   13.4343   13.4117   13.3886
   13.4363   13.3778   13.3185   13.3989   13.7356   14.2252
   14.3292   14.1371   13.8449   13.4878   13.1028   12.8481
   12.8949   13.0908   13.2814   13.3886   13.3042   13.3778
   13.4034   13.3526   13.3188   13.3989   13.5604   13.6080
   13.4979   13.3233   13.1240   12.8715   12.5760   12.6264
   12.9149   13.1577   13.3042   13.2983   13.3185   13.3526
   13.3825   13.3526   13.3185   13.2983   13.2054   13.0169
   12.8016   12.6904   12.7075   12.6904   12.8016   13.0169
   13.2054   13.2983   13.5604   13.3989   13.3188   13.3526
   13.4034   13.3778   13.3042   13.1577   12.9149   12.6264
   12.5760   12.8715   13.1240   13.3233   13.4979   13.6080
   13.5604   14.2252   13.7356   13.3989   13.3185   13.3778
   13.4363   13.3886   13.2814   13.0908   12.8949   12.8481
   13.1028   13.4878   13.8449   14.1371   14.3292   14.2252
   15.2610   14.2252   13.5604   13.2983   13.3042   13.3886
   13.4117   13.4343   13.4198   13.1866   13.0471   13.2026
   13.6328   14.1242   14.5809   14.9695   15.2610   14.9695
   14.3292   13.6080   13.2054   13.1577   13.2814   13.4343
   13.4298   13.5213   13.3772   13.1347   13.1202   13.4878
   14.0212   14.5271   14.8933   14.9695   14.5809   14.1371
   13.4979   13.0169   12.9149   13.0908   13.4198   13.5213
   13.5840   13.4339   13.1524   12.9446   13.1240   13.6305
   14.1554   14.5271   14.5809   14.1242   13.8449   13.3233
   12.8016   12.6264   12.8949   13.1866   13.3772   13.4339
   13.3534   13.1347   12.8354   12.6904   13.1124   13.6305
   14.0212   14.1242   13.6328   13.4878   13.1240   12.6904
   12.5760   12.8481   13.0471   13.1347   13.1524   13.1347
   13.0471   12.8481   12.5760   12.6904   13.1240   13.4878
   13.6328   13.2026   13.1028   12.8715   12.7075   12.8715
   13.1028   13.2026   13.1202   12.9446   12.8354   12.8481
   12.8766   12.8481   12.8354   12.9446   13.1202   13.2026
   13.0471   12.8481   12.5760   12.6904   13.1240   13.4878
   13.6328   13.4878   13.1240   12.6904   12.5760   12.8481
   13.0471   13.1347   13.1524   13.1347   13.0471   13.1866
   12.8949   12.6264   12.8016   13.3233   13.8449   14.1242
   14.0212   13.6305   13.1124   12.6904   12.8354   13.1347
   13.3534   13.4339   13.3772   13.1866   13.4198   13.0908
   12.9149   13.0169   13.4979   14.1371   14.5809   14.5271
   14.1554   13.6305   13.1240   12.9446   13.1524   13.4339
   13.5840   13.5213   13.4198   13.4343   13.2814   13.1577
   13.2054   13.6080   14.3292   14.9695   14.8933   14.5271
   14.0212   13.4878   13.1202   13.1347   13.3772   13.5213
   13.4298   13.4343   13.4117   13.3886   13.3042   13.2983
   13.5604   14.2252   15.2610   14.9695   14.5809   14.1242
   13.6328   13.2026   13.0471   13.1866   13.4198   13.4343
   13.4117   13.3337   13.4298   13.3213   13.1942   13.4040
   14.0496   14.9695   15.4227   15.3464   14.7809   14.1242
   13.5279   13.2278   13.3534   13.5552   13.3773   13.3337
   13.4298   13.4343   13.2814   13.1577   13.2054   13.6080
   14.3292   14.9695   14.8933   14.5271   14.0212   13.4878
   13.1202   13.1347   13.3772   13.5213   13.4298   13.3213
   13.2814   13.2390   13.1444   13.0737   13.2067   13.6080
   14.0496   14.1371   13.9492   13.6305   13.2325   12.8715
   12.8354   13.0289   13.2258   13.3213   13.1942   13.1577
   13.1444   13.1524   13.0942   13.0737   13.2054   13.4040
   13.4512   13.3233   13.1124   12.8557   12.5527   12.6904
   12.9329   13.1240   13.1942   13.4040   13.2054   13.0737
   13.0942   13.1524   13.1444   13.1577   13.1942   13.1240
   12.9329   12.6904   12.5527   12.8557   13.1124   13.3233
   13.4512   13.4040   14.0496   13.6080   13.2067   13.0737
   13.1444   13.2390   13.2814   13.3213   13.2258   13.0289
   12.8354   12.8715   13.2325   13.6305   13.9492   14.1371
   14.0496   14.9695   14.3292   13.6080   13.2054   13.1577
   13.2814   13.4343   13.4298   13.5213   13.3772   13.1347
   13.1202   13.4878   14.0212   14.5271   14.8933   14.9695
   15.4227   14.9695   14.0496   13.4040   13.1942   13.3213
   13.4298   13.3337   13.3773   13.5552   13.3534   13.2278
   13.5279   14.1242   14.7809   15.3464   15.4227   15.3464
   14.8933   14.1371   13.4512   13.1240   13.2258   13.5213
   13.3773   13.3764   13.4991   13.4339   13.1678   13.3009
   13.8449   14.5271   15.1173   15.3464   14.7809   14.5271
   13.9492   13.3233   12.9329   13.0289   13.3772   13.5552
   13.4991   13.5552   13.3772   13.0289   12.9329   13.3233
   13.9492   14.5271   14.7809   14.1242   14.0212   13.6305
   13.1124   12.6904   12.8354   13.1347   13.3534   13.4339
   13.3772   13.1866   12.8949   12.6264   12.8016   13.3233
   13.8449   14.1242   13.5279   13.4878   13.2325   12.8557
   12.5527   12.8715   13.1202   13.2278   13.1678   13.0289
   12.8949   12.7537   12.5878   12.6264   12.9329   13.3009
   13.5279   13.2278   13.1202   12.8715   12.5527   12.8557
   13.2325   13.4878   13.5279   13.3009   12.9329   12.6264
   12.5878   12.7537   12.8949   13.0289   13.1678   13.2278
   13.3534   13.1347   12.8354   12.6904   13.1124   13.6305
   14.0212   14.1242   13.8449   13.3233   12.8016   12.6264
   12.8949   13.1866   13.3772   13.4339   13.3534   13.5552
   13.3772   13.0289   12.9329   13.3233   13.9492   14.5271
   14.7809   14.5271   13.9492   13.3233   12.9329   13.0289
   13.3772   13.5552   13.4991   13.5552   13.3773   13.5213
   13.2258   13.1240   13.4512   14.1371   14.8933   15.3464
   15.1173   14.5271   13.8449   13.3009   13.1678   13.4339
   13.4991   13.3764   13.3773   13.3337   13.4298   13.3213
   13.1942   13.4040   14.0496   14.9695   15.4227   15.3464
   14.7809   14.1242   13.5279   13.2278   13.3534   13.5552
   13.3773   13.3337   13.3053   13.3764   13.5840   13.2751
   13.3079   13.8082   14.5809   15.3464   15.4556   15.3464
   14.5809   13.8082   13.3079   13.2751   13.5840   13.3764
   13.3053   13.3764   13.3773   13.5213   13.2258   13.1240
   13.4512   14.1371   14.8933   15.3464   15.1173   14.5271
   13.8449   13.3009   13.1678   13.4339   13.4991   13.3764
   13.5840   13.5213   13.4198   13.0908   12.9149   13.0169
   13.4979   14.1371   14.5809   14.5271   14.1554   13.6305
   13.1240   12.9446   13.1524   13.4339   13.5840   13.2751
   13.2258   13.0908   12.9525   12.8300   12.7859   13.0169
   13.4512   13.8082   13.8449   13.6305   13.2726   12.8557
   12.7075   12.9446   13.1678   13.2751   13.3079   13.1240
   12.9149   12.8300   12.8405   12.8300   12.9149   13.1240
   13.3079   13.3009   13.1240   12.8557   12.5415   12.8557
   13.1240   13.3009   13.3079   13.8082   13.4512   13.0169
   12.7859   12.8300   12.9525   13.0908   13.2258   13.2751
   13.1678   12.9446   12.7075   12.8557   13.2726   13.6305
   13.8449   13.8082   14.5809   14.1371   13.4979   13.0169
   12.9149   13.0908   13.4198   13.5213   13.5840   13.4339
   13.1524   12.9446   13.1240   13.6305   14.1554   14.5271
   14.5809   15.3464   14.8933   14.1371   13.4512   13.1240
   13.2258   13.5213   13.3773   13.3764   13.4991   13.4339
   13.1678   13.3009   13.8449   14.5271   15.1173   15.3464
   15.4556   15.3464   14.5809   13.8082   13.3079   13.2751
   13.5840   13.3764   13.3053   13.3764   13.5840   13.2751
   13.3079   13.8082   14.5809   15.3464   15.4556   15.3464
   15.1173   14.5271   13.8449   13.3009   13.1678   13.4339
   13.4991   13.3764   13.3773   13.5213   13.2258   13.1240
   13.4512   14.1371   14.8933   15.3464   14.5809   14.5271
   14.1554   13.6305   13.1240   12.9446   13.1524   13.4339
   13.5840   13.5213   13.4198   13.0908   12.9149   13.0169
   13.4979   14.1371   14.5809   13.8082   13.8449   13.6305
   13.2726   12.8557   12.7075   12.9446   13.1678   13.2751
   13.2258   13.0908   12.9525   12.8300   12.7859   13.0169
   13.4512   13.8082   13.3079   13.3009   13.1240   12.8557
   12.5415   12.8557   13.1240   13.3009   13.3079   13.1240
   12.9149   12.8300   12.8405   12.8300   12.9149   13.1240
   13.3079   13.2751   13.1678   12.9446   12.7075   12.8557
   13.2726   13.6305   13.8449   13.8082   13.4512   13.0169
   12.7859   12.8300   12.9525   13.0908   13.2258   13.2751
   13.5840   13.4339   13.1524   12.9446   13.1240   13.6305
   14.1554   14.5271   14.5809   14.1371   13.4979   13.0169
   12.9149   13.0908   13.4198   13.5213   13.5840   13.3764
   13.4991   13.4339   13.1678   13.3009   13.8449   14.5271
   15.1173   15.3464   14.8933   14.1371   13.4512   13.1240
   13.2258   13.5213   13.3773   13.3764   13.3053   13.3764
   13.5840   13.2751   13.3079   13.8082   14.5809   15.3464
   15.4556   15.3464   14.5809   13.8082   13.3079   13.2751
   13.5840   13.3764   13.3053   13.3337   13.3773   13.5552
   13.3534   13.2278   13.5279   14.1242   14.7809   15.3464
   15.4227   14.9695   14.0496   13.4040   13.1942   13.3213
   13.4298   13.3337   13.3773   13.3764   13.4991   13.4339
   13.1678   13.3009   13.8449   14.5271   15.1173   15.3464
   14.8933   14.1371   13.4512   13.1240   13.2258   13.5213
   13.3773   13.5552   13.4991   13.5552   13.3772   13.0289
   12.9329   13.3233   13.9492   14.5271   14.7809   14.5271
   13.9492   13.3233   12.9329   13.0289   13.3772   13.5552
   13.3534   13.4339   13.3772   13.1866   12.8949   12.6264
   12.8016   13.3233   13.8449   14.1242   14.0212   13.6305
   13.1124   12.6904   12.8354   13.1347   13.3534   13.2278
   13.1678   13.0289   12.8949   12.7537   12.5878   12.6264
   12.9329   13.3009   13.5279   13.4878   13.2325   12.8557
   12.5527   12.8715   13.1202   13.2278   13.5279   13.3009
   12.9329   12.6264   12.5878   12.7537   12.8949   13.0289
   13.1678   13.2278   13.1202   12.8715   12.5527   12.8557
   13.2325   13.4878   13.5279   14.1242   13.8449   13.3233
   12.8016   12.6264   12.8949   13.1866   13.3772   13.4339
   13.3534   13.1347   12.8354   12.6904   13.1124   13.6305
   14.0212   14.1242   14.7809   14.5271   13.9492   13.3233
   12.9329   13.0289   13.3772   13.5552   13.4991   13.5552
   13.3772   13.0289   12.9329   13.3233   13.9492   14.5271
   14.7809   15.3464   15.1173   14.5271   13.8449   13.3009
   13.1678   13.4339   13.4991   13.3764   13.3773   13.5213
   13.2258   13.1240   13.4512   14.1371   14.8933   15.3464
   15.4227   15.3464   14.7809   14.1242   13.5279   13.2278
   13.3534   13.5552   13.3773   13.3337   13.4298   13.3213
   13.1942   13.4040   14.0496   14.9695   15.4227   14.9695
   14.8933   14.5271   14.0212   13.4878   13.1202   13.1347
   13.3772   13.5213   13.4298   13.4343   13.2814   13.1577
   13.2054   13.6080   14.3292   14.9695   14.0496   14.1371
   13.9492   13.6305   13.2325   12.8715   12.8354   13.0289
   13.2258   13.3213   13.2814   13.2390   13.1444   13.0737
   13.2067   13.6080   14.0496   13.4040   13.4512   13.3233
   13.1124   12.8557   12.5527   12.6904   12.9329   13.1240
   13.1942   13.1577   13.1444   13.1524   13.0942   13.0737
   13.2054   13.4040   13.1942   13.1240   12.9329   12.6904
   12.5527   12.8557   13.1124   13.3233   13.4512   13.4040
   13.2054   13.0737   13.0942   13.1524   13.1444   13.1577
   13.1942   13.3213   13.2258   13.0289   12.8354   12.8715
   13.2325   13.6305   13.9492   14.1371   14.0496   13.6080
   13.2067   13.0737   13.1444   13.2390   13.2814   13.3213
   13.4298   13.5213   13.3772   13.1347   13.1202   13.4878
   14.0212   14.5271   14.8933   14.9695   14.3292   13.6080
   13.2054   13.1577   13.2814   13.4343   13.4298   13.3337
   13.3773   13.5552   13.3534   13.2278   13.5279   14.1242
   14.7809   15.3464   15.4227   14.9695   14.0496   13.4040
   13.1942   13.3213   13.4298   13.3337   13.4117   13.4343
   13.4198   13.1866   13.0471   13.2026   13.6328   14.1242
   14.5809   14.9695   15.2610   14.2252   13.5604   13.2983
   13.3042   13.3886   13.4117   13.4343   13.4298   13.5213