
     Program PHONON v.5.0.2 (svn rev. 9400) starts on  6Dec2012 at 16:11:20 

     This program is part of the open-source Quantum ESPRESSO suite
     for quantum simulation of materials; please cite
         "P. Giannozzi et al., J. Phys.:Condens. Matter 21 395502 (2009);
          URL http://www.quantum-espresso.org", 
     in publications or presentations arising from this work. More details at
     http://www.quantum-espresso.org/quote.php

     Serial version

     Ultrasoft (Vanderbilt) Pseudopotentials

   Info: using nr1, nr2, nr3 values from input

   Info: using nr1s, nr2s, nr3s values from input

     IMPORTANT: XC functional enforced from input :
     Exchange-correlation      =  SLA  PZ   NOGX NOGC ( 1 1 0 0 0)
     EXX-fraction              =        0.00
     Any further DFT definition will be discarded
     Please, verify this is what you really want

 
     G-vector sticks info
     --------------------
     sticks:   dense  smooth     PW     G-vecs:    dense   smooth      PW
     Sum         475     223     73                 6855     2229     411
 

     Check: negative/imaginary core charge=   -0.000004    0.000000

     Calculation of q =    0.0000000   0.0000000   0.0000000

                                                                                

     bravais-lattice index     =            2
     lattice parameter (alat)  =       7.4200  a.u.
     unit-cell volume          =     102.1296 (a.u.)^3
     number of atoms/cell      =            1
     number of atomic types    =            1
     kinetic-energy cut-off    =      30.0000  Ry
     charge density cut-off    =     250.0000  Ry
     convergence threshold     =      1.0E-16
     beta                      =       0.7000
     number of iterations used =            4
     Exchange-correlation      =  SLA  PZ   NOGX NOGC ( 1 1 0 0 0)
     EXX-fraction              =        0.00
     Non magnetic calculation with spin-orbit

     celldm(1)=    7.42000  celldm(2)=    0.00000  celldm(3)=    0.00000
     celldm(4)=    0.00000  celldm(5)=    0.00000  celldm(6)=    0.00000

     crystal axes: (cart. coord. in units of alat)
               a(1) = ( -0.5000  0.0000  0.5000 )  
               a(2) = (  0.0000  0.5000  0.5000 )  
               a(3) = ( -0.5000  0.5000  0.0000 )  

     reciprocal axes: (cart. coord. in units 2 pi/alat)
               b(1) = ( -1.0000 -1.0000  1.0000 )  
               b(2) = (  1.0000  1.0000  1.0000 )  
               b(3) = ( -1.0000  1.0000 -1.0000 )  


     Atoms inside the unit cell: 

   Cartesian axes

     site n.  atom      mass           positions (alat units)
        1        Pt 195.0780   tau( 1) = (    0.00000    0.00000    0.00000  )

     Computing dynamical matrix for 
                    q = (   0.0000000   0.0000000   0.0000000 )
 
     49 Sym.Ops. (with q -> -q+G )


     G cutoff =  348.6487  (   6855 G-vectors)     FFT grid: ( 27, 27, 27)
     G cutoff =  167.3514  (   2229 G-vectors)  smooth grid: ( 20, 20, 20)

     number of k points=     2  Methfessel-Paxton smearing, width (Ry)=  0.0200
                       cart. coord. in units 2pi/alat
        k(    1) = (  -0.2500000   0.2500000   0.2500000), wk =   0.2500000
        k(    2) = (   0.2500000  -0.2500000   0.7500000), wk =   0.7500000

     PseudoPot. # 1 for Pt read from file:
     /home/giannozz/trunk/espresso/pseudo/Pt.rel-pz-n-rrkjus.UPF
     MD5 check sum: f261d1553bb6927df7ed64af71b3a5b8
     Pseudo is Ultrasoft + core correction, Zval = 10.0
     Generated by new atomic code, or converted to UPF format
     Using radial grid of 1277 points,  6 beta functions with: 
                l(1) =   2
                l(2) =   2
                l(3) =   2
                l(4) =   2
                l(5) =   1
                l(6) =   1
     Q(r) pseudized with 0 coefficients 



     Atomic displacements:
     There are   1 irreducible representations

     Representation     1      3 modes -T_1u G_15  G_4-  To be done



     Alpha used in Ewald sum =   2.6000
     PHONON       :     2.96s CPU         6.30s WALL



     Representation #  1 modes #   1  2  3

     Self-consistent Calculation
 
     Pert. #  1: Fermi energy shift (Ry) =    -0.1379E-24    -0.6269E-37
     Pert. #  2: Fermi energy shift (Ry) =    -0.3791E-24    -0.6269E-37
     Pert. #  3: Fermi energy shift (Ry) =     0.2757E-24    -0.3135E-37

      iter #   1 total cpu time :     7.1 secs   av.it.:   6.3
      thresh= 0.100E-01 alpha_mix =  0.700 |ddv_scf|^2 =  0.619E-06
 
     Pert. #  1: Fermi energy shift (Ry) =     0.0000E+00     0.1469E-38
     Pert. #  2: Fermi energy shift (Ry) =    -0.4136E-24    -0.7347E-39
     Pert. #  3: Fermi energy shift (Ry) =    -0.5515E-24    -0.4898E-39

      iter #   2 total cpu time :     8.2 secs   av.it.:  12.3
      thresh= 0.787E-04 alpha_mix =  0.700 |ddv_scf|^2 =  0.182E-07
 
     Pert. #  1: Fermi energy shift (Ry) =     0.2757E-24     0.6122E-40
     Pert. #  2: Fermi energy shift (Ry) =    -0.1379E-24     0.4592E-40
     Pert. #  3: Fermi energy shift (Ry) =     0.0000E+00     0.0000E+00

      iter #   3 total cpu time :     9.2 secs   av.it.:  11.5
      thresh= 0.135E-04 alpha_mix =  0.700 |ddv_scf|^2 =  0.697E-09
 
     Pert. #  1: Fermi energy shift (Ry) =    -0.1379E-24     0.0000E+00
     Pert. #  2: Fermi energy shift (Ry) =    -0.2068E-24     0.0000E+00
     Pert. #  3: Fermi energy shift (Ry) =     0.2757E-24     0.0000E+00

      iter #   4 total cpu time :    10.2 secs   av.it.:  10.3
      thresh= 0.264E-05 alpha_mix =  0.700 |ddv_scf|^2 =  0.197E-12
 
     Pert. #  1: Fermi energy shift (Ry) =     0.1379E-24    -0.3061E-40
     Pert. #  2: Fermi energy shift (Ry) =     0.3447E-25    -0.3061E-40
     Pert. #  3: Fermi energy shift (Ry) =     0.0000E+00    -0.1531E-40

      iter #   5 total cpu time :    11.1 secs   av.it.:  11.3
      thresh= 0.444E-07 alpha_mix =  0.700 |ddv_scf|^2 =  0.298E-14
 
     Pert. #  1: Fermi energy shift (Ry) =     0.0000E+00    -0.3061E-40
     Pert. #  2: Fermi energy shift (Ry) =    -0.2068E-24    -0.3061E-40
     Pert. #  3: Fermi energy shift (Ry) =     0.8272E-24    -0.1531E-40

      iter #   6 total cpu time :    11.9 secs   av.it.:   9.8
      thresh= 0.546E-08 alpha_mix =  0.700 |ddv_scf|^2 =  0.340E-16

     End of self-consistent calculation

     Convergence has been achieved 
 
     Number of q in the star =    1
     List of q in the star:
          1   0.000000000   0.000000000   0.000000000

     Diagonalizing the dynamical matrix

     q = (    0.000000000   0.000000000   0.000000000 ) 

 **************************************************************************
     omega( 1) =       0.176454 [THz] =       5.885881 [cm-1]
     omega( 2) =       0.176454 [THz] =       5.885881 [cm-1]
     omega( 3) =       0.176454 [THz] =       5.885881 [cm-1]
 **************************************************************************

     Mode symmetry, O_h (m-3m)  point group:

     omega(  1 -  3) =          5.9  [cm-1]   --> T_1u G_15  G_4- I  
 
     PHONON       :     7.70s CPU        11.96s WALL

     INITIALIZATION: 
     phq_setup    :      0.01s CPU      0.03s WALL (       1 calls)
     phq_init     :      1.58s CPU      2.54s WALL (       1 calls)
 
     phq_init     :      1.58s CPU      2.54s WALL (       1 calls)
     set_drhoc    :      0.75s CPU      1.27s WALL (       3 calls)
     init_vloc    :      0.00s CPU      0.00s WALL (       1 calls)
     init_us_1    :      0.89s CPU      2.39s WALL (       1 calls)
     newd         :      0.06s CPU      0.15s WALL (       1 calls)
     dvanqq       :      0.26s CPU      0.48s WALL (       1 calls)
     drho         :      0.43s CPU      0.47s WALL (       1 calls)
 
     DYNAMICAL MATRIX:
     dynmat0      :      0.54s CPU      0.63s WALL (       1 calls)
     phqscf       :      4.73s CPU      5.66s WALL (       1 calls)
     dynmatrix    :      0.01s CPU      0.01s WALL (       1 calls)
 
     phqscf       :      4.73s CPU      5.66s WALL (       1 calls)
     solve_linter :      4.71s CPU      5.63s WALL (       1 calls)
     drhodv       :      0.02s CPU      0.02s WALL (       1 calls)
 
     dynmat0      :      0.54s CPU      0.63s WALL (       1 calls)
     dynmat_us    :      0.04s CPU      0.04s WALL (       1 calls)
     d2ionq       :      0.00s CPU      0.00s WALL (       1 calls)
     dynmatcc     :      0.50s CPU      0.59s WALL (       1 calls)
 
     dynmat_us    :      0.04s CPU      0.04s WALL (       1 calls)
     addusdynmat  :      0.02s CPU      0.02s WALL (       1 calls)
 
     phqscf       :      4.73s CPU      5.66s WALL (       1 calls)
     solve_linter :      4.71s CPU      5.63s WALL (       1 calls)
 
     solve_linter :      4.71s CPU      5.63s WALL (       1 calls)
     dvqpsi_us    :      0.08s CPU      0.09s WALL (       6 calls)
     ortho        :      0.03s CPU      0.04s WALL (      36 calls)
     cgsolve      :      2.15s CPU      2.38s WALL (      36 calls)
     incdrhoscf   :      0.15s CPU      0.17s WALL (      36 calls)
     addusddens   :      0.44s CPU      0.50s WALL (       7 calls)
     vpsifft      :      0.11s CPU      0.13s WALL (      30 calls)
     dv_of_drho   :      0.04s CPU      0.04s WALL (      18 calls)
     mix_pot      :      0.04s CPU      0.09s WALL (       6 calls)
     ef_shift     :      0.02s CPU      0.02s WALL (       7 calls)
     localdos     :      0.06s CPU      0.07s WALL (       1 calls)
     symdvscf     :      0.78s CPU      0.94s WALL (       6 calls)
     newdq        :      0.79s CPU      0.90s WALL (       6 calls)
     adddvscf     :      0.02s CPU      0.02s WALL (      30 calls)
     drhodvus     :      0.00s CPU      0.00s WALL (       1 calls)
 
     dvqpsi_us    :      0.08s CPU      0.09s WALL (       6 calls)
     dvqpsi_us_on :      0.04s CPU      0.05s WALL (       6 calls)
 
     cgsolve      :      2.15s CPU      2.38s WALL (      36 calls)
     ch_psi       :      2.11s CPU      2.32s WALL (     508 calls)
 
     ch_psi       :      2.11s CPU      2.32s WALL (     508 calls)
     h_psiq       :      1.79s CPU      2.01s WALL (     508 calls)
     last         :      0.30s CPU      0.30s WALL (     508 calls)
 
     h_psiq       :      1.79s CPU      2.01s WALL (     508 calls)
     firstfft     :      0.85s CPU      0.87s WALL (    4230 calls)
     secondfft    :      0.55s CPU      0.69s WALL (    4230 calls)
     add_vuspsi   :      0.11s CPU      0.11s WALL (     508 calls)
 
     incdrhoscf   :      0.15s CPU      0.17s WALL (      36 calls)
 
     drhodvus     :      0.00s CPU      0.00s WALL (       1 calls)
 
      General routines
     calbec       :      0.17s CPU      0.19s WALL (    1140 calls)
     fft          :      0.08s CPU      0.10s WALL (     215 calls)
     ffts         :      0.01s CPU      0.01s WALL (     100 calls)
     fftw         :      1.34s CPU      1.53s WALL (   20460 calls)
     cinterpolate :      0.04s CPU      0.03s WALL (      40 calls)
     davcio       :      0.03s CPU      0.29s WALL (     204 calls)
     write_rec    :      0.01s CPU      0.05s WALL (       7 calls)
 
 
     PHONON       :     7.70s CPU        11.97s WALL

 
   This run was terminated on:  16:11:32   6Dec2012            

=------------------------------------------------------------------------------=
   JOB DONE.
=------------------------------------------------------------------------------=
