<PP_INFO>
Generated using "atomic" code by A. Dal Corso  (espresso distribution)     
Author: D. Ceresoli Generation date: 30Mar2007                             
H                                                                          
    0        The Pseudo was generated with a Non-Relativistic Calculation
    0 5.0000000E-01    L component and cutoff radius for Local Potential
nl pn  l   occ               Rcut            Rcut US             E pseu
2P  2  1  0.00      0.50000000000      0.50000000000     -0.11640047170
1S  1  0  0.50      0.50000000000      0.50000000000     -0.90668361789
</PP_INFO>


<PP_HEADER>
   0                   Version Number
   H                   Element
   NC                  Norm - Conserving pseudopotential
    F                  Nonlinear Core Correction
 SLA  PZ   NOGX NOGC   PZ   Exchange-Correlation functional
    1.00000000000      Z valence
   -0.55040514831      Total energy
  0.0000000  0.0000000 Suggested cutoff for wfc and rho
    1                  Max angular momentum component
  929                  Number of points in mesh
    2    1             Number of Wavefunctions, Number of Projectors
 Wavefunctions         nl  l   occ
                       2P  1  0.00
                       1S  0  0.50
</PP_HEADER>


<PP_MESH>
  <PP_R>
  9.11881965555E-04  9.23352028669E-04  9.34966367417E-04  9.46726796561E-04
  9.58635153694E-04  9.70693299520E-04  9.82903118149E-04  9.95266517390E-04
  1.00778542905E-03  1.02046180923E-03  1.03329763865E-03  1.04629492292E-03
  1.05945569291E-03  1.07278200500E-03  1.08627594146E-03  1.09993961075E-03
  1.11377514784E-03  1.12778471457E-03  1.14197049995E-03  1.15633472054E-03
  1.17087962079E-03  1.18560747336E-03  1.20052057951E-03  1.21562126944E-03
  1.23091190267E-03  1.24639486839E-03  1.26207258584E-03  1.27794750471E-03
  1.29402210547E-03  1.31029889981E-03  1.32678043103E-03  1.34346927438E-03
  1.36036803755E-03  1.37747936099E-03  1.39480591838E-03  1.41235041703E-03
  1.43011559831E-03  1.44810423806E-03  1.46631914704E-03  1.48476317138E-03
  1.50343919298E-03  1.52235013001E-03  1.54149893735E-03  1.56088860703E-03
  1.58052216874E-03  1.60040269024E-03  1.62053327793E-03  1.64091707724E-03
  1.66155727317E-03  1.68245709082E-03  1.70361979580E-03  1.72504869485E-03
  1.74674713626E-03  1.76871851047E-03  1.79096625054E-03  1.81349383273E-03
  1.83630477703E-03  1.85940264768E-03  1.88279105378E-03  1.90647364981E-03
  1.93045413623E-03  1.95473626003E-03  1.97932381535E-03  2.00422064405E-03
  2.02943063630E-03  2.05495773121E-03  2.08080591745E-03  2.10697923385E-03
  2.13348177004E-03  2.16031766709E-03  2.18749111818E-03  2.21500636921E-03
  2.24286771949E-03  2.27107952241E-03  2.29964618612E-03  2.32857217424E-03
  2.35786200649E-03  2.38752025948E-03  2.41755156736E-03  2.44796062260E-03
  2.47875217667E-03  2.50993104080E-03  2.54150208677E-03  2.57347024761E-03
  2.60584051841E-03  2.63861795709E-03  2.67180768520E-03  2.70541488869E-03
  2.73944481877E-03  2.77390279267E-03  2.80879419453E-03  2.84412447619E-03
  2.87989915809E-03  2.91612383009E-03  2.95280415237E-03  2.98994585631E-03
  3.02755474538E-03  3.06563669603E-03  3.10419765865E-03  3.14324365847E-03
  3.18278079651E-03  3.22281525052E-03  3.26335327598E-03  3.30440120702E-03
  3.34596545747E-03  3.38805252183E-03  3.43066897630E-03  3.47382147977E-03
  3.51751677491E-03  3.56176168921E-03  3.60656313602E-03  3.65192811565E-03
  3.69786371648E-03  3.74437711604E-03  3.79147558215E-03  3.83916647403E-03
  3.88745724348E-03  3.93635543603E-03  3.98586869213E-03  4.03600474832E-03
  4.08677143846E-03  4.13817669496E-03  4.19022854998E-03  4.24293513674E-03
  4.29630469075E-03  4.35034555111E-03  4.40506616181E-03  4.46047507306E-03
  4.51658094261E-03  4.57339253713E-03  4.63091873353E-03  4.68916852041E-03
  4.74815099941E-03  4.80787538667E-03  4.86835101423E-03  4.92958733155E-03
  4.99159390691E-03  5.05438042898E-03  5.11795670827E-03  5.18233267871E-03
  5.24751839918E-03  5.31352405507E-03  5.38035995991E-03  5.44803655694E-03
  5.51656442076E-03  5.58595425900E-03  5.65621691395E-03  5.72736336431E-03
  5.79940472684E-03  5.87235225816E-03  5.94621735647E-03  6.02101156334E-03
  6.09674656552E-03  6.17343419675E-03  6.25108643963E-03  6.32971542749E-03
  6.40933344626E-03  6.48995293642E-03  6.57158649493E-03  6.65424687720E-03
  6.73794699909E-03  6.82269993890E-03  6.90851893945E-03  6.99541741015E-03
  7.08340892905E-03  7.17250724501E-03  7.26272627981E-03  7.35408013038E-03
  7.44658307092E-03  7.54024955523E-03  7.63509421886E-03  7.73113188150E-03
  7.82837754923E-03  7.92684641687E-03  8.02655387040E-03  8.12751548929E-03
  8.22974704902E-03  8.33326452347E-03  8.43808408745E-03  8.54422211924E-03
  8.65169520312E-03  8.76052013198E-03  8.87071390993E-03  8.98229375498E-03
  9.09527710170E-03  9.20968160397E-03  9.32552513773E-03  9.44282580376E-03
  9.56160193054E-03  9.68187207708E-03  9.80365503582E-03  9.92696983561E-03
  1.00518357446E-02  1.01782722734E-02  1.03062991780E-02  1.04359364628E-02
  1.05672043839E-02  1.07001234521E-02  1.08347144364E-02  1.09709983669E-02
  1.11089965382E-02  1.12487305129E-02  1.13902221245E-02  1.15334934815E-02
  1.16785669704E-02  1.18254652591E-02  1.19742113008E-02  1.21248283374E-02
  1.22773399031E-02  1.24317698281E-02  1.25881422424E-02  1.27464815796E-02
  1.29068125805E-02  1.30691602971E-02  1.32335500965E-02  1.34000076651E-02
  1.35685590122E-02  1.37392304742E-02  1.39120487189E-02  1.40870407496E-02
  1.42642339090E-02  1.44436558840E-02  1.46253347096E-02  1.48092987735E-02
  1.49955768205E-02  1.51841979568E-02  1.53751916550E-02  1.55685877582E-02
  1.57644164849E-02  1.59627084337E-02  1.61634945882E-02  1.63668063216E-02
  1.65726754018E-02  1.67811339962E-02  1.69922146770E-02  1.72059504259E-02
  1.74223746395E-02  1.76415211346E-02  1.78634241533E-02  1.80881183684E-02
  1.83156388887E-02  1.85460212649E-02  1.87793014947E-02  1.90155160285E-02
  1.92547017754E-02  1.94968961086E-02  1.97421368715E-02  1.99904623834E-02
  2.02419114458E-02  2.04965233480E-02  2.07543378737E-02  2.10153953069E-02
  2.12797364384E-02  2.15474025720E-02  2.18184355310E-02  2.20928776651E-02
  2.23707718562E-02  2.26521615259E-02  2.29370906419E-02  2.32256037251E-02
  2.35177458560E-02  2.38135626826E-02  2.41131004268E-02  2.44164058920E-02
  2.47235264703E-02  2.50345101500E-02  2.53494055227E-02  2.56682617917E-02
  2.59911287788E-02  2.63180569326E-02  2.66490973364E-02  2.69843017158E-02
  2.73237224473E-02  2.76674125660E-02  2.80154257742E-02  2.83678164497E-02
  2.87246396542E-02  2.90859511422E-02  2.94518073691E-02  2.98222655009E-02
  3.01973834223E-02  3.05772197464E-02  3.09618338232E-02  3.13512857495E-02
  3.17456363781E-02  3.21449473269E-02  3.25492809891E-02  3.29587005427E-02
  3.33732699603E-02  3.37930540193E-02  3.42181183117E-02  3.46485292547E-02
  3.50843541008E-02  3.55256609487E-02  3.59725187534E-02  3.64249973374E-02
  3.68831674012E-02  3.73471005351E-02  3.78168692293E-02  3.82925468863E-02
  3.87742078317E-02  3.92619273260E-02  3.97557815762E-02  4.02558477482E-02
  4.07622039784E-02  4.12749293858E-02  4.17941040849E-02  4.23198091978E-02
  4.28521268670E-02  4.33911402683E-02  4.39369336234E-02  4.44895922138E-02
  4.50492023936E-02  4.56158516028E-02  4.61896283817E-02  4.67706223840E-02
  4.73589243911E-02  4.79546263266E-02  4.85578212700E-02  4.91686034718E-02
  4.97870683679E-02  5.04133125947E-02  5.10474340042E-02  5.16895316790E-02
  5.23397059484E-02  5.29980584034E-02  5.36646919127E-02  5.43397106394E-02
  5.50232200564E-02  5.57153269635E-02  5.64161395038E-02  5.71257671806E-02
  5.78443208748E-02  5.85719128619E-02  5.93086568294E-02  6.00546678953E-02
  6.08100626252E-02  6.15749590511E-02  6.23494766897E-02  6.31337365608E-02
  6.39278612067E-02  6.47319747110E-02  6.55462027180E-02  6.63706724526E-02
  6.72055127397E-02  6.80508540250E-02  6.89068283947E-02  6.97735695964E-02
  7.06512130604E-02  7.15398959202E-02  7.24397570343E-02  7.33509370077E-02
  7.42735782143E-02  7.52078248187E-02  7.61538227986E-02  7.71117199683E-02
  7.80816660012E-02  7.90638124532E-02  8.00583127867E-02  8.10653223945E-02
  8.20849986239E-02  8.31175008013E-02  8.41629902573E-02  8.52216303518E-02
  8.62935864994E-02  8.73790261954E-02  8.84781190421E-02  8.95910367749E-02
  9.07179532894E-02  9.18590446687E-02  9.30144892107E-02  9.41844674558E-02
  9.53691622155E-02  9.65687586009E-02  9.77834440514E-02  9.90134083638E-02
  1.00258843723E-01  1.01519944730E-01  1.02796908435E-01  1.04089934367E-01
  1.05399224562E-01  1.06724983600E-01  1.08067418635E-01  1.09426739423E-01
  1.10803158362E-01  1.12196890520E-01  1.13608153671E-01  1.15037168326E-01
  1.16484157773E-01  1.17949348107E-01  1.19432968267E-01  1.20935250070E-01
  1.22456428253E-01  1.23996740502E-01  1.25556427493E-01  1.27135732932E-01
  1.28734903588E-01  1.30354189334E-01  1.31993843188E-01  1.33654121348E-01
  1.35335283237E-01  1.37037591539E-01  1.38761312243E-01  1.40506714685E-01
  1.42274071587E-01  1.44063659101E-01  1.45875756856E-01  1.47710647995E-01
  1.49568619223E-01  1.51449960852E-01  1.53354966845E-01  1.55283934864E-01
  1.57237166314E-01  1.59214966390E-01  1.61217644130E-01  1.63245512454E-01
  1.65298888222E-01  1.67378092277E-01  1.69483449499E-01  1.71615288856E-01
  1.73773943450E-01  1.75959750577E-01  1.78173051773E-01  1.80414192870E-01
  1.82683524053E-01  1.84981399907E-01  1.87308179482E-01  1.89664226341E-01
  1.92049908621E-01  1.94465599090E-01  1.96911675204E-01  1.99388519169E-01
  2.01896517995E-01  2.04436063562E-01  2.07007552681E-01  2.09611387151E-01
  2.12247973827E-01  2.14917724680E-01  2.17621056865E-01  2.20358392783E-01
  2.23130160148E-01  2.25936792055E-01  2.28778727045E-01  2.31656409177E-01
  2.34570288094E-01  2.37520819095E-01  2.40508463208E-01  2.43533687258E-01
  2.46596963942E-01  2.49698771903E-01  2.52839595805E-01  2.56019926408E-01
  2.59240260646E-01  2.62501101702E-01  2.65802959089E-01  2.69146348729E-01
  2.72531793034E-01  2.75959820986E-01  2.79430968221E-01  2.82945777114E-01
  2.86504796860E-01  2.90108583564E-01  2.93757700324E-01  2.97452717322E-01
  3.01194211912E-01  3.04982768711E-01  3.08818979688E-01  3.12703444259E-01
  3.16636769379E-01  3.20619569639E-01  3.24652467358E-01  3.28736092687E-01
  3.32871083698E-01  3.37058086494E-01  3.41297755301E-01  3.45590752577E-01
  3.49937749111E-01  3.54339424131E-01  3.58796465406E-01  3.63309569359E-01
  3.67879441171E-01  3.72506794895E-01  3.77192353563E-01  3.81936849304E-01
  3.86741023455E-01  3.91605626677E-01  3.96531419075E-01  4.01519170314E-01
  4.06569659741E-01  4.11683676504E-01  4.16862019679E-01  4.22105498392E-01
  4.27414931949E-01  4.32791149958E-01  4.38234992465E-01  4.43747310081E-01
  4.49328964117E-01  4.54980826718E-01  4.60703780999E-01  4.66498721183E-01
  4.72366552741E-01  4.78308192534E-01  4.84324568955E-01  4.90416622076E-01
  4.96585303791E-01  5.02831577971E-01  5.09156420608E-01  5.15560819971E-01
  5.22045776761E-01  5.28612304266E-01  5.35261428519E-01  5.41994188459E-01
  5.48811636094E-01  5.55714836664E-01  5.62704868807E-01  5.69782824731E-01
  5.76949810380E-01  5.84206945612E-01  5.91555364367E-01  5.98996214851E-01
  6.06530659713E-01  6.14159876224E-01  6.21885056465E-01  6.29707407512E-01
  6.37628151622E-01  6.45648526428E-01  6.53769785130E-01  6.61993196691E-01
  6.70320046036E-01  6.78751634251E-01  6.87289278791E-01  6.95934313679E-01
  7.04688089719E-01  7.13551974707E-01  7.22527353642E-01  7.31615628947E-01
  7.40818220682E-01  7.50136566771E-01  7.59572123225E-01  7.69126364369E-01
  7.78800783071E-01  7.88596890981E-01  7.98516218759E-01  8.08560316321E-01
  8.18730753078E-01  8.29029118180E-01  8.39457020769E-01  8.50016090225E-01
  8.60707976425E-01  8.71534349997E-01  8.82496902585E-01  8.93597347109E-01
  9.04837418036E-01  9.16218871651E-01  9.27743486329E-01  9.39413062813E-01
  9.51229424501E-01  9.63194417721E-01  9.75309912028E-01  9.87577800494E-01
  1.00000000000E+00  1.01257845154E+00  1.02531512052E+00  1.03821199708E+00
  1.05127109638E+00  1.06449445892E+00  1.07788415088E+00  1.09144226444E+00
  1.10517091808E+00  1.11907225691E+00  1.13314845307E+00  1.14740170597E+00
  1.16183424273E+00  1.17644831845E+00  1.19124621661E+00  1.20623024942E+00
  1.22140275816E+00  1.23676611357E+00  1.25232271619E+00  1.26807499679E+00
  1.28402541669E+00  1.30017646817E+00  1.31653067487E+00  1.33309059216E+00
  1.34985880758E+00  1.36683794117E+00  1.38403064598E+00  1.40143960839E+00
  1.41906754859E+00  1.43691722099E+00  1.45499141462E+00  1.47329295362E+00
  1.49182469764E+00  1.51058954231E+00  1.52959041966E+00  1.54883029863E+00
  1.56831218549E+00  1.58803912432E+00  1.60801419749E+00  1.62824052615E+00
  1.64872127070E+00  1.66945963131E+00  1.69045884838E+00  1.71172220308E+00
  1.73325301787E+00  1.75505465696E+00  1.77713052691E+00  1.79948407713E+00
  1.82211880039E+00  1.84503823342E+00  1.86824595743E+00  1.89174559867E+00
  1.91554082901E+00  1.93963536651E+00  1.96403297597E+00  1.98873746958E+00
  2.01375270747E+00  2.03908259832E+00  2.06473109997E+00  2.09070222005E+00
  2.11700001661E+00  2.14362859873E+00  2.17059212718E+00  2.19789481507E+00
  2.22554092849E+00  2.25353478721E+00  2.28188076533E+00  2.31058329196E+00
  2.33964685193E+00  2.36907598648E+00  2.39887529397E+00  2.42904943060E+00
  2.45960311116E+00  2.49054110970E+00  2.52186826036E+00  2.55358945806E+00
  2.58570965932E+00  2.61823388296E+00  2.65116721098E+00  2.68451478927E+00
  2.71828182846E+00  2.75247360471E+00  2.78709546057E+00  2.82215280576E+00
  2.85765111806E+00  2.89359594417E+00  2.92999290053E+00  2.96684767425E+00
  3.00416602395E+00  3.04195378070E+00  3.08021684892E+00  3.11896120729E+00
  3.15819290969E+00  3.19791808616E+00  3.23814294384E+00  3.27887376794E+00
  3.32011692274E+00  3.36187885256E+00  3.40416608279E+00  3.44698522090E+00
  3.49034295746E+00  3.53424606721E+00  3.57870141010E+00  3.62371593237E+00
  3.66929666762E+00  3.71545073794E+00  3.76218535500E+00  3.80950782117E+00
  3.85742553070E+00  3.90594597081E+00  3.95507672292E+00  4.00482546382E+00
  4.05519996684E+00  4.10620810312E+00  4.15785784276E+00  4.21015725614E+00
  4.26311451517E+00  4.31673789451E+00  4.37103577293E+00  4.42601663458E+00
  4.48168907034E+00  4.53806177913E+00  4.59514356931E+00  4.65294336002E+00
  4.71147018259E+00  4.77073318197E+00  4.83074161811E+00  4.89150486746E+00
  4.95303242440E+00  5.01533390272E+00  5.07841903718E+00  5.14229768494E+00
  5.20697982718E+00  5.27247557061E+00  5.33879514907E+00  5.40594892514E+00
  5.47394739173E+00  5.54280117373E+00  5.61252102969E+00  5.68311785349E+00
  5.75460267601E+00  5.82698666690E+00  5.90028113632E+00  5.97449753667E+00
  6.04964746441E+00  6.12574266188E+00  6.20279501910E+00  6.28081657567E+00
  6.35981952260E+00  6.43981620427E+00  6.52081912033E+00  6.60284092764E+00
  6.68589444228E+00  6.76999264153E+00  6.85514866590E+00  6.94137582120E+00
  7.02868758059E+00  7.11709758672E+00  7.20661965382E+00  7.29726776991E+00
  7.38905609893E+00  7.48199898300E+00  7.57611094464E+00  7.67140668902E+00
  7.76790110631E+00  7.86560927394E+00  7.96454645903E+00  8.06472812071E+00
  8.16616991257E+00  8.26888768509E+00  8.37289748813E+00  8.47821557344E+00
  8.58485839718E+00  8.69284262251E+00  8.80218512219E+00  8.91290298120E+00
  9.02501349943E+00  9.13853419439E+00  9.25348280391E+00  9.36987728894E+00
  9.48773583636E+00  9.60707686181E+00  9.72791901256E+00  9.85028117045E+00
  9.97418245481E+00  1.00996422255E+01  1.02266800858E+01  1.03553158857E+01
  1.04855697247E+01  1.06174619554E+01  1.07510131861E+01  1.08862442845E+01
  1.10231763806E+01  1.11618308706E+01  1.13022294193E+01  1.14443939643E+01
  1.15883467192E+01  1.17341101769E+01  1.18817071131E+01  1.20311605902E+01
  1.21824939607E+01  1.23357308706E+01  1.24908952636E+01  1.26480113844E+01
  1.28071037827E+01  1.29681973170E+01  1.31313171585E+01  1.32964887950E+01
  1.34637380350E+01  1.36330910114E+01  1.38045741861E+01  1.39782143535E+01
  1.41540386454E+01  1.43320745346E+01  1.45123498396E+01  1.46948927288E+01
  1.48797317249E+01  1.50668957093E+01  1.52564139269E+01  1.54483159901E+01
  1.56426318842E+01  1.58393919713E+01  1.60386269957E+01  1.62403680881E+01
  1.64446467711E+01  1.66514949636E+01  1.68609449861E+01  1.70730295655E+01
  1.72877818406E+01  1.75052353667E+01  1.77254241215E+01  1.79483825098E+01
  1.81741453694E+01  1.84027479763E+01  1.86342260499E+01  1.88686157593E+01
  1.91059537282E+01  1.93462770413E+01  1.95896232496E+01  1.98360303763E+01
  2.00855369232E+01  2.03381818760E+01  2.05940047112E+01  2.08530454015E+01
  2.11153444225E+01  2.13809427591E+01  2.16498819115E+01  2.19222039020E+01
  2.21979512814E+01  2.24771671359E+01  2.27598950935E+01  2.30461793310E+01
  2.33360645809E+01  2.36295961384E+01  2.39268198684E+01  2.42277822126E+01
  2.45325301971E+01  2.48411114394E+01  2.51535741558E+01  2.54699671694E+01
  2.57903399172E+01  2.61147424581E+01  2.64432254806E+01  2.67758403108E+01
  2.71126389207E+01  2.74536739355E+01  2.77989986427E+01  2.81486670000E+01
  2.85027336438E+01  2.88612538977E+01  2.92242837812E+01  2.95918800186E+01
  2.99641000474E+01  3.03410020278E+01  3.07226448515E+01  3.11090881510E+01
  3.15003923087E+01  3.18966184669E+01  3.22978285366E+01  3.27040852077E+01
  3.31154519587E+01  3.35319930664E+01  3.39537736162E+01  3.43808595123E+01
  3.48133174876E+01  3.52512151146E+01  3.56946208157E+01  3.61436038738E+01
  3.65982344437E+01  3.70585835621E+01  3.75247231596E+01  3.79967260714E+01
  3.84746660490E+01  3.89586177715E+01  3.94486568572E+01  3.99448598758E+01
  4.04473043601E+01  4.09560688179E+01  4.14712327448E+01  4.19928766362E+01
  4.25210820001E+01  4.30559313695E+01  4.35975083157E+01  4.41458974614E+01
  4.47011844933E+01  4.52634561763E+01  4.58328003663E+01  4.64093060247E+01
  4.69930632316E+01  4.75841632002E+01  4.81826982911E+01  4.87887620267E+01
  4.94024491055E+01  5.00238554176E+01  5.06530780588E+01  5.12902153466E+01
  5.19353668348E+01  5.25886333298E+01  5.32501169057E+01  5.39199209208E+01
  5.45981500331E+01  5.52849102175E+01  5.59803087816E+01  5.66844543829E+01
  5.73974570454E+01  5.81194281774E+01  5.88504805883E+01  5.95907285066E+01
  6.03402875974E+01  6.10992749809E+01  6.18678092504E+01  6.26460104909E+01
  6.34340002981E+01  6.42319017969E+01  6.50398396610E+01  6.58579401324E+01
  6.66863310409E+01  6.75251418243E+01  6.83745035486E+01  6.92345489281E+01
  7.01054123467E+01  7.09872298786E+01  7.18801393097E+01  7.27842801587E+01
  7.36997936996E+01  7.46268229832E+01  7.55655128597E+01  7.65160100014E+01
  7.74784629253E+01  7.84530220166E+01  7.94398395523E+01  8.04390697245E+01
  8.14508686650E+01  8.24753944694E+01  8.35128072220E+01  8.45632690207E+01
  8.56269440022E+01  8.67039983679E+01  8.77946004098E+01  8.88989205365E+01
  9.00171313005E+01  9.11494074244E+01  9.22959258287E+01  9.34568656591E+01
  9.46324083149E+01  9.58227374771E+01  9.70280391369E+01  9.82485016253E+01
  9.94843156419E+01
  </PP_R>
  <PP_RAB>
  1.13985245694E-05  1.15419003584E-05  1.16870795927E-05  1.18340849570E-05
  1.19829394212E-05  1.21336662440E-05  1.22862889769E-05  1.24408314674E-05
  1.25973178631E-05  1.27557726154E-05  1.29162204831E-05  1.30786865365E-05
  1.32431961613E-05  1.34097750625E-05  1.35784492683E-05  1.37492451344E-05
  1.39221893481E-05  1.40973089321E-05  1.42746312494E-05  1.44541840068E-05
  1.46359952599E-05  1.48200934170E-05  1.50065072439E-05  1.51952658681E-05
  1.53863987834E-05  1.55799358549E-05  1.57759073231E-05  1.59743438088E-05
  1.61752763183E-05  1.63787362476E-05  1.65847553878E-05  1.67933659298E-05
  1.70046004693E-05  1.72184920123E-05  1.74350739797E-05  1.76543802129E-05
  1.78764449788E-05  1.81013029757E-05  1.83289893380E-05  1.85595396422E-05
  1.87929899122E-05  1.90293766251E-05  1.92687367169E-05  1.95111075879E-05
  1.97565271092E-05  2.00050336281E-05  2.02566659741E-05  2.05114634654E-05
  2.07694659147E-05  2.10307136352E-05  2.12952474475E-05  2.15631086856E-05
  2.18343392033E-05  2.21089813809E-05  2.23870781318E-05  2.26686729092E-05
  2.29538097129E-05  2.32425330960E-05  2.35348881722E-05  2.38309206226E-05
  2.41306767028E-05  2.44342032504E-05  2.47415476919E-05  2.50527580506E-05
  2.53678829537E-05  2.56869716401E-05  2.60100739681E-05  2.63372404231E-05
  2.66685221255E-05  2.70039708387E-05  2.73436389773E-05  2.76875796151E-05
  2.80358464936E-05  2.83884940301E-05  2.87455773266E-05  2.91071521780E-05
  2.94732750811E-05  2.98440032435E-05  3.02193945921E-05  3.05995077825E-05
  3.09844022083E-05  3.13741380100E-05  3.17687760846E-05  3.21683780951E-05
  3.25730064801E-05  3.29827244636E-05  3.33975960650E-05  3.38176861087E-05
  3.42430602346E-05  3.46737849084E-05  3.51099274316E-05  3.55515559524E-05
  3.59987394761E-05  3.64515478761E-05  3.69100519047E-05  3.73743232039E-05
  3.78444343172E-05  3.83204587003E-05  3.88024707331E-05  3.92905457309E-05
  3.97847599564E-05  4.02851906315E-05  4.07919159497E-05  4.13050150877E-05
  4.18245682184E-05  4.23506565229E-05  4.28833622037E-05  4.34227684971E-05
  4.39689596864E-05  4.45220211151E-05  4.50820392002E-05  4.56491014456E-05
  4.62232964560E-05  4.68047139506E-05  4.73934447769E-05  4.79895809253E-05
  4.85932155435E-05  4.92044429504E-05  4.98233586516E-05  5.04500593540E-05
  5.10846429808E-05  5.17272086870E-05  5.23778568748E-05  5.30366892093E-05
  5.37038086344E-05  5.43793193889E-05  5.50633270226E-05  5.57559384132E-05
  5.64572617827E-05  5.71674067141E-05  5.78864841692E-05  5.86146065051E-05
  5.93518874926E-05  6.00984423333E-05  6.08543876779E-05  6.16198416443E-05
  6.23949238364E-05  6.31797553622E-05  6.39744588534E-05  6.47791584839E-05
  6.55939799898E-05  6.64190506884E-05  6.72544994989E-05  6.81004569617E-05
  6.89570552595E-05  6.98244282375E-05  7.07027114244E-05  7.15920420539E-05
  7.24925590855E-05  7.34044032270E-05  7.43277169559E-05  7.52626445418E-05
  7.62093320689E-05  7.71679274593E-05  7.81385804954E-05  7.91214428436E-05
  8.01166680782E-05  8.11244117052E-05  8.21448311866E-05  8.31780859650E-05
  8.42243374886E-05  8.52837492362E-05  8.63564867432E-05  8.74427176269E-05
  8.85426116132E-05  8.96563405626E-05  9.07840784977E-05  9.19260016297E-05
  9.30822883866E-05  9.42531194403E-05  9.54386777357E-05  9.66391485188E-05
  9.78547193653E-05  9.90855802109E-05  1.00331923380E-04  1.01593943616E-04
  1.02871838113E-04  1.04165806543E-04  1.05476051093E-04  1.06802776491E-04
  1.08146190039E-04  1.09506501650E-04  1.10883923874E-04  1.12278671937E-04
  1.13690963771E-04  1.15121020050E-04  1.16569064222E-04  1.18035322547E-04
  1.19520024132E-04  1.21023400963E-04  1.22545687948E-04  1.24087122945E-04
  1.25647946808E-04  1.27228403418E-04  1.28828739725E-04  1.30449205785E-04
  1.32090054798E-04  1.33751543151E-04  1.35433930455E-04  1.37137479587E-04
  1.38862456728E-04  1.40609131411E-04  1.42377776556E-04  1.44168668519E-04
  1.45982087130E-04  1.47818315739E-04  1.49677641260E-04  1.51560354217E-04
  1.53466748788E-04  1.55397122851E-04  1.57351778030E-04  1.59331019745E-04
  1.61335157256E-04  1.63364503713E-04  1.65419376207E-04  1.67500095814E-04
  1.69606987653E-04  1.71740380928E-04  1.73900608987E-04  1.76088009370E-04
  1.78302923862E-04  1.80545698550E-04  1.82816683870E-04  1.85116234669E-04
  1.87444710256E-04  1.89802474460E-04  1.92189895688E-04  1.94607346977E-04
  1.97055206061E-04  1.99533855421E-04  2.02043682352E-04  2.04585079020E-04
  2.07158442522E-04  2.09764174953E-04  2.12402683462E-04  2.15074380323E-04
  2.17779682994E-04  2.20519014183E-04  2.23292801916E-04  2.26101479605E-04
  2.28945486109E-04  2.31825265812E-04  2.34741268684E-04  2.37693950356E-04
  2.40683772192E-04  2.43711201357E-04  2.46776710894E-04  2.49880779793E-04
  2.53023893073E-04  2.56206541850E-04  2.59429223421E-04  2.62692441336E-04
  2.65996705480E-04  2.69342532150E-04  2.72730444138E-04  2.76160970813E-04
  2.79634648202E-04  2.83152019074E-04  2.86713633024E-04  2.90320046563E-04
  2.93971823200E-04  2.97669533533E-04  3.01413755335E-04  3.05205073650E-04
  3.09044080879E-04  3.12931376875E-04  3.16867569034E-04  3.20853272396E-04
  3.24889109734E-04  3.28975711657E-04  3.33113716704E-04  3.37303771448E-04
  3.41546530591E-04  3.45842657075E-04  3.50192822178E-04  3.54597705621E-04
  3.59057995678E-04  3.63574389277E-04  3.68147592114E-04  3.72778318761E-04
  3.77467292779E-04  3.82215246829E-04  3.87022922790E-04  3.91891071869E-04
  3.96820454726E-04  4.01811841586E-04  4.06866012364E-04  4.11983756784E-04
  4.17165874504E-04  4.22413175241E-04  4.27726478896E-04  4.33106615683E-04
  4.38554426261E-04  4.44070761859E-04  4.49656484418E-04  4.55312466717E-04
  4.61039592516E-04  4.66838756688E-04  4.72710865367E-04  4.78656836079E-04
  4.84677597897E-04  4.90774091574E-04  4.96947269703E-04  5.03198096853E-04
  5.09527549730E-04  5.15936617322E-04  5.22426301061E-04  5.28997614973E-04
  5.35651585838E-04  5.42389253353E-04  5.49211670293E-04  5.56119902673E-04
  5.63115029919E-04  5.70198145035E-04  5.77370354771E-04  5.84632779799E-04
  5.91986554889E-04  5.99432829083E-04  6.06972765875E-04  6.14607543397E-04
  6.22338354598E-04  6.30166407433E-04  6.38092925052E-04  6.46119145988E-04
  6.54246324355E-04  6.62475730042E-04  6.70808648909E-04  6.79246382992E-04
  6.87790250705E-04  6.96441587044E-04  7.05201743797E-04  7.14072089758E-04
  7.23054010935E-04  7.32148910773E-04  7.41358210368E-04  7.50683348691E-04
  7.60125782815E-04  7.69686988139E-04  7.79368458621E-04  7.89171707010E-04
  7.99098265084E-04  8.09149683887E-04  8.19327533975E-04  8.29633405657E-04
  8.40068909247E-04  8.50635675313E-04  8.61335354933E-04  8.72169619956E-04
  8.83140163255E-04  8.94248699002E-04  9.05496962928E-04  9.16886712597E-04
  9.28419727679E-04  9.40097810233E-04  9.51922784983E-04  9.63896499604E-04
  9.76020825014E-04  9.88297655665E-04  1.00072890983E-03  1.01331652993E-03
  1.02606248280E-03  1.03896876002E-03  1.05203737822E-03  1.06527037940E-03
  1.07866983124E-03  1.09223782744E-03  1.10597648803E-03  1.11988795969E-03
  1.13397441612E-03  1.14823805836E-03  1.16268111513E-03  1.17730584320E-03
  1.19211452769E-03  1.20710948251E-03  1.22229305064E-03  1.23766760455E-03
  1.25323554654E-03  1.26899930913E-03  1.28496135544E-03  1.30112417958E-03
  1.31749030702E-03  1.33406229501E-03  1.35084273294E-03  1.36783424279E-03
  1.38503947953E-03  1.40246113150E-03  1.42010192088E-03  1.43796460408E-03
  1.45605197217E-03  1.47436685134E-03  1.49291210333E-03  1.51169062588E-03
  1.53070535316E-03  1.54995925627E-03  1.56945534366E-03  1.58919666165E-03
  1.60918629485E-03  1.62942736668E-03  1.64992303985E-03  1.67067651685E-03
  1.69169104046E-03  1.71296989423E-03  1.73451640304E-03  1.75633393356E-03
  1.77842589483E-03  1.80079573877E-03  1.82344696070E-03  1.84638309993E-03
  1.86960774028E-03  1.89312451064E-03  1.91693708556E-03  1.94104918580E-03
  1.96546457892E-03  1.99018707988E-03  2.01522055162E-03  2.04056890567E-03
  2.06623610277E-03  2.09222615346E-03  2.11854311874E-03  2.14519111070E-03
  2.17217429313E-03  2.19949688221E-03  2.22716314716E-03  2.25517741088E-03
  2.28354405066E-03  2.31226749884E-03  2.34135224352E-03  2.37080282926E-03
  2.40062385776E-03  2.43081998862E-03  2.46139594005E-03  2.49235648961E-03
  2.52370647493E-03  2.55545079453E-03  2.58759440851E-03  2.62014233939E-03
  2.65309967283E-03  2.68647155850E-03  2.72026321082E-03  2.75447990979E-03
  2.78912700186E-03  2.82420990069E-03  2.85973408807E-03  2.89570511471E-03
  2.93212860117E-03  2.96901023869E-03  3.00635579010E-03  3.04417109072E-03
  3.08246204927E-03  3.12123464878E-03  3.16049494756E-03  3.20024908010E-03
  3.24050325807E-03  3.28126377127E-03  3.32253698861E-03  3.36432935911E-03
  3.40664741293E-03  3.44949776232E-03  3.49288710277E-03  3.53682221393E-03
  3.58130996075E-03  3.62635729455E-03  3.67197125404E-03  3.71815896652E-03
  3.76492764890E-03  3.81228460889E-03  3.86023724610E-03  3.90879305324E-03
  3.95795961724E-03  4.00774462048E-03  4.05815584198E-03  4.10920115858E-03
  4.16088854623E-03  4.21322608117E-03  4.26622194126E-03  4.31988440721E-03
  4.37422186389E-03  4.42924280163E-03  4.48495581757E-03  4.54136961699E-03
  4.59849301464E-03  4.65633493619E-03  4.71490441954E-03  4.77421061630E-03
  4.83426279318E-03  4.89507033346E-03  4.95664273844E-03  5.01898962893E-03
  5.08212074676E-03  5.14604595629E-03  5.21077524598E-03  5.27631872990E-03
  5.34268664936E-03  5.40988937447E-03  5.47793740581E-03  5.54684137601E-03
  5.61661205147E-03  5.68726033398E-03  5.75879726249E-03  5.83123401479E-03
  5.90458190926E-03  5.97885240668E-03  6.05405711194E-03  6.13020777595E-03
  6.20731629739E-03  6.28539472464E-03  6.36445525759E-03  6.44451024963E-03
  6.52557220951E-03  6.60765380332E-03  6.69076785649E-03  6.77492735574E-03
  6.86014545118E-03  6.94643545829E-03  7.03381086009E-03  7.12228530914E-03
  7.21187262976E-03  7.30258682015E-03  7.39444205459E-03  7.48745268564E-03
  7.58163324641E-03  7.67699845280E-03  7.77356320581E-03  7.87134259390E-03
  7.97035189527E-03  8.07060658035E-03  8.17212231412E-03  8.27491495864E-03
  8.37900057545E-03  8.48439542814E-03  8.59111598489E-03  8.69917892098E-03
  8.80860112148E-03  8.91939968383E-03  9.03159192053E-03  9.14519536183E-03
  9.26022775852E-03  9.37670708464E-03  9.49465154031E-03  9.61407955461E-03
  9.73500978839E-03  9.85746113726E-03  9.98145273449E-03  1.01070039540E-02
  1.02341344135E-02  1.03628639773E-02  1.04932127596E-02  1.06252011278E-02
  1.07588497053E-02  1.08941793750E-02  1.10312112823E-02  1.11699668389E-02
  1.13104677254E-02  1.14527358956E-02  1.15967935791E-02  1.17426632852E-02
  1.18903678063E-02  1.20399302215E-02  1.21913739004E-02  1.23447225062E-02