
     Program HP v.6.3 starts on 29Aug2018 at 13:43:34 

     This program is part of the open-source Quantum ESPRESSO suite
     for quantum simulation of materials; please cite
         "P. Giannozzi et al., J. Phys.:Condens. Matter 21 395502 (2009);
         "P. Giannozzi et al., J. Phys.:Condens. Matter 29 465901 (2017);
          URL http://www.quantum-espresso.org", 
     in publications or presentations arising from this work. More details at
     http://www.quantum-espresso.org/quote

     Parallel version (MPI), running on     8 processors

     MPI processes distributed on     1 nodes
     R & G space division:  proc/nbgrp/npool/nimage =       8

     =--------------------------------------------------------------------------=

       Calculation of Hubbard parameters from DFPT; please cite this program as

       I. Timrov, N. Marzari, and M. Cococcioni, Phys. Rev. B 98, 085127 (2018)

     =--------------------------------------------------------------------------=

     Reading data from directory:
     /scratch/timrov/WORK_Hubbard/Z_git/work2_QE_fork/q-e/HP/examples/tmp/CoO2.save/

     IMPORTANT: XC functional enforced from input :
     Exchange-correlation      = PBE ( 1  4  3  4 0 0)
     Any further DFT definition will be discarded
     Please, verify this is what you really want

     Message from routine read_upf::
     Pseudo file /scratch/timrov/WORK_Hubbard/Z_git/work2_QE_fork/q-e/HP/examples/pseudo/O.pbe-n-kjpaw_psl.0.1.UPF has been successfully fixed on the fly.
To avoid this message in the future you can permanently fix 
 your pseudo files following instructions given in: 
https://gitlab.com/QEF/q-e/blob/master/upftools/how_to_fix_upf.md
               file O.pbe-n-kjpaw_psl.0.1.UPF: wavefunction(s)  2P renormalized
 
     Parallelization info
     --------------------
     sticks:   dense  smooth     PW     G-vecs:    dense   smooth      PW
     Min         116      57     17                16150     5681     948
     Max         117      58     20                16163     5698     956
     Sum         931     463    151               129225    45537    7611
 
     Generating pointlists ...
     new r_m :   0.2749 (alat units)  1.4610 (a.u.) for type    1
     new r_m :   0.2749 (alat units)  1.4610 (a.u.) for type    2

     Check: negative/imaginary core charge=   -0.000005    0.000000

     negative rho (up, down):  1.134E-04 1.620E-04
 --- in v_hubbard ---
Hubbard energy    0.0000
 -------
 

     bravais-lattice index     =             0
     lattice parameter (alat)  =        5.3150 (a.u.)
     unit-cell volume          =      727.2754 (a.u.)^3
     number of atoms/cell      =             3
     number of atomic types    =             2
     kinetic-energy cut-off    =         60.00 (Ry)
     charge density cut-off    =        480.00 (Ry)
     conv. thresh. for NSCF    =       1.0E-11
     conv. thresh. for chi     =       1.0E-08
     Input Hubbard parameters (in eV):
       U ( 1)                     =   1.00000E-08

     celldm(1) =  5.31500  celldm(2) =  0.00000  celldm(3) =  5.59316
     celldm(4) =  0.00000  celldm(5) =  0.00000  celldm(6) =  0.00000

     crystal axes: (cart. coord. in units of alat)
               a(1) = (  0.5000 -0.8660  0.0000 )  
               a(2) = (  0.5000  0.8660  0.0000 )  
               a(3) = (  0.0000  0.0000  5.5932 )  

     reciprocal axes: (cart. coord. in units 2 pi/alat)
               b(1) = (  1.0000 -0.5774  0.0000 )  
               b(2) = (  1.0000  0.5774  0.0000 )  
               b(3) = (  0.0000  0.0000  0.1788 )  

     Atoms inside the unit cell (Cartesian axes):
     site n.  atom      mass           positions (alat units)
        1      Co     58.9332   tau(  1) = (  0.00000  0.00000  0.00000  )
        2      O      15.9994   tau(  2) = (  0.50000  0.28868 -0.33275  )
        3      O      15.9994   tau(  3) = (  0.50000 -0.28868  0.33275  )

     Atom which will be perturbed:

        1      Co     58.9332   tau( 1) = (  0.00000  0.00000  0.00000  )
 
     =====================================================================

                          PERTURBED ATOM #    1

     site n.  atom      mass           positions (alat units)
        1      Co     58.9332   tau( 1) = (  0.00000  0.00000  0.00000  )
 
     =====================================================================

     The perturbed atom has a type which is unique!


     The grid of q-points ( 2, 2, 1)  (  2 q-points ) :
       N       xq(1)         xq(2)         xq(3)       wq
       1   0.000000000   0.000000000   0.000000000   0.250000000
       2  -0.500000000  -0.288675135   0.000000000   0.750000000


     =-------------------------------------------------------------=

     Calculation for q #   1 = (   0.0000000   0.0000000   0.0000000 )

     =-------------------------------------------------------------=

                   WRITING LINEAR-RESPONSE SUMMARY:


     Number of symmetries in the small group of q, nsymq = 12
      + the symmetry q -> -q+G 

     Symmetry matrices (and vectors of fractional translations if f/=0):

     isym =  1     identity                                     

     cryst.   s( 1) = (     1          0          0      )
                      (     0          1          0      )
                      (     0          0          1      )

     cart.    s( 1) = (  1.0000000  0.0000000  0.0000000 )
                      (  0.0000000  1.0000000  0.0000000 )
                      (  0.0000000  0.0000000  1.0000000 )


     isym =  2     180 deg rotation - cart. axis [1,0,0]        

     cryst.   s( 2) = (     0          1          0      )
                      (     1          0          0      )
                      (     0          0         -1      )

     cart.    s( 2) = (  1.0000000  0.0000000  0.0000000 )
                      (  0.0000000 -1.0000000  0.0000000 )
                      (  0.0000000  0.0000000 -1.0000000 )


     isym =  3     120 deg rotation - cryst. axis [0,0,1]       

     cryst.   s( 3) = (     0          1          0      )
                      (    -1         -1          0      )
                      (     0          0          1      )

     cart.    s( 3) = ( -0.5000000 -0.8660254  0.0000000 )
                      (  0.8660254 -0.5000000  0.0000000 )
                      (  0.0000000  0.0000000  1.0000000 )


     isym =  4     120 deg rotation - cryst. axis [0,0,-1]      

     cryst.   s( 4) = (    -1         -1          0      )
                      (     1          0          0      )
                      (     0          0          1      )

     cart.    s( 4) = ( -0.5000000  0.8660254  0.0000000 )
                      ( -0.8660254 -0.5000000  0.0000000 )
                      (  0.0000000  0.0000000  1.0000000 )


     isym =  5     180 deg rotation - cryst. axis [0,1,0]       

     cryst.   s( 5) = (     1          0          0      )
                      (    -1         -1          0      )
                      (     0          0         -1      )

     cart.    s( 5) = ( -0.5000000 -0.8660254  0.0000000 )
                      ( -0.8660254  0.5000000  0.0000000 )
                      (  0.0000000  0.0000000 -1.0000000 )


     isym =  6     180 deg rotation - cryst. axis [1,1,0]       

     cryst.   s( 6) = (    -1         -1          0      )
                      (     0          1          0      )
                      (     0          0         -1      )

     cart.    s( 6) = ( -0.5000000  0.8660254  0.0000000 )
                      (  0.8660254  0.5000000  0.0000000 )
                      (  0.0000000  0.0000000 -1.0000000 )


     isym =  7     inversion                                    

     cryst.   s( 7) = (    -1          0          0      )
                      (     0         -1          0      )
                      (     0          0         -1      )

     cart.    s( 7) = ( -1.0000000  0.0000000  0.0000000 )
                      (  0.0000000 -1.0000000  0.0000000 )
                      (  0.0000000  0.0000000 -1.0000000 )


     isym =  8     inv. 180 deg rotation - cart. axis [1,0,0]   

     cryst.   s( 8) = (     0         -1          0      )
                      (    -1          0          0      )
                      (     0          0          1      )

     cart.    s( 8) = ( -1.0000000  0.0000000  0.0000000 )
                      (  0.0000000  1.0000000  0.0000000 )
                      (  0.0000000  0.0000000  1.0000000 )


     isym =  9     inv. 120 deg rotation - cryst. axis [0,0,1]  

     cryst.   s( 9) = (     0         -1          0      )
                      (     1          1          0      )
                      (     0          0         -1      )

     cart.    s( 9) = (  0.5000000  0.8660254  0.0000000 )
                      ( -0.8660254  0.5000000  0.0000000 )
                      (  0.0000000  0.0000000 -1.0000000 )


     isym = 10     inv. 120 deg rotation - cryst. axis [0,0,-1] 

     cryst.   s(10) = (     1          1          0      )
                      (    -1          0          0      )
                      (     0          0         -1      )

     cart.    s(10) = (  0.5000000 -0.8660254  0.0000000 )
                      (  0.8660254  0.5000000  0.0000000 )
                      (  0.0000000  0.0000000 -1.0000000 )


     isym = 11     inv. 180 deg rotation - cryst. axis [0,1,0]  

     cryst.   s(11) = (    -1          0          0      )
                      (     1          1          0      )
                      (     0          0          1      )

     cart.    s(11) = (  0.5000000  0.8660254  0.0000000 )
                      (  0.8660254 -0.5000000  0.0000000 )
                      (  0.0000000  0.0000000  1.0000000 )


     isym = 12     inv. 180 deg rotation - cryst. axis [1,1,0]  

     cryst.   s(12) = (     1          1          0      )
                      (     0         -1          0      )
                      (     0          0          1      )

     cart.    s(12) = (  0.5000000 -0.8660254  0.0000000 )
                      ( -0.8660254 -0.5000000  0.0000000 )
                      (  0.0000000  0.0000000  1.0000000 )


     This transformation sends q -> -q+G

     isym = 13     identity                                     

     cryst.   s(13) = (     1          0          0      )
                      (     0          1          0      )
                      (     0          0          1      )

     cart.    s(13) = (  1.0000000  0.0000000  0.0000000 )
                      (  0.0000000  1.0000000  0.0000000 )
                      (  0.0000000  0.0000000  1.0000000 )


     G cutoff =  343.4699  (  16155 G-vectors)     FFT grid: ( 40, 40,216)
     G cutoff =  171.7350  (   5694 G-vectors)  smooth grid: ( 27, 27,150)

     Number of k (and k+q if q/=0) points =    14  mv smearing, width (Ry) =  0.0100

                       cart. coord. (in units 2pi/alat)
        k (    1) = (   0.0000000   0.0000000   0.0000000), wk = 0.0277778
        k (    2) = (   0.1666667   0.0962250   0.0000000), wk = 0.1666667
        k (    3) = (   0.3333333   0.1924501   0.0000000), wk = 0.1666667
        k (    4) = (  -0.5000000  -0.2886751   0.0000000), wk = 0.0833333
        k (    5) = (   0.3333333   0.0000000   0.0000000), wk = 0.1666667
        k (    6) = (   0.5000000   0.0962250   0.0000000), wk = 0.3333333
        k (    7) = (   0.6666667   0.0000000   0.0000000), wk = 0.0555556
        k (    8) = (   0.0000000   0.0000000   0.0000000), wk = 0.0277778
        k (    9) = (   0.1666667   0.0962250   0.0000000), wk = 0.1666667
        k (   10) = (   0.3333333   0.1924501   0.0000000), wk = 0.1666667
        k (   11) = (  -0.5000000  -0.2886751   0.0000000), wk = 0.0833333
        k (   12) = (   0.3333333   0.0000000   0.0000000), wk = 0.1666667
        k (   13) = (   0.5000000   0.0962250   0.0000000), wk = 0.3333333
        k (   14) = (   0.6666667   0.0000000   0.0000000), wk = 0.0555556

                       cryst. coord.
        k (    1) = (   0.0000000   0.0000000   0.0000000), wk = 0.0277778
        k (    2) = (   0.0000000   0.1666667   0.0000000), wk = 0.1666667
        k (    3) = (   0.0000000   0.3333333   0.0000000), wk = 0.1666667
        k (    4) = (  -0.0000000  -0.5000000   0.0000000), wk = 0.0833333
        k (    5) = (   0.1666667   0.1666667   0.0000000), wk = 0.1666667
        k (    6) = (   0.1666667   0.3333333   0.0000000), wk = 0.3333333
        k (    7) = (   0.3333333   0.3333333   0.0000000), wk = 0.0555556
        k (    8) = (   0.0000000   0.0000000   0.0000000), wk = 0.0277778
        k (    9) = (   0.0000000   0.1666667   0.0000000), wk = 0.1666667
        k (   10) = (   0.0000000   0.3333333   0.0000000), wk = 0.1666667
        k (   11) = (  -0.0000000  -0.5000000   0.0000000), wk = 0.0833333
        k (   12) = (   0.1666667   0.1666667   0.0000000), wk = 0.1666667
        k (   13) = (   0.1666667   0.3333333   0.0000000), wk = 0.3333333
        k (   14) = (   0.3333333   0.3333333   0.0000000), wk = 0.0555556

     Atomic wfc used for the DFT+U projector are orthogonalized

     Total time spent up to now is:
     HP           :      0.95s CPU      0.99s WALL

      =--------------------------------------------=
             START SOLVING THE LINEAR SYSTEM
      =--------------------------------------------=

      atom #  1   q point #   1   iter #   1
      Fermi energy shift (Ry) =  0.6936E+00  0.3229E-14
      chi:   1  -0.4047999461
      Average number of iter. to solve lin. system:   29.4
      Total CPU time :     5.0 s

      atom #  1   q point #   1   iter #   2
      Fermi energy shift (Ry) = -0.7405E+00 -0.1116E-06
      chi:   1   0.4766518652   residue:    0.8814518114
      Average number of iter. to solve lin. system:   15.1
      Total CPU time :     7.6 s

      atom #  1   q point #   1   iter #   3
      Fermi energy shift (Ry) =  0.2132E+00 -0.1441E-07
      chi:   1  -0.1146473176   residue:    0.5912991829
      Average number of iter. to solve lin. system:   14.1
      Total CPU time :    10.1 s

      atom #  1   q point #   1   iter #   4
      Fermi energy shift (Ry) =  0.1934E+00  0.2217E-08
      chi:   1  -0.1067181843   residue:    0.0079291333
      Average number of iter. to solve lin. system:   13.8
      Total CPU time :    12.5 s

      atom #  1   q point #   1   iter #   5
      Fermi energy shift (Ry) =  0.1736E+00  0.4404E-09
      chi:   1  -0.0991170765   residue:    0.0076011078
      Average number of iter. to solve lin. system:   14.4
      Total CPU time :    15.1 s

      atom #  1   q point #   1   iter #   6
      Fermi energy shift (Ry) =  0.1754E+00 -0.1252E-09
      chi:   1  -0.0998766478   residue:    0.0007595713
      Average number of iter. to solve lin. system:   15.9
      Total CPU time :    17.8 s

      atom #  1   q point #   1   iter #   7
      Fermi energy shift (Ry) =  0.1758E+00  0.9986E-10
      chi:   1  -0.0998517096   residue:    0.0000249383
      Average number of iter. to solve lin. system:   15.6
      Total CPU time :    20.4 s

      atom #  1   q point #   1   iter #   8
      Fermi energy shift (Ry) =  0.1758E+00  0.3592E-10
      chi:   1  -0.0998053076   residue:    0.0000464019
      Average number of iter. to solve lin. system:   16.4
      Total CPU time :    23.1 s

      atom #  1   q point #   1   iter #   9
      Fermi energy shift (Ry) =  0.1759E+00 -0.9736E-11
      chi:   1  -0.0999906949   residue:    0.0001853873
      Average number of iter. to solve lin. system:   16.6
      Total CPU time :    25.8 s

      atom #  1   q point #   1   iter #  10
      Fermi energy shift (Ry) =  0.1758E+00  0.3071E-11
      chi:   1  -0.0999598037   residue:    0.0000308912
      Average number of iter. to solve lin. system:   14.9
      Total CPU time :    28.3 s

      atom #  1   q point #   1   iter #  11
      Fermi energy shift (Ry) =  0.1758E+00 -0.1559E-11
      chi:   1  -0.0999544303   residue:    0.0000053734
      Average number of iter. to solve lin. system:   16.3
      Total CPU time :    31.0 s

      atom #  1   q point #   1   iter #  12
      Fermi energy shift (Ry) =  0.1758E+00 -0.3309E-12
      chi:   1  -0.0999404683   residue:    0.0000139620
      Average number of iter. to solve lin. system:   15.1
      Total CPU time :    33.7 s

      atom #  1   q point #   1   iter #  13
      Fermi energy shift (Ry) =  0.1758E+00 -0.4997E-12
      chi:   1  -0.0999459112   residue:    0.0000054429
      Average number of iter. to solve lin. system:   14.9
      Total CPU time :    36.3 s

      atom #  1   q point #   1   iter #  14
      Fermi energy shift (Ry) =  0.1758E+00  0.1061E-12
      chi:   1  -0.0999479144   residue:    0.0000020032
      Average number of iter. to solve lin. system:   16.2
      Total CPU time :    39.1 s

      atom #  1   q point #   1   iter #  15
      Fermi energy shift (Ry) =  0.1758E+00  0.2713E-13
      chi:   1  -0.0999474409   residue:    0.0000004735
      Average number of iter. to solve lin. system:   14.6
      Total CPU time :    41.6 s

      atom #  1   q point #   1   iter #  16
      Fermi energy shift (Ry) =  0.1758E+00  0.1631E-13
      chi:   1  -0.0999468608   residue:    0.0000005800
      Average number of iter. to solve lin. system:   16.6
      Total CPU time :    44.3 s

      atom #  1   q point #   1   iter #  17
      Fermi energy shift (Ry) =  0.1758E+00  0.1355E-13
      chi:   1  -0.0999470374   residue:    0.0000001765
      Average number of iter. to solve lin. system:   16.4
      Total CPU time :    47.0 s

      atom #  1   q point #   1   iter #  18
      Fermi energy shift (Ry) =  0.1758E+00  0.1362E-13
      chi:   1  -0.0999468996   residue:    0.0000001378
      Average number of iter. to solve lin. system:   14.9
      Total CPU time :    49.6 s

      atom #  1   q point #   1   iter #  19
      Fermi energy shift (Ry) =  0.1758E+00  0.1842E-13
      chi:   1  -0.0999468819   residue:    0.0000000176
      Average number of iter. to solve lin. system:   16.0
      Total CPU time :    52.3 s

      atom #  1   q point #   1   iter #  20
      Fermi energy shift (Ry) =  0.1758E+00  0.2059E-13
      chi:   1  -0.0999468458   residue:    0.0000000361
      Average number of iter. to solve lin. system:   15.6
      Total CPU time :    54.9 s

      atom #  1   q point #   1   iter #  21
      Fermi energy shift (Ry) =  0.1758E+00  0.1546E-13
      chi:   1  -0.0999468654   residue:    0.0000000196
      Average number of iter. to solve lin. system:   15.4
      Total CPU time :    57.5 s

      atom #  1   q point #   1   iter #  22
      Fermi energy shift (Ry) =  0.1758E+00  0.1563E-13
      chi:   1  -0.0999468576   residue:    0.0000000078
      Average number of iter. to solve lin. system:   14.8
      Total CPU time :    60.1 s
      
      =--------------------------------------------=
             CONVERGENCE HAS BEEN REACHED
      =--------------------------------------------=


     =-------------------------------------------------------------=

     Calculation for q #   2 = (  -0.5000000  -0.2886751   0.0000000 )

     =-------------------------------------------------------------=

     Performing NSCF calculation at all points k and k+q...

     Subspace diagonalization in iterative solution of the eigenvalue problem:
     a serial algorithm will be used

 
     Parallelization info
     --------------------
     sticks:   dense  smooth     PW     G-vecs:    dense   smooth      PW
     Min         116      57     20                16150     5681    1164
     Max         117      58     21                16163     5698    1181
     Sum         931     463    163               129225    45537    9357
 


     bravais-lattice index     =            0
     lattice parameter (alat)  =       5.3150  a.u.
     unit-cell volume          =     727.2754 (a.u.)^3
     number of atoms/cell      =            3
     number of atomic types    =            2
     number of electrons       =        29.00
     number of Kohn-Sham states=           19
     kinetic-energy cutoff     =      60.0000  Ry
     charge density cutoff     =     480.0000  Ry
     Exchange-correlation      = PBE ( 1  4  3  4 0 0)

     celldm(1)=   5.315004  celldm(2)=   0.000000  celldm(3)=   5.593163
     celldm(4)=   0.000000  celldm(5)=   0.000000  celldm(6)=   0.000000

     crystal axes: (cart. coord. in units of alat)
               a(1) = (   0.500000  -0.866025   0.000000 )  
               a(2) = (   0.500000   0.866025   0.000000 )  
               a(3) = (   0.000000   0.000000   5.593163 )  

     reciprocal axes: (cart. coord. in units 2 pi/alat)
               b(1) = (  1.000000 -0.577350  0.000000 )  
               b(2) = (  1.000000  0.577350  0.000000 )  
               b(3) = (  0.000000  0.000000  0.178790 )  


     PseudoPot. # 1 for Co read from file:
     /scratch/timrov/WORK_Hubbard/Z_git/work2_QE_fork/q-e/HP/examples/pseudo/co_pbe_v1.2.uspp.F.UPF
     MD5 check sum: 5f91765df6ddd3222702df6e7b74a16d
     Pseudo is Ultrasoft + core correction, Zval = 17.0
     Generated by new atomic code, or converted to UPF format
     Using radial grid of  863 points,  6 beta functions with: 
                l(1) =   0
                l(2) =   0
                l(3) =   1
                l(4) =   1
                l(5) =   2
                l(6) =   2
     Q(r) pseudized with  8 coefficients,  rinner =    1.200   1.200   1.200
                                                       1.200   1.200

     PseudoPot. # 2 for O  read from file:
     /scratch/timrov/WORK_Hubbard/Z_git/work2_QE_fork/q-e/HP/examples/pseudo/O.pbe-n-kjpaw_psl.0.1.UPF
     MD5 check sum: 3f94a2996a3169367d6eb21d9b593f20
     Pseudo is Projector augmented-wave + core cor, Zval =  6.0
     Generated using "atomic" code by A. Dal Corso v.5.0.99 svn rev. 10869
     Shape of augmentation charge: BESSEL
     Using radial grid of 1095 points,  4 beta functions with: 
                l(1) =   0
                l(2) =   0
                l(3) =   1
                l(4) =   1
     Q(r) pseudized with 0 coefficients 


     atomic species   valence    mass     pseudopotential
        Co            17.00    58.93319     Co( 1.00)
        O              6.00    15.99940     O ( 1.00)

     Starting magnetic structure 
     atomic species   magnetization
        Co          -0.500
        O            0.000


     Simplified LDA+U calculation (l_max = 2) with parameters (eV):
     atomic species    L          U    alpha       J0     beta
        Co             2     0.0000   0.0000   0.0000   0.0000



     12 Sym. Ops., with inversion, found



   Cartesian axes

     site n.     atom                  positions (alat units)
         1           Co  tau(   1) = (   0.0000000   0.0000000   0.0000000  )
         2           O   tau(   2) = (   0.5000000   0.2886751  -0.3327466  )
         3           O   tau(   3) = (   0.5000000  -0.2886751   0.3327466  )

     number of k points=    26  mv smearing, width (Ry)=  0.0100
                       cart. coord. in units 2pi/alat
        k(    1) = (   0.0000000   0.0000000   0.0000000), wk =   0.0277778
        k(    2) = (  -0.5000000  -0.2886751   0.0000000), wk =   0.0000000
        k(    3) = (   0.1666667   0.0962250   0.0000000), wk =   0.0555556
        k(    4) = (  -0.3333333  -0.1924501   0.0000000), wk =   0.0000000
        k(    5) = (   0.3333333   0.1924501   0.0000000), wk =   0.0555556
        k(    6) = (  -0.1666667  -0.0962250   0.0000000), wk =   0.0000000
        k(    7) = (  -0.5000000  -0.2886751   0.0000000), wk =   0.0277778
        k(    8) = (  -1.0000000  -0.5773503   0.0000000), wk =   0.0000000
        k(    9) = (   0.3333333   0.0000000   0.0000000), wk =   0.1111111
        k(   10) = (  -0.1666667  -0.2886751   0.0000000), wk =   0.0000000
        k(   11) = (   0.5000000   0.0962250   0.0000000), wk =   0.1111111
        k(   12) = (  -0.0000000  -0.1924501   0.0000000), wk =   0.0000000
        k(   13) = (   0.6666667   0.0000000   0.0000000), wk =   0.0555556
        k(   14) = (   0.1666667  -0.2886751   0.0000000), wk =   0.0000000
        k(   15) = (   0.1666667  -0.0962250   0.0000000), wk =   0.1111111
        k(   16) = (  -0.3333333  -0.3849002   0.0000000), wk =   0.0000000
        k(   17) = (   0.3333333  -0.1924501   0.0000000), wk =   0.1111111
        k(   18) = (  -0.1666667  -0.4811252   0.0000000), wk =   0.0000000
        k(   19) = (  -0.5000000   0.2886751   0.0000000), wk =   0.0555556
        k(   20) = (  -1.0000000   0.0000000   0.0000000), wk =   0.0000000
        k(   21) = (  -0.1666667   0.2886751   0.0000000), wk =   0.0555556
        k(   22) = (  -0.6666667   0.0000000   0.0000000), wk =   0.0000000
        k(   23) = (   0.5000000  -0.0962250   0.0000000), wk =   0.1111111
        k(   24) = (  -0.0000000  -0.3849002   0.0000000), wk =   0.0000000
        k(   25) = (  -0.1666667   0.4811252   0.0000000), wk =   0.1111111
        k(   26) = (  -0.6666667   0.1924501   0.0000000), wk =   0.0000000

     Dense  grid:   129225 G-vectors     FFT dimensions: (  40,  40, 216)

     Smooth grid:    45537 G-vectors     FFT dimensions: (  27,  27, 150)

     Estimated max dynamical RAM per process >      58.00 MB

     Estimated total dynamical RAM >     464.01 MB
     Generating pointlists ...

     Check: negative/imaginary core charge=   -0.000005    0.000000

     The potential is recalculated from file :
     /scratch/timrov/WORK_Hubbard/Z_git/work2_QE_fork/q-e/HP/examples/tmp/HP/CoO2.save/charge-density


     negative rho (up, down):  1.134E-04 1.620E-04
     Number of +U iterations with fixed ns =  0
     Starting occupations:
 --- enter write_ns ---
 LDA+U parameters:
U( 1)     =  0.00000001
alpha( 1) =  0.00000000
atom    1   Tr[ns(na)] (up, down, total) =   3.21424  3.99038  7.20462
   spin  1
    eigenvalues: 
  0.475  0.475  0.669  0.798  0.798
    eigenvectors:
  0.000  0.000  1.000  0.000  0.000
  0.385  0.208  0.000  0.076  0.331
  0.208  0.385  0.000  0.331  0.076
  0.143  0.264  0.000  0.482  0.111
  0.264  0.143  0.000  0.111  0.482
    occupations:
  0.669  0.000  0.000  0.000  0.000
  0.000  0.606  0.000 -0.000 -0.158
  0.000  0.000  0.606 -0.158  0.000
  0.000 -0.000 -0.158  0.666 -0.000
  0.000 -0.158  0.000 -0.000  0.666
   spin  2
    eigenvalues: 
  0.516  0.516  0.986  0.986  0.987
    eigenvectors:
  0.000  0.000  0.000  0.000  1.000
  0.376  0.212  0.043  0.369  0.000
  0.212  0.376  0.369  0.043  0.000
  0.148  0.264  0.527  0.061  0.000
  0.264  0.148  0.061  0.527  0.000
    occupations:
  0.987  0.000  0.000  0.000  0.000
  0.000  0.710  0.000 -0.000 -0.231
  0.000  0.000  0.710 -0.231  0.000
  0.000 -0.000 -0.231  0.792 -0.000
  0.000 -0.231  0.000 -0.000  0.792
atomic mag. moment =    -0.776139
N of occupied +U levels =    7.204622
 --- exit write_ns ---
 Atomic wfc used for LDA+U Projector are orthogonalized
     Starting wfcs are   21 atomic wfcs
     Checking if some PAW data can be deallocated... 

     Band Structure Calculation
     Davidson diagonalization with overlap

     ethr =  1.00E-11,  avg # of iterations = 22.5

     total cpu time spent up to now is       -1.0 secs

     End of band structure calculation

 ------ SPIN UP ------------


          k = 0.0000 0.0000 0.0000 (  5809 PWs)   bands (ev):

   -98.4630 -61.7801 -61.7801 -61.5845 -22.8305 -20.5249  -8.5164  -8.5095
    -8.5095  -4.7345  -4.4418  -4.4418  -4.3945  -4.3945  -2.5599  -0.1898
    -0.1898   3.5444   4.0681

          k =-0.5000-0.2887 0.0000 (  5654 PWs)   bands (ev):

   -98.4553 -61.8604 -61.7992 -61.5723 -20.9858 -20.9738  -9.7765  -7.8896
    -7.7625  -6.6569  -6.0498  -5.0968  -3.8742  -3.8724  -3.3568  -0.8238
    -0.3351   8.7771   9.4518

          k = 0.1667 0.0962 0.0000 (  5739 PWs)   bands (ev):

   -98.4611 -61.8003 -61.7849 -61.5815 -22.4828 -20.5611  -8.7305  -8.2878
    -8.1582  -6.1815  -5.4931  -4.3466  -3.7631  -3.5298  -2.5783  -0.9042
    -0.3680   4.3158   4.7299

          k =-0.3333-0.1925 0.0000 (  5702 PWs)   bands (ev):

   -98.4572 -61.8404 -61.7944 -61.5753 -21.6705 -20.6825  -9.1126  -8.1064
    -7.8796  -6.9450  -6.0815  -4.6661  -3.6179  -3.5305  -3.0500  -1.1518
    -0.4272   6.3827   6.6148

          k = 0.3333 0.1925 0.0000 (  5702 PWs)   bands (ev):

   -98.4572 -61.8404 -61.7944 -61.5753 -21.6705 -20.6825  -9.1126  -8.1064
    -7.8796  -6.9450  -6.0815  -4.6661  -3.6179  -3.5305  -3.0500  -1.1518
    -0.4272   6.3827   6.6148

          k =-0.1667-0.0962 0.0000 (  5739 PWs)   bands (ev):

   -98.4611 -61.8003 -61.7849 -61.5815 -22.4828 -20.5611  -8.7305  -8.2878
    -8.1582  -6.1815  -5.4931  -4.3466  -3.7631  -3.5298  -2.5783  -0.9042
    -0.3680   4.3158   4.7299

          k =-0.5000-0.2887 0.0000 (  5654 PWs)   bands (ev):

   -98.4553 -61.8604 -61.7992 -61.5723 -20.9858 -20.9738  -9.7765  -7.8896
    -7.7625  -6.6569  -6.0498  -5.0968  -3.8742  -3.8724  -3.3568  -0.8238
    -0.3351   8.7771   9.4518

          k =-1.0000-0.5774 0.0000 (  5809 PWs)   bands (ev):

   -98.4630 -61.7801 -61.7801 -61.5845 -22.8305 -20.5249  -8.5164  -8.5095
    -8.5095  -4.7345  -4.4418  -4.4418  -4.3945  -4.3945  -2.5599  -0.1898
    -0.1898   3.5444   4.0681

          k = 0.3333 0.0000 0.0000 (  5747 PWs)   bands (ev):

   -98.4582 -61.8266 -61.7959 -61.5769 -21.9020 -20.6340  -8.7939  -8.2346
    -7.7425  -6.9421  -6.4902  -4.3291  -3.7638  -3.0604  -2.9346  -1.1051
    -0.7674   5.7378   6.0043

          k =-0.1667-0.2887 0.0000 (  5747 PWs)   bands (ev):

   -98.4582 -61.8266 -61.7959 -61.5769 -21.9020 -20.6340  -8.7939  -8.2346
    -7.7425  -6.9421  -6.4902  -4.3291  -3.7638  -3.0604  -2.9346  -1.1051
    -0.7674   5.7378   6.0043

          k = 0.5000 0.0962 0.0000 (  5694 PWs)   bands (ev):

   -98.4553 -61.8501 -61.8096 -61.5723 -21.1749 -20.7851  -9.2412  -8.4908
    -7.4476  -6.8094  -6.5057  -5.2145  -3.7504  -3.6035  -3.0413  -0.9274
    -0.7318   8.3449   8.4804

          k =-0.0000-0.1925 0.0000 (  5739 PWs)   bands (ev):

   -98.4611 -61.8003 -61.7849 -61.5815 -22.4828 -20.5611  -8.7305  -8.2878
    -8.1582  -6.1815  -5.4931  -4.3466  -3.7631  -3.5298  -2.5783  -0.9042
    -0.3680   4.3158   4.7299

          k = 0.6667 0.0000 0.0000 (  5664 PWs)   bands (ev):

   -98.4543 -61.8360 -61.8360 -61.5708 -20.8738 -20.8738  -8.7300  -8.7300
    -8.2241  -6.2715  -6.2715  -6.0688  -4.0233  -3.1390  -3.1390  -0.9416
    -0.9416  10.7981  11.0863

          k = 0.1667-0.2887 0.0000 (  5747 PWs)   bands (ev):

   -98.4582 -61.8266 -61.7959 -61.5769 -21.9020 -20.6340  -8.7939  -8.2346
    -7.7425  -6.9421  -6.4902  -4.3291  -3.7638  -3.0604  -2.9346  -1.1051
    -0.7674   5.7378   6.0043

          k = 0.1667-0.0962 0.0000 (  5739 PWs)   bands (ev):

   -98.4611 -61.8003 -61.7849 -61.5815 -22.4828 -20.5611  -8.7305  -8.2878
    -8.1582  -6.1815  -5.4931  -4.3466  -3.7631  -3.5298  -2.5783  -0.9042
    -0.3680   4.3158   4.7299

          k =-0.3333-0.3849 0.0000 (  5694 PWs)   bands (ev):

   -98.4553 -61.8501 -61.8096 -61.5723 -21.1749 -20.7851  -9.2412  -8.4908
    -7.4476  -6.8094  -6.5057  -5.2145  -3.7504  -3.6035  -3.0413  -0.9274
    -0.7318   8.3449   8.4804

          k = 0.3333-0.1925 0.0000 (  5702 PWs)   bands (ev):

   -98.4572 -61.8404 -61.7944 -61.5753 -21.6705 -20.6825  -9.1126  -8.1064
    -7.8796  -6.9450  -6.0815  -4.6661  -3.6179  -3.5305  -3.0500  -1.1518
    -0.4272   6.3827   6.6148

          k =-0.1667-0.4811 0.0000 (  5694 PWs)   bands (ev):

   -98.4553 -61.8501 -61.8096 -61.5723 -21.1749 -20.7851  -9.2412  -8.4908
    -7.4476  -6.8094  -6.5057  -5.2145  -3.7504  -3.6035  -3.0413  -0.9274
    -0.7318   8.3449   8.4804

          k =-0.5000 0.2887 0.0000 (  5654 PWs)   bands (ev):

   -98.4553 -61.8604 -61.7992 -61.5723 -20.9858 -20.9738  -9.7765  -7.8896
    -7.7625  -6.6569  -6.0498  -5.0968  -3.8742  -3.8724  -3.3568  -0.8238
    -0.3351   8.7771   9.4518

          k =-1.0000 0.0000 0.0000 (  5654 PWs)   bands (ev):

   -98.4553 -61.8604 -61.7992 -61.5723 -20.9858 -20.9738  -9.7765  -7.8896
    -7.7625  -6.6569  -6.0498  -5.0968  -3.8742  -3.8724  -3.3568  -0.8238
    -0.3351   8.7771   9.4518

          k =-0.1667 0.2887 0.0000 (  5747 PWs)   bands (ev):

   -98.4582 -61.8266 -61.7959 -61.5769 -21.9020 -20.6340  -8.7939  -8.2346
    -7.7425  -6.9421  -6.4902  -4.3291  -3.7638  -3.0604  -2.9346  -1.1051
    -0.7674   5.7378   6.0043

          k =-0.6667 0.0000 0.0000 (  5664 PWs)   bands (ev):

   -98.4543 -61.8360 -61.8360 -61.5708 -20.8738 -20.8738  -8.7300  -8.7300
    -8.2241  -6.2715  -6.2715  -6.0688  -4.0233  -3.1390  -3.1390  -0.9416
    -0.9416  10.7981  11.0863

          k = 0.5000-0.0962 0.0000 (  5694 PWs)   bands (ev):

   -98.4553 -61.8501 -61.8096 -61.5723 -21.1749 -20.7851  -9.2412  -8.4908
    -7.4476  -6.8094  -6.5057  -5.2145  -3.7504  -3.6035  -3.0413  -0.9274
    -0.7318   8.3449   8.4804

          k =-0.0000-0.3849 0.0000 (  5702 PWs)   bands (ev):

   -98.4572 -61.8404 -61.7944 -61.5753 -21.6705 -20.6825  -9.1126  -8.1064
    -7.8796  -6.9450  -6.0815  -4.6661  -3.6179  -3.5305  -3.0500  -1.1518
    -0.4272   6.3827   6.6148

          k =-0.1667 0.4811 0.0000 (  5694 PWs)   bands (ev):

   -98.4553 -61.8501 -61.8096 -61.5723 -21.1749 -20.7851  -9.2412  -8.4908
    -7.4476  -6.8094  -6.5057  -5.2145  -3.7504  -3.6035  -3.0413  -0.9274
    -0.7318   8.3449   8.4804

          k =-0.6667 0.1925 0.0000 (  5694 PWs)   bands (ev):

   -98.4553 -61.8501 -61.8096 -61.5723 -21.1749 -20.7851  -9.2412  -8.4908
    -7.4476  -6.8094  -6.5057  -5.2145  -3.7504  -3.6035  -3.0413  -0.9274
    -0.7318   8.3449   8.4804

 ------ SPIN DOWN ----------


          k = 0.0000 0.0000 0.0000 (  5809 PWs)   bands (ev):

   -99.5024 -62.7139 -62.7139 -62.7106 -22.9758 -20.6846  -8.9587  -8.8663
    -8.8663  -5.2617  -5.2617  -4.9875  -4.5516  -4.5516  -3.4951  -0.6783
    -0.6783   3.4929   4.0144

          k =-0.5000-0.2887 0.0000 (  5654 PWs)   bands (ev):

   -99.4950 -62.7901 -62.7320 -62.6993 -21.1431 -21.1402 -10.0074  -8.1268
    -8.0244  -7.1333  -6.1583  -5.3374  -4.8817  -4.7836  -4.1602  -1.4207
    -0.8289   8.6997   9.3915

          k = 0.1667 0.0962 0.0000 (  5739 PWs)   bands (ev):

   -99.5005 -62.7330 -62.7184 -62.7078 -22.6302 -20.7232  -9.0522  -8.6353
    -8.5952  -6.5314  -5.9597  -4.7010  -4.3554  -4.0679  -3.4591  -1.4229
    -0.8514   4.2728   4.6754

          k =-0.3333-0.1925 0.0000 (  5702 PWs)   bands (ev):

   -99.4968 -62.7711 -62.7275 -62.7021 -21.8238 -20.8479  -9.3802  -8.3328
    -8.2245  -7.4014  -6.3879  -4.9902  -4.3881  -4.2586  -3.8953  -1.7371
    -0.9110   6.3405   6.5633

          k = 0.3333 0.1925 0.0000 (  5702 PWs)   bands (ev):

   -99.4968 -62.7711 -62.7275 -62.7021 -21.8238 -20.8479  -9.3802  -8.3328
    -8.2245  -7.4014  -6.3879  -4.9902  -4.3881  -4.2586  -3.8953  -1.7371
    -0.9110   6.3405   6.5633

          k =-0.1667-0.0962 0.0000 (  5739 PWs)   bands (ev):

   -99.5005 -62.7330 -62.7184 -62.7078 -22.6302 -20.7232  -9.0522  -8.6353
    -8.5952  -6.5314  -5.9597  -4.7010  -4.3554  -4.0679  -3.4591  -1.4229
    -0.8514   4.2728   4.6754

          k =-0.5000-0.2887 0.0000 (  5654 PWs)   bands (ev):

   -99.4950 -62.7901 -62.7320 -62.6993 -21.1431 -21.1402 -10.0074  -8.1268
    -8.0244  -7.1333  -6.1583  -5.3374  -4.8817  -4.7836  -4.1602  -1.4207
    -0.8289   8.6997   9.3915

          k =-1.0000-0.5774 0.0000 (  5809 PWs)   bands (ev):

   -99.5024 -62.7139 -62.7139 -62.7106 -22.9758 -20.6846  -8.9587  -8.8663
    -8.8663  -5.2617  -5.2617  -4.9875  -4.5516  -4.5516  -3.4951  -0.6783
    -0.6783   3.4929   4.0144

          k = 0.3333 0.0000 0.0000 (  5747 PWs)   bands (ev):

   -99.4978 -62.7580 -62.7289 -62.7035 -22.0534 -20.7991  -9.0813  -8.5383
    -8.1034  -7.2843  -6.8655  -4.6002  -4.5904  -3.8370  -3.6727  -1.6425
    -1.2716   5.6984   5.9505

          k =-0.1667-0.2887 0.0000 (  5747 PWs)   bands (ev):

   -99.4978 -62.7580 -62.7289 -62.7035 -22.0534 -20.7991  -9.0813  -8.5383
    -8.1034  -7.2843  -6.8655  -4.6002  -4.5904  -3.8370  -3.6727  -1.6425
    -1.2716   5.6984   5.9505

          k = 0.5000 0.0962 0.0000 (  5694 PWs)   bands (ev):

   -99.4950 -62.7803 -62.7419 -62.6993 -21.3332 -20.9507  -9.4787  -8.7429
    -7.6928  -7.0735  -6.9416  -5.5073  -4.7631  -4.4299  -3.7540  -1.4950
    -1.2510   8.2950   8.4341

          k =-0.0000-0.1925 0.0000 (  5739 PWs)   bands (ev):

   -99.5005 -62.7330 -62.7184 -62.7078 -22.6302 -20.7232  -9.0522  -8.6353
    -8.5952  -6.5314  -5.9597  -4.7010  -4.3554  -4.0679  -3.4591  -1.4229
    -0.8514   4.2728   4.6754

          k = 0.6667 0.0000 0.0000 (  5664 PWs)   bands (ev):

   -99.4941 -62.7670 -62.7670 -62.6979 -21.0373 -21.0373  -8.9849  -8.9849
    -8.3545  -6.7092  -6.7092  -6.1802  -5.1344  -3.9125  -3.9125  -1.4891
    -1.4891  10.7364  10.9866

          k = 0.1667-0.2887 0.0000 (  5747 PWs)   bands (ev):

   -99.4978 -62.7580 -62.7289 -62.7035 -22.0534 -20.7991  -9.0813  -8.5383
    -8.1034  -7.2843  -6.8655  -4.6002  -4.5904  -3.8370  -3.6727  -1.6425
    -1.2716   5.6984   5.9505

          k = 0.1667-0.0962 0.0000 (  5739 PWs)   bands (ev):

   -99.5005 -62.7330 -62.7184 -62.7078 -22.6302 -20.7232  -9.0522  -8.6353
    -8.5952  -6.5314  -5.9597  -4.7010  -4.3554  -4.0679  -3.4591  -1.4229
    -0.8514   4.2728   4.6754

          k =-0.3333-0.3849 0.0000 (  5694 PWs)   bands (ev):

   -99.4950 -62.7803 -62.7419 -62.6993 -21.3332 -20.9507  -9.4787  -8.7429
    -7.6928  -7.0735  -6.9416  -5.5073  -4.7631  -4.4299  -3.7540  -1.4950
    -1.2510   8.2950   8.4341

          k = 0.3333-0.1925 0.0000 (  5702 PWs)   bands (ev):

   -99.4968 -62.7711 -62.7275 -62.7021 -21.8238 -20.8479  -9.3802  -8.3328
    -8.2245  -7.4014  -6.3879  -4.9902  -4.3881  -4.2586  -3.8953  -1.7371
    -0.9110   6.3405   6.5633

          k =-0.1667-0.4811 0.0000 (  5694 PWs)   bands (ev):

   -99.4950 -62.7803 -62.7419 -62.6993 -21.3332 -20.9507  -9.4787  -8.7429
    -7.6928  -7.0735  -6.9416  -5.5073  -4.7631  -4.4299  -3.7540  -1.4950
    -1.2510   8.2950   8.4341

          k =-0.5000 0.2887 0.0000 (  5654 PWs)   bands (ev):

   -99.4950 -62.7901 -62.7320 -62.6993 -21.1431 -21.1402 -10.0074  -8.1268
    -8.0244  -7.1333  -6.1583  -5.3374  -4.8817  -4.7836  -4.1602  -1.4207
    -0.8289   8.6997   9.3915

          k =-1.0000 0.0000 0.0000 (  5654 PWs)   bands (ev):

   -99.4950 -62.7901 -62.7320 -62.6993 -21.1431 -21.1402 -10.0074  -8.1268
    -8.0244  -7.1333  -6.1583  -5.3374  -4.8817  -4.7836  -4.1602  -1.4207
    -0.8289   8.6997   9.3915

          k =-0.1667 0.2887 0.0000 (  5747 PWs)   bands (ev):

   -99.4978 -62.7580 -62.7289 -62.7035 -22.0534 -20.7991  -9.0813  -8.5383
    -8.1034  -7.2843  -6.8655  -4.6002  -4.5904  -3.8370  -3.6727  -1.6425
    -1.2716   5.6984   5.9505

          k =-0.6667 0.0000 0.0000 (  5664 PWs)   bands (ev):

   -99.4941 -62.7670 -62.7670 -62.6979 -21.0373 -21.0373  -8.9849  -8.9849
    -8.3545  -6.7092  -6.7092  -6.1802  -5.1344  -3.9125  -3.9125  -1.4891
    -1.4891  10.7364  10.9866

          k = 0.5000-0.0962 0.0000 (  5694 PWs)   bands (ev):

   -99.4950 -62.7803 -62.7419 -62.6993 -21.3332 -20.9507  -9.4787  -8.7429
    -7.6928  -7.0735  -6.9416  -5.5073  -4.7631  -4.4299  -3.7540  -1.4950
    -1.2510   8.2950   8.4341

          k =-0.0000-0.3849 0.0000 (  5702 PWs)   bands (ev):

   -99.4968 -62.7711 -62.7275 -62.7021 -21.8238 -20.8479  -9.3802  -8.3328
    -8.2245  -7.4014  -6.3879  -4.9902  -4.3881  -4.2586  -3.8953  -1.7371
    -0.9110   6.3405   6.5633

          k =-0.1667 0.4811 0.0000 (  5694 PWs)   bands (ev):

   -99.4950 -62.7803 -62.7419 -62.6993 -21.3332 -20.9507  -9.4787  -8.7429
    -7.6928  -7.0735  -6.9416  -5.5073  -4.7631  -4.4299  -3.7540  -1.4950
    -1.2510   8.2950   8.4341

          k =-0.6667 0.1925 0.0000 (  5694 PWs)   bands (ev):

   -99.4950 -62.7803 -62.7419 -62.6993 -21.3332 -20.9507  -9.4787  -8.7429
    -7.6928  -7.0735  -6.9416  -5.5073  -4.7631  -4.4299  -3.7540  -1.4950
    -1.2510   8.2950   8.4341

     the Fermi energy is    -3.1254 ev

     Writing output data file CoO2.save/
     Done!

                   WRITING LINEAR-RESPONSE SUMMARY:


     Number of symmetries in the small group of q, nsymq =  4
      + the symmetry q -> -q+G 

     Symmetry matrices (and vectors of fractional translations if f/=0):

     isym =  1     identity                                     

     cryst.   s( 1) = (     1          0          0      )
                      (     0          1          0      )
                      (     0          0          1      )

     cart.    s( 1) = (  1.0000000  0.0000000  0.0000000 )
                      (  0.0000000  1.0000000  0.0000000 )
                      (  0.0000000  0.0000000  1.0000000 )


     isym =  2     180 deg rotation - cryst. axis [0,1,0]       

     cryst.   s( 2) = (     1          0          0      )
                      (    -1         -1          0      )
                      (     0          0         -1      )

     cart.    s( 2) = ( -0.5000000 -0.8660254  0.0000000 )
                      ( -0.8660254  0.5000000  0.0000000 )
                      (  0.0000000  0.0000000 -1.0000000 )


     isym =  3     inversion                                    

     cryst.   s( 3) = (    -1          0          0      )
                      (     0         -1          0      )
                      (     0          0         -1      )

     cart.    s( 3) = ( -1.0000000  0.0000000  0.0000000 )
                      (  0.0000000 -1.0000000  0.0000000 )
                      (  0.0000000  0.0000000 -1.0000000 )


     isym =  4     inv. 180 deg rotation - cryst. axis [0,1,0]  

     cryst.   s( 4) = (    -1          0          0      )
                      (     1          1          0      )
                      (     0          0          1      )

     cart.    s( 4) = (  0.5000000  0.8660254  0.0000000 )
                      (  0.8660254 -0.5000000  0.0000000 )
                      (  0.0000000  0.0000000  1.0000000 )


     This transformation sends q -> -q+G

     isym =  5     identity                                     

     cryst.   s( 5) = (     1          0          0      )
                      (     0          1          0      )
                      (     0          0          1      )

     cart.    s( 5) = (  1.0000000  0.0000000  0.0000000 )
                      (  0.0000000  1.0000000  0.0000000 )
                      (  0.0000000  0.0000000  1.0000000 )


     G cutoff =  343.4699  (  16155 G-vectors)     FFT grid: ( 40, 40,216)
     G cutoff =  171.7350  (   5694 G-vectors)  smooth grid: ( 27, 27,150)

     Number of k (and k+q if q/=0) points =    52  mv smearing, width (Ry) =  0.0100

                       cart. coord. (in units 2pi/alat)
        k (    1) = (   0.0000000   0.0000000   0.0000000), wk = 0.0277778
        k (    2) = (  -0.5000000  -0.2886751   0.0000000), wk = 0.0000000
        k (    3) = (   0.1666667   0.0962250   0.0000000), wk = 0.0555556
        k (    4) = (  -0.3333333  -0.1924501   0.0000000), wk = 0.0000000
        k (    5) = (   0.3333333   0.1924501   0.0000000), wk = 0.0555556
        k (    6) = (  -0.1666667  -0.0962250   0.0000000), wk = 0.0000000
        k (    7) = (  -0.5000000  -0.2886751   0.0000000), wk = 0.0277778
        k (    8) = (  -1.0000000  -0.5773503   0.0000000), wk = 0.0000000
        k (    9) = (   0.3333333   0.0000000   0.0000000), wk = 0.1111111
        k (   10) = (  -0.1666667  -0.2886751   0.0000000), wk = 0.0000000
        k (   11) = (   0.5000000   0.0962250   0.0000000), wk = 0.1111111
        k (   12) = (  -0.0000000  -0.1924501   0.0000000), wk = 0.0000000
        k (   13) = (   0.6666667   0.0000000   0.0000000), wk = 0.0555556
        k (   14) = (   0.1666667  -0.2886751   0.0000000), wk = 0.0000000
        k (   15) = (   0.1666667  -0.0962250   0.0000000), wk = 0.1111111
        k (   16) = (  -0.3333333  -0.3849002   0.0000000), wk = 0.0000000
        k (   17) = (   0.3333333  -0.1924501   0.0000000), wk = 0.1111111
        k (   18) = (  -0.1666667  -0.4811252   0.0000000), wk = 0.0000000
        k (   19) = (  -0.5000000   0.2886751   0.0000000), wk = 0.0555556
        k (   20) = (  -1.0000000   0.0000000   0.0000000), wk = 0.0000000
        k (   21) = (  -0.1666667   0.2886751   0.0000000), wk = 0.0555556
        k (   22) = (  -0.6666667   0.0000000   0.0000000), wk = 0.0000000
        k (   23) = (   0.5000000  -0.0962250   0.0000000), wk = 0.1111111
        k (   24) = (  -0.0000000  -0.3849002   0.0000000), wk = 0.0000000
        k (   25) = (  -0.1666667   0.4811252   0.0000000), wk = 0.1111111
        k (   26) = (  -0.6666667   0.1924501   0.0000000), wk = 0.0000000
        k (   27) = (   0.0000000   0.0000000   0.0000000), wk = 0.0277778
        k (   28) = (  -0.5000000  -0.2886751   0.0000000), wk = 0.0000000
        k (   29) = (   0.1666667   0.0962250   0.0000000), wk = 0.0555556
        k (   30) = (  -0.3333333  -0.1924501   0.0000000), wk = 0.0000000
        k (   31) = (   0.3333333   0.1924501   0.0000000), wk = 0.0555556
        k (   32) = (  -0.1666667  -0.0962250   0.0000000), wk = 0.0000000
        k (   33) = (  -0.5000000  -0.2886751   0.0000000), wk = 0.0277778
        k (   34) = (  -1.0000000  -0.5773503   0.0000000), wk = 0.0000000
        k (   35) = (   0.3333333   0.0000000   0.0000000), wk = 0.1111111
        k (   36) = (  -0.1666667  -0.2886751   0.0000000), wk = 0.0000000
        k (   37) = (   0.5000000   0.0962250   0.0000000), wk = 0.1111111
        k (   38) = (  -0.0000000  -0.1924501   0.0000000), wk = 0.0000000
        k (   39) = (   0.6666667   0.0000000   0.0000000), wk = 0.0555556
        k (   40) = (   0.1666667  -0.2886751   0.0000000), wk = 0.0000000
        k (   41) = (   0.1666667  -0.0962250   0.0000000), wk = 0.1111111
        k (   42) = (  -0.3333333  -0.3849002   0.0000000), wk = 0.0000000
        k (   43) = (   0.3333333  -0.1924501   0.0000000), wk = 0.1111111
        k (   44) = (  -0.1666667  -0.4811252   0.0000000), wk = 0.0000000
        k (   45) = (  -0.5000000   0.2886751   0.0000000), wk = 0.0555556
        k (   46) = (  -1.0000000   0.0000000   0.0000000), wk = 0.0000000
        k (   47) = (  -0.1666667   0.2886751   0.0000000), wk = 0.0555556
        k (   48) = (  -0.6666667   0.0000000   0.0000000), wk = 0.0000000
        k (   49) = (   0.5000000  -0.0962250   0.0000000), wk = 0.1111111
        k (   50) = (  -0.0000000  -0.3849002   0.0000000), wk = 0.0000000
        k (   51) = (  -0.1666667   0.4811252   0.0000000), wk = 0.1111111
        k (   52) = (  -0.6666667   0.1924501   0.0000000), wk = 0.0000000

                       cryst. coord.
        k (    1) = (   0.0000000   0.0000000   0.0000000), wk = 0.0277778
        k (    2) = (   0.0000000  -0.5000000   0.0000000), wk = 0.0000000
        k (    3) = (   0.0000000   0.1666667   0.0000000), wk = 0.0555556
        k (    4) = (   0.0000000  -0.3333333   0.0000000), wk = 0.0000000
        k (    5) = (   0.0000000   0.3333333   0.0000000), wk = 0.0555556
        k (    6) = (  -0.0000000  -0.1666667   0.0000000), wk = 0.0000000
        k (    7) = (   0.0000000  -0.5000000   0.0000000), wk = 0.0277778
        k (    8) = (   0.0000000  -1.0000000   0.0000000), wk = 0.0000000
        k (    9) = (   0.1666667   0.1666667   0.0000000), wk = 0.1111111
        k (   10) = (   0.1666667  -0.3333333   0.0000000), wk = 0.0000000
        k (   11) = (   0.1666667   0.3333333   0.0000000), wk = 0.1111111
        k (   12) = (   0.1666667  -0.1666667   0.0000000), wk = 0.0000000
        k (   13) = (   0.3333333   0.3333333   0.0000000), wk = 0.0555556
        k (   14) = (   0.3333333  -0.1666667   0.0000000), wk = 0.0000000
        k (   15) = (   0.1666667   0.0000000   0.0000000), wk = 0.1111111
        k (   16) = (   0.1666667  -0.5000000   0.0000000), wk = 0.0000000
        k (   17) = (   0.3333333   0.0000000   0.0000000), wk = 0.1111111
        k (   18) = (   0.3333333  -0.5000000   0.0000000), wk = 0.0000000
        k (   19) = (  -0.5000000   0.0000000   0.0000000), wk = 0.0555556
        k (   20) = (  -0.5000000  -0.5000000   0.0000000), wk = 0.0000000
        k (   21) = (  -0.3333333   0.1666667   0.0000000), wk = 0.0555556
        k (   22) = (  -0.3333333  -0.3333333   0.0000000), wk = 0.0000000
        k (   23) = (   0.3333333   0.1666667   0.0000000), wk = 0.1111111
        k (   24) = (   0.3333333  -0.3333333   0.0000000), wk = 0.0000000
        k (   25) = (  -0.5000000   0.3333333   0.0000000), wk = 0.1111111
        k (   26) = (  -0.5000000  -0.1666667   0.0000000), wk = 0.0000000
        k (   27) = (   0.0000000   0.0000000   0.0000000), wk = 0.0277778
        k (   28) = (   0.0000000  -0.5000000   0.0000000), wk = 0.0000000
        k (   29) = (   0.0000000   0.1666667   0.0000000), wk = 0.0555556
        k (   30) = (   0.0000000  -0.3333333   0.0000000), wk = 0.0000000
        k (   31) = (   0.0000000   0.3333333   0.0000000), wk = 0.0555556
        k (   32) = (  -0.0000000  -0.1666667   0.0000000), wk = 0.0000000
        k (   33) = (   0.0000000  -0.5000000   0.0000000), wk = 0.0277778
        k (   34) = (   0.0000000  -1.0000000   0.0000000), wk = 0.0000000
        k (   35) = (   0.1666667   0.1666667   0.0000000), wk = 0.1111111
        k (   36) = (   0.1666667  -0.3333333   0.0000000), wk = 0.0000000
        k (   37) = (   0.1666667   0.3333333   0.0000000), wk = 0.1111111
        k (   38) = (   0.1666667  -0.1666667   0.0000000), wk = 0.0000000
        k (   39) = (   0.3333333   0.3333333   0.0000000), wk = 0.0555556
        k (   40) = (   0.3333333  -0.1666667   0.0000000), wk = 0.0000000
        k (   41) = (   0.1666667   0.0000000   0.0000000), wk = 0.1111111
        k (   42) = (   0.1666667  -0.5000000   0.0000000), wk = 0.0000000
        k (   43) = (   0.3333333   0.0000000   0.0000000), wk = 0.1111111
        k (   44) = (   0.3333333  -0.5000000   0.0000000), wk = 0.0000000
        k (   45) = (  -0.5000000   0.0000000   0.0000000), wk = 0.0555556
        k (   46) = (  -0.5000000  -0.5000000   0.0000000), wk = 0.0000000
        k (   47) = (  -0.3333333   0.1666667   0.0000000), wk = 0.0555556
        k (   48) = (  -0.3333333  -0.3333333   0.0000000), wk = 0.0000000
        k (   49) = (   0.3333333   0.1666667   0.0000000), wk = 0.1111111
        k (   50) = (   0.3333333  -0.3333333   0.0000000), wk = 0.0000000
        k (   51) = (  -0.5000000   0.3333333   0.0000000), wk = 0.1111111
        k (   52) = (  -0.5000000  -0.1666667   0.0000000), wk = 0.0000000

     Atomic wfc used for the DFT+U projector are orthogonalized

     Total time spent up to now is:
     HP           :   1m 6.30s CPU   1m 8.06s WALL

      =--------------------------------------------=
             START SOLVING THE LINEAR SYSTEM
      =--------------------------------------------=

      atom #  1   q point #   2   iter #   1
      chi:   1  -1.7818413784
      Average number of iter. to solve lin. system:   34.2
      Total CPU time :    75.1 s

      atom #  1   q point #   2   iter #   2
      chi:   1  16.0365037244   residue:   17.8183451028
      Average number of iter. to solve lin. system:   17.4
      Total CPU time :    79.6 s

      atom #  1   q point #   2   iter #   3
      chi:   1  -0.1513008745   residue:   16.1878045989
      Average number of iter. to solve lin. system:   13.7
      Total CPU time :    83.6 s

      atom #  1   q point #   2   iter #   4
      chi:   1  -0.2340003309   residue:    0.0826994564
      Average number of iter. to solve lin. system:   17.2
      Total CPU time :    88.4 s

      atom #  1   q point #   2   iter #   5
      chi:   1  -0.1617165640   residue:    0.0722837669
      Average number of iter. to solve lin. system:   13.9
      Total CPU time :    92.8 s

      atom #  1   q point #   2   iter #   6
      chi:   1  -0.1282990191   residue:    0.0334175449
      Average number of iter. to solve lin. system:   15.0
      Total CPU time :    97.0 s

      atom #  1   q point #   2   iter #   7
      chi:   1  -0.1283187455   residue:    0.0000197264
      Average number of iter. to solve lin. system:   16.5
      Total CPU time :   101.6 s

      atom #  1   q point #   2   iter #   8
      chi:   1  -0.1280012199   residue:    0.0003175256
      Average number of iter. to solve lin. system:   17.1
      Total CPU time :   106.5 s

      atom #  1   q point #   2   iter #   9
      chi:   1  -0.1290407625   residue:    0.0010395426
      Average number of iter. to solve lin. system:   18.1
      Total CPU time :   111.3 s

      atom #  1   q point #   2   iter #  10
      chi:   1  -0.1270952731   residue:    0.0019454894
      Average number of iter. to solve lin. system:   15.8
      Total CPU time :   115.6 s

      atom #  1   q point #   2   iter #  11
      chi:   1  -0.1268788068   residue:    0.0002164664
      Average number of iter. to solve lin. system:   14.7
      Total CPU time :   119.7 s

      atom #  1   q point #   2   iter #  12
      chi:   1  -0.1279037106   residue:    0.0010249039
      Average number of iter. to solve lin. system:   15.5
      Total CPU time :   124.0 s

      atom #  1   q point #   2   iter #  13
      chi:   1  -0.1276470818   residue:    0.0002566288
      Average number of iter. to solve lin. system:   16.2
      Total CPU time :   128.6 s

      atom #  1   q point #   2   iter #  14
      chi:   1  -0.1276712805   residue:    0.0000241987
      Average number of iter. to solve lin. system:   17.3
      Total CPU time :   133.0 s

      atom #  1   q point #   2   iter #  15
      chi:   1  -0.1276223996   residue:    0.0000488808
      Average number of iter. to solve lin. system:   15.9
      Total CPU time :   137.0 s

      atom #  1   q point #   2   iter #  16
      chi:   1  -0.1276110202   residue:    0.0000113794
      Average number of iter. to solve lin. system:   17.7
      Total CPU time :   141.3 s

      atom #  1   q point #   2   iter #  17
      chi:   1  -0.1276334403   residue:    0.0000224201
      Average number of iter. to solve lin. system:   18.5
      Total CPU time :   145.7 s

      atom #  1   q point #   2   iter #  18
      chi:   1  -0.1276223546   residue:    0.0000110858
      Average number of iter. to solve lin. system:   16.5
      Total CPU time :   149.9 s

      atom #  1   q point #   2   iter #  19
      chi:   1  -0.1276245113   residue:    0.0000021567
      Average number of iter. to solve lin. system:   18.8
      Total CPU time :   155.1 s

      atom #  1   q point #   2   iter #  20
      chi:   1  -0.1276232296   residue:    0.0000012817
      Average number of iter. to solve lin. system:   16.3
      Total CPU time :   159.7 s

      atom #  1   q point #   2   iter #  21
      chi:   1  -0.1276227567   residue:    0.0000004729
      Average number of iter. to solve lin. system:   18.7
      Total CPU time :   164.6 s

      atom #  1   q point #   2   iter #  22
      chi:   1  -0.1276227785   residue:    0.0000000218
      Average number of iter. to solve lin. system:   18.0
      Total CPU time :   169.4 s

      atom #  1   q point #   2   iter #  23
      chi:   1  -0.1276228102   residue:    0.0000000317
      Average number of iter. to solve lin. system:   17.3
      Total CPU time :   173.6 s

      atom #  1   q point #   2   iter #  24
      chi:   1  -0.1276228937   residue:    0.0000000835
      Average number of iter. to solve lin. system:   19.3
      Total CPU time :   178.2 s

      atom #  1   q point #   2   iter #  25
      chi:   1  -0.1276228633   residue:    0.0000000304
      Average number of iter. to solve lin. system:   16.9
      Total CPU time :   182.6 s

      atom #  1   q point #   2   iter #  26
      chi:   1  -0.1276228733   residue:    0.0000000100
      Average number of iter. to solve lin. system:   15.8
      Total CPU time :   186.9 s

      atom #  1   q point #   2   iter #  27
      chi:   1  -0.1276228587   residue:    0.0000000145
      Average number of iter. to solve lin. system:   18.5
      Total CPU time :   191.8 s

      atom #  1   q point #   2   iter #  28
      chi:   1  -0.1276228706   residue:    0.0000000119
      Average number of iter. to solve lin. system:   16.0
      Total CPU time :   196.3 s

      atom #  1   q point #   2   iter #  29
      chi:   1  -0.1276228684   residue:    0.0000000022
      Average number of iter. to solve lin. system:   17.1
      Total CPU time :   200.7 s
      
      =--------------------------------------------=
             CONVERGENCE HAS BEEN REACHED
      =--------------------------------------------=

     Computing the sum over q of the response occupation matrices...

     q #   1 =  0.000000000   0.000000000   0.000000000
 
     Number of q in the star =    1
     List of q in the star:
          1   0.000000000   0.000000000   0.000000000

     q #   2 = -0.500000000  -0.288675135   0.000000000
 
     Number of q in the star =    3
     List of q in the star:
          1  -0.500000000  -0.288675135   0.000000000
          2  -0.500000000   0.288675135   0.000000000
          3   0.000000000  -0.577350269   0.000000000

     Post-processing calculation of Hubbard parameters ...

 
     PRINTING TIMING FROM PWSCF ROUTINES: 
 
     init_run     :      0.73s CPU      0.74s WALL (       1 calls)
     electrons    :      6.80s CPU      6.90s WALL (       1 calls)

     Called by init_run:
     wfcinit      :      0.08s CPU      0.08s WALL (       1 calls)
     wfcinit:atom :      0.01s CPU      0.01s WALL (      52 calls)
     wfcinit:wfcr :      0.42s CPU      0.45s WALL (      52 calls)
     potinit      :      0.10s CPU      0.10s WALL (       1 calls)
     hinit0       :      0.23s CPU      0.23s WALL (       1 calls)

     Called by electrons:
     c_bands      :      6.80s CPU      6.89s WALL (       1 calls)
     v_of_rho     :      0.11s CPU      0.11s WALL (       2 calls)
     v_h          :      0.00s CPU      0.00s WALL (       2 calls)
     v_xc         :      0.11s CPU      0.11s WALL (       2 calls)
     newd         :      0.12s CPU      0.14s WALL (       2 calls)
     PAW_pot      :      0.08s CPU      0.08s WALL (       2 calls)

     Called by c_bands:
     init_us_2    :      0.36s CPU      0.37s WALL (    1286 calls)
     cegterg      :      6.28s CPU      6.34s WALL (      72 calls)

     Called by sum_band:

     Called by *egterg:
     h_psi        :    115.73s CPU    119.11s WALL (   31373 calls)
     s_psi        :      5.11s CPU      4.57s WALL (   62632 calls)
     g_psi        :      0.03s CPU      0.04s WALL (    1170 calls)
     cdiaghg      :      1.14s CPU      1.14s WALL (    1222 calls)
     cegterg:over :      0.35s CPU      0.34s WALL (    1170 calls)
     cegterg:upda :      0.37s CPU      0.37s WALL (    1170 calls)
     cegterg:last :      0.15s CPU      0.14s WALL (     182 calls)

     Called by h_psi:
     h_psi:pot    :    114.03s CPU    117.02s WALL (   31373 calls)
     h_psi:calbec :      3.73s CPU      3.32s WALL (   31373 calls)
     vloc_psi     :    108.16s CPU    111.23s WALL (   31373 calls)
     add_vuspsi   :      2.08s CPU      2.38s WALL (   31373 calls)
     vhpsi        :      1.45s CPU      1.72s WALL (   31373 calls)

     General routines
     calbec       :      7.43s CPU      7.45s WALL (   95121 calls)
     fft          :      1.58s CPU      1.60s WALL (    1633 calls)
     ffts         :      0.13s CPU      0.13s WALL (     420 calls)
     fftw         :    113.52s CPU    113.37s WALL (  638570 calls)
     interpolate  :      0.28s CPU      0.29s WALL (     212 calls)
     davcio       :      2.58s CPU      3.11s WALL (   39905 calls)
 
     Parallel routines
     fft_scatt_xy :     10.77s CPU     13.21s WALL (  640623 calls)
     fft_scatt_yz :     26.36s CPU     24.79s WALL (  640623 calls)

     Hubbard U routines
     vhpsi        :      1.45s CPU      1.72s WALL (   31373 calls)

     PAW routines
     PAW_pot      :      0.08s CPU      0.08s WALL (       2 calls)
 
     init_vloc    :      0.10s CPU      0.10s WALL (       2 calls)
     init_us_1    :      0.11s CPU      0.11s WALL (       2 calls)
     newd         :      0.12s CPU      0.14s WALL (       2 calls)
     add_vuspsi   :      2.08s CPU      2.38s WALL (   31373 calls)
 
     PRINTING TIMING FROM HP ROUTINES: 
 
     hp_setup_q   :      0.43s CPU      0.44s WALL (       2 calls)
     hp_init_q    :      0.13s CPU      0.14s WALL (       2 calls)
     hp_solve_lin :    186.18s CPU    191.70s WALL (       2 calls)
     hp_dvpsi_per :      0.12s CPU      0.14s WALL (    1062 calls)
     hp_dnsq      :      0.19s CPU      0.31s WALL (      51 calls)
     hp_symdnsq   :      0.00s CPU      0.00s WALL (      51 calls)
     hp_dnstot_su :      0.00s CPU      0.00s WALL (       1 calls)
     hp_rotate_dn :      0.00s CPU      0.00s WALL (       4 calls)
     hp_calc_chi  :      0.00s CPU      0.00s WALL (       1 calls)
     hp_vpsifft   :      5.94s CPU      6.23s WALL (    1022 calls)
     hp_sphi      :      0.11s CPU      0.12s WALL (       2 calls)
     hp_ef_shift  :      0.09s CPU      0.09s WALL (      22 calls)
     hp_run_nscf  :      7.53s CPU      7.65s WALL (       1 calls)
     hp_psymdvscf :     11.27s CPU     11.26s WALL (      51 calls)
 
     PRINTING TIMING FROM LR MODULE: 
 
     ortho        :      0.53s CPU      0.57s WALL (    1062 calls)
     cgsolve      :    129.48s CPU    133.02s WALL (    1062 calls)
     ch_psi       :    125.58s CPU    129.34s WALL (   30079 calls)
     incdrhoscf   :      6.57s CPU      6.89s WALL (    1062 calls)
     localdos     :      0.16s CPU      0.16s WALL (       1 calls)
     dv_of_drho   :      2.23s CPU      2.24s WALL (      51 calls)
     mix_pot      :      0.59s CPU      0.90s WALL (      51 calls)
     setup_dgc    :      0.35s CPU      0.35s WALL (       2 calls)
     setup_dmuxc  :      0.08s CPU      0.08s WALL (       2 calls)
     setup_nbnd_o :      0.00s CPU      0.00s WALL (       2 calls)
     cft_wave     :      5.65s CPU      5.74s WALL (   30408 calls)
 
     USPP ROUTINES: 
 
     newdq        :      3.36s CPU      3.36s WALL (      51 calls)
     adddvscf     :      0.33s CPU      0.31s WALL (    1022 calls)
     addusdbec    :      0.22s CPU      0.20s WALL (    1062 calls)
     addusldos    :      0.07s CPU      0.07s WALL (       1 calls)
 
     HP           :   3m14.98s CPU   3m20.67s WALL

 
   This run was terminated on:  13:46:55  29Aug2018            

=------------------------------------------------------------------------------=
   JOB DONE.
=------------------------------------------------------------------------------=
