
     Program POST-PROC v.4.0    starts ...
     Today is 29Apr2008 at 18: 4:37 
     Reading header from file  Al100.pot
     Reading data from file  Al100.pot
    0.000000000    0.411979903    0.411977937
    0.023968750    0.411979931    0.411977931
    0.047937500    0.411980015    0.411977916
    0.071906250    0.411980150    0.411977890
    0.095875000    0.411980330    0.411977854
    0.119843750    0.411980546    0.411977809
    0.143812500    0.411980787    0.411977756
    0.167781250    0.411981041    0.411977695
    0.191750000    0.411981294    0.411977626
    0.215718750    0.411981534    0.411977552
    0.239687500    0.411981746    0.411977472
    0.263656250    0.411981919    0.411977388
    0.287625000    0.411982043    0.411977300
    0.311593750    0.411982108    0.411977210
    0.335562500    0.411982108    0.411977118
    0.359531250    0.411982040    0.411977024
    0.383500000    0.411981902    0.411976931
    0.407468750    0.411981697    0.411976838
    0.431437500    0.411981431    0.411976745
    0.455406250    0.411981111    0.411976653
    0.479375000    0.411980748    0.411976561
    0.503343750    0.411980354    0.411976471
    0.527312500    0.411979944    0.411976380
    0.551281250    0.411979533    0.411976290
    0.575250000    0.411979136    0.411976198
    0.599218750    0.411978770    0.411976105
    0.623187500    0.411978447    0.411976009
    0.647156250    0.411978181    0.411975910
    0.671125000    0.411977983    0.411975805
    0.695093750    0.411977860    0.411975694
    0.719062500    0.411977818    0.411975576
    0.743031250    0.411977857    0.411975449
    0.767000000    0.411977977    0.411975312
    0.790968750    0.411978170    0.411975163
    0.814937500    0.411978430    0.411975002
    0.838906250    0.411978742    0.411974828
    0.862875000    0.411979093    0.411974639
    0.886843750    0.411979465    0.411974436
    0.910812500    0.411979841    0.411974218
    0.934781250    0.411980199    0.411973984
    0.958750000    0.411980521    0.411973735
    0.982718750    0.411980789    0.411973470
    1.006687500    0.411980983    0.411973191
    1.030656250    0.411981090    0.411972898
    1.054625000    0.411981097    0.411972592
    1.078593750    0.411980994    0.411972274
    1.102562500    0.411980778    0.411971945
    1.126531250    0.411980446    0.411971606
    1.150500000    0.411980003    0.411971258
    1.174468750    0.411979456    0.411970903
    1.198437499    0.411978817    0.411970542
    1.222406249    0.411978102    0.411970176
    1.246374999    0.411977329    0.411969805
    1.270343749    0.411976521    0.411969431
    1.294312499    0.411975701    0.411969054
    1.318281249    0.411974893    0.411968674
    1.342249999    0.411974121    0.411968292
    1.366218749    0.411973410    0.411967905
    1.390187499    0.411972781    0.411967514
    1.414156249    0.411972253    0.411967118
    1.438124999    0.411971841    0.411966716
    1.462093749    0.411971558    0.411966305
    1.486062499    0.411971409    0.411965883
    1.510031249    0.411971396    0.411965450
    1.533999999    0.411971514    0.411965001
    1.557968749    0.411971755    0.411964535
    1.581937499    0.411972104    0.411964050
    1.605906249    0.411972542    0.411963543
    1.629874999    0.411973046    0.411963012
    1.653843749    0.411973588    0.411962454
    1.677812499    0.411974140    0.411961867
    1.701781249    0.411974671    0.411961251
    1.725749999    0.411975150    0.411960603
    1.749718749    0.411975546    0.411959922
    1.773687499    0.411975832    0.411959208
    1.797656249    0.411975982    0.411958460
    1.821624999    0.411975975    0.411957678
    1.845593749    0.411975795    0.411956864
    1.869562499    0.411975431    0.411956016
    1.893531249    0.411974879    0.411955137
    1.917499999    0.411974141    0.411954228
    1.941468749    0.411973225    0.411953290
    1.965437499    0.411972146    0.411952325
    1.989406249    0.411970926    0.411951333
    2.013374999    0.411969589    0.411950318
    2.037343749    0.411968168    0.411949279
    2.061312499    0.411966697    0.411948219
    2.085281249    0.411965210    0.411947137
    2.109249999    0.411963747    0.411946035
    2.133218749    0.411962344    0.411944913
    2.157187499    0.411961036    0.411943769
    2.181156249    0.411959855    0.411942603
    2.205124999    0.411958829    0.411941413
    2.229093749    0.411957979    0.411940198
    2.253062499    0.411957321    0.411938954
    2.277031249    0.411956865    0.411937679
    2.300999999    0.411956609    0.411936369
    2.324968749    0.411956548    0.411935020
    2.348937499    0.411956665    0.411933628
    2.372906249    0.411956939    0.411932189
    2.396874999    0.411957340    0.411930697
    2.420843749    0.411957832    0.411929149
    2.444812499    0.411958375    0.411927540
    2.468781249    0.411958925    0.411925865
    2.492749999    0.411959436    0.411924120
    2.516718749    0.411959863    0.411922303
    2.540687499    0.411960160    0.411920409
    2.564656249    0.411960284    0.411918435
    2.588624999    0.411960199    0.411916380
    2.612593749    0.411959872    0.411914242
    2.636562499    0.411959278    0.411912020
    2.660531249    0.411958401    0.411909713
    2.684499999    0.411957234    0.411907320
    2.708468749    0.411955776    0.411904843
    2.732437499    0.411954040    0.411902282
    2.756406249    0.411952046    0.411899637
    2.780374999    0.411949822    0.411896910
    2.804343749    0.411947405    0.411894102
    2.828312499    0.411944839    0.411891213
    2.852281249    0.411942171    0.411888244
    2.876249999    0.411939452    0.411885195
    2.900218749    0.411936738    0.411882066
    2.924187499    0.411934079    0.411878856
    2.948156249    0.411931527    0.411875562
    2.972124999    0.411929129    0.411872184
    2.996093749    0.411926924    0.411868717
    3.020062499    0.411924947    0.411865156
    3.044031249    0.411923220    0.411861498
    3.067999999    0.411921757    0.411857735
    3.091968749    0.411920562    0.411853861
    3.115937499    0.411919625    0.411849869
    3.139906249    0.411918927    0.411845750
    3.163874999    0.411918438    0.411841496
    3.187843749    0.411918117    0.411837097
    3.211812499    0.411917914    0.411832544
    3.235781249    0.411917773    0.411827828
    3.259749999    0.411917632    0.411822939
    3.283718749    0.411917424    0.411817868
    3.307687499    0.411917082    0.411812607
    3.331656249    0.411916541    0.411807146
    3.355624999    0.411915738    0.411801479
    3.379593749    0.411914615    0.411795598
    3.403562499    0.411913122    0.411789497
    3.427531249    0.411911221    0.411783170
    3.451499999    0.411908880    0.411776612
    3.475468749    0.411906084    0.411769819
    3.499437499    0.411902829    0.411762789
    3.523406249    0.411899123    0.411755516
    3.547374999    0.411894989    0.411748000
    3.571343748    0.411890461    0.411740237
    3.595312498    0.411885586    0.411732225
    3.619281248    0.411880420    0.411723961
    3.643249998    0.411875027    0.411715443
    3.667218748    0.411869475    0.411706667
    3.691187498    0.411863839    0.411697627
    3.715156248    0.411858192    0.411688320
    3.739124998    0.411852605    0.411678739
    3.763093748    0.411847145    0.411668875
    3.787062498    0.411841870    0.411658719
    3.811031248    0.411836830    0.411648261
    3.834999998    0.411832061    0.411637489
    3.858968748    0.411827589    0.411626389
    3.882937498    0.411823420    0.411614945
    3.906906248    0.411819549    0.411603141
    3.930874998    0.411815951    0.411590959
    3.954843748    0.411812589    0.411578380
    3.978812498    0.411809409    0.411565383
    4.002781248    0.411806344    0.411551949
    4.026749998    0.411803315    0.411538054
    4.050718748    0.411800236    0.411523679
    4.074687498    0.411797013    0.411508801
    4.098656248    0.411793548    0.411493398
    4.122624998    0.411789744    0.411477450
    4.146593748    0.411785507    0.411460936
    4.170562498    0.411780748    0.411443835
    4.194531248    0.411775388    0.411426129
    4.218499998    0.411769359    0.411407800
    4.242468748    0.411762609    0.411388830
    4.266437498    0.411755101    0.411369202
    4.290406248    0.411746815    0.411348901
    4.314374998    0.411737750    0.411327912
    4.338343748    0.411727924    0.411306219
    4.362312498    0.411717371    0.411283809
    4.386281248    0.411706145    0.411260667
    4.410249998    0.411694310    0.411236776
    4.434218748    0.411681947    0.411212122
    4.458187498    0.411669145    0.411186688
    4.482156248    0.411655998    0.411160455
    4.506124998    0.411642604    0.411133402
    4.530093748    0.411629060    0.411105508
    4.554062498    0.411615457    0.411076748
    4.578031248    0.411601878    0.411047095
    4.601999998    0.411588394    0.411016518
    4.625968748    0.411575060    0.410984986
    4.649937498    0.411561913    0.410952461
    4.673906248    0.411548969    0.410918905
    4.697874998    0.411536222    0.410884277
    4.721843748    0.411523645    0.410848533
    4.745812498    0.411511187    0.410811624
    4.769781248    0.411498775    0.410773502
    4.793749998    0.411486316    0.410734116
    4.817718748    0.411473699    0.410693413
    4.841687498    0.411460796    0.410651338
    4.865656248    0.411447471    0.410607837
    4.889624998    0.411433578    0.410562854
    4.913593748    0.411418967    0.410516333
    4.937562498    0.411403491    0.410468218
    4.961531248    0.411387007    0.410418455
    4.985499998    0.411369384    0.410366988
    5.009468748    0.411350505    0.410313764
    5.033437498    0.411330269    0.410258729
    5.057406248    0.411308598    0.410201832
    5.081374998    0.411285438    0.410143021
    5.105343748    0.411260760    0.410082245
    5.129312498    0.411234560    0.410019453
    5.153281248    0.411206860    0.409954593
    5.177249998    0.411177707    0.409887615
    5.201218748    0.411147171    0.409818464
    5.225187498    0.411115343    0.409747087
    5.249156248    0.411082326    0.409673425
    5.273124998    0.411048239    0.409597419
    5.297093748    0.411013206    0.409519004
    5.321062498    0.410977351    0.409438113
    5.345031248    0.410940796    0.409354670
    5.368999998    0.410903653    0.409268599
    5.392968748    0.410866018    0.409179815
    5.416937498    0.410827967    0.409088226
    5.440906248    0.410789552    0.408993735
    5.464874998    0.410750796    0.408896239
    5.488843748    0.410711693    0.408795628
    5.512812498    0.410672201    0.408691785
    5.536781248    0.410632246    0.408584587
    5.560749998    0.410591719    0.408473907
    5.584718748    0.410550481    0.408359609
    5.608687498    0.410508360    0.408241557
    5.632656248    0.410465161    0.408119608
    5.656624998    0.410420665    0.407993616
    5.680593748    0.410374640    0.407863433
    5.704562498    0.410326840    0.407728910
    5.728531248    0.410277018    0.407589894
    5.752499998    0.410224929    0.407446236
    5.776468748    0.410170337    0.407297782
    5.800437498    0.410113023    0.407144381
    5.824406248    0.410052790    0.406985883
    5.848374998    0.409989468    0.406822137
    5.872343748    0.409922917    0.406652993
    5.896312498    0.409853035    0.406478303
    5.920281248    0.409779755    0.406297917
    5.944249998    0.409703049    0.406111683
    5.968218747    0.409622924    0.405919449
    5.992187497    0.409539425    0.405721059
    6.016156247    0.409452627    0.405516353
    6.040124997    0.409362632    0.405305166
    6.064093747    0.409269563    0.405087324
    6.088062497    0.409173560    0.404862645
    6.112031247    0.409074765    0.404630938
    6.135999997    0.408973322    0.404391998
    6.159968747    0.408869363    0.404145609
    6.183937497    0.408763003    0.403891539
    6.207906247    0.408654329    0.403629541
    6.231874997    0.408543393    0.403359350
    6.255843747    0.408430208    0.403080686
    6.279812497    0.408314740    0.402793251
    6.303781247    0.408196902    0.402496728
    6.327749997    0.408076555    0.402190786
    6.351718747    0.407953506    0.401875076
    6.375687497    0.407827507    0.401549234
    6.399656247    0.407698259    0.401212884
    6.423624997    0.407565415    0.400865638
    6.447593747    0.407428588    0.400507099
    6.471562497    0.407287356    0.400136863
    6.495531247    0.407141270    0.399754523
    6.519499997    0.406989867    0.399359673
    6.543468747    0.406832678    0.398951906
    6.567437497    0.406669238    0.398530823
    6.591406247    0.406499098    0.398096033
    6.615374997    0.406321833    0.397647157
    6.639343747    0.406137056    0.397183828
    6.663312497    0.405944420    0.396705698
    6.687281247    0.405743631    0.396212436
    6.711249997    0.405534447    0.395703731
    6.735218747    0.405316687    0.395179291
    6.759187497    0.405090229    0.394638846
    6.783156247    0.404855008    0.394082144
    6.807124997    0.404611013    0.393508954
    6.831093747    0.404358284    0.392919058
    6.855062497    0.404096898    0.392312254
    6.879031247    0.403826967    0.391688348
    6.902999997    0.403548616    0.391047149
    6.926968747    0.403261981    0.390388467
    6.950937497    0.402967186    0.389712107
    6.974906247    0.402664336    0.389017856
    6.998874997    0.402353494    0.388305484
    7.022843747    0.402034676    0.387574732
    7.046812497    0.401707831    0.386825303
    7.070781247    0.401372831    0.386056858
    7.094749997    0.401029465    0.385269002
    7.118718747    0.400677425    0.384461282
    7.142687497    0.400316306    0.383633176
    7.166656247    0.399945601    0.382784083
    7.190624997    0.399564706    0.381913321
    7.214593747    0.399172918    0.381020117
    7.238562497    0.398769447    0.380103603
    7.262531247    0.398353425    0.379162810
    7.286499997    0.397923917    0.378196664
    7.310468747    0.397479941    0.377203987
    7.334437497    0.397020479    0.376183488
    7.358406247    0.396544499    0.375133770
    7.382374997    0.396050978    0.374053325
    7.406343747    0.395538913    0.372940540
    7.430312497    0.395007348    0.371793698
    7.454281247    0.394455391    0.370610982
    7.478249997    0.393882225    0.369390480
    7.502218747    0.393287127    0.368130194
    7.526187497    0.392669478    0.366828045
    7.550156247    0.392028768    0.365481880
    7.574124997    0.391364598    0.364089485
    7.598093747    0.390676682    0.362648588
    7.622062497    0.389964839    0.361156878
    7.646031247    0.389228982    0.359612005
    7.669999997    0.388469103    0.358011598
    7.693968747    0.387685254    0.356353272
    7.717937497    0.386877523    0.354634641
    7.741906247    0.386046008    0.352853323
    7.765874997    0.385190790    0.351006958
    7.789843747    0.384311896    0.349093209
    7.813812497    0.383409274    0.347109777
    7.837781247    0.382482759    0.345054405
    7.861749997    0.381532041    0.342924890
    7.885718747    0.380556640    0.340719086
    7.909687497    0.379555876    0.338434912
    7.933656247    0.378528857    0.336070358
    7.957624997    0.377474454    0.333623488
    7.981593747    0.376391301    0.331092444
    8.005562497    0.375277784    0.328475449
    8.029531247    0.374132055    0.325770812
    8.053499997    0.372952037    0.322976926
    8.077468747    0.371735446    0.320092271
    8.101437497    0.370479822    0.317115414
    8.125406247    0.369182563    0.314045010
    8.149374997    0.367840965    0.310879802
    8.173343747    0.366452270    0.307618617
    8.197312497    0.365013722    0.304260373
    8.221281247    0.363522623    0.300804068
    8.245249997    0.361976388    0.297248789
    8.269218747    0.360372609    0.293593706
    8.293187497    0.358709115    0.289838069
    8.317156247    0.356984021    0.285981216
    8.341124996    0.355195792    0.282022562
    8.365093746    0.353343278    0.277961609
    8.389062496    0.351425759    0.273797937
    8.413031246    0.349442972    0.269531212
    8.436999996    0.347395130    0.265161182
    8.460968746    0.345282929    0.260687681
    8.484937496    0.343107540    0.256110627
    8.508906246    0.340870591    0.251430027
    8.532874996    0.338574133    0.246645975
    8.556843746    0.336220589    0.241758657
    8.580812496    0.333812695    0.236768354
    8.604781246    0.331353424    0.231675438
    8.628749996    0.328845898    0.226480383
    8.652718746    0.326293288    0.221183761
    8.676687496    0.323698708    0.215786244
    8.700656246    0.321065096    0.210288612
    8.724624996    0.318395093    0.204691749
    8.748593746    0.315690921    0.198996649
    8.772562496    0.312954252    0.193204413
    8.796531246    0.310186088    0.187316258
    8.820499996    0.307386640    0.181333511
    8.844468746    0.304555215    0.175257613
    8.868437496    0.301690117    0.169090121
    8.892406246    0.298788551    0.162832707
    8.916374996    0.295846552    0.156487156
    8.940343746    0.292858925    0.150055372
    8.964312496    0.289819202    0.143539368
    8.988281246    0.286719625    0.136941276
    9.012249996    0.283551142    0.130263335
    9.036218746    0.280303431    0.123507899
    9.060187496    0.276964945    0.116677427
    9.084156246    0.273522973    0.109774488
    9.108124996    0.269963731    0.102801753
    9.132093746    0.266272465    0.095761994
    9.156062496    0.262433579    0.088658083
    9.180031246    0.258430774    0.081492984
    9.203999996    0.254247208    0.074269757
    9.227968746    0.249865662    0.066991545
    9.251937496    0.245268718    0.059661578
    9.275906246    0.240438946    0.052283165
    9.299874996    0.235359093    0.044859688
    9.323843746    0.230012267    0.037394603
    9.347812496    0.224382128    0.029891430
    9.371781246    0.218453064    0.022353751
    9.395749996    0.212210366    0.014785203
    9.419718746    0.205640384    0.007189474
    9.443687496    0.198730676   -0.000429699
    9.467656246    0.191470133   -0.008068544
    9.491624996    0.183849094   -0.015723250
    9.515593746    0.175859434   -0.023389979
    9.539562496    0.167494636   -0.031064869
    9.563531246    0.158749838   -0.038744039
    9.587499996    0.149621861   -0.046423598
    9.611468746    0.140109211   -0.054099648
    9.635437496    0.130212068   -0.061768290
    9.659406246    0.119932240   -0.069425632
    9.683374996    0.109273116   -0.077067794
    9.707343746    0.098239588   -0.084690911
    9.731312496    0.086837963   -0.092291144
    9.755281246    0.075075862   -0.099864682
    9.779249996    0.062962108   -0.107407748
    9.803218746    0.050506604   -0.114916607
    9.827187496    0.037720207   -0.122387570
    9.851156246    0.024614601   -0.129817000
    9.875124996    0.011202165   -0.137201315
    9.899093746   -0.002504154   -0.144536997
    9.923062496   -0.016490962   -0.151820596
    9.947031246   -0.030744534   -0.159048731
    9.970999996   -0.045250922   -0.166218101
    9.994968746   -0.059996051   -0.173325486
   10.018937496   -0.074965806   -0.180367750
   10.042906246   -0.090146099   -0.187341849
   10.066874996   -0.105522933   -0.194244831
   10.090843746   -0.121082441   -0.201073842
   10.114812496   -0.136810920   -0.207826130
   10.138781246   -0.152694847   -0.214499044
   10.162749996   -0.168720879   -0.221090043
   10.186718746   -0.184875849   -0.227596692
   10.210687496   -0.201146741   -0.234016670
   10.234656246   -0.217520661   -0.240347768
   10.258624996   -0.233984800   -0.246587893
   10.282593746   -0.250526386   -0.252735065
   10.306562496   -0.267132635   -0.258787426
   10.330531246   -0.283790698   -0.264743232
   10.354499996   -0.300487604   -0.270600860
   10.378468746   -0.317210206   -0.276358802
   10.402437496   -0.333945131   -0.282015671
   10.426406246   -0.350678726   -0.287570195
   10.450374996   -0.367397020   -0.293021220
   10.474343746   -0.384085684   -0.298367705
   10.498312496   -0.400729998   -0.303608725
   10.522281246   -0.417314837   -0.308743468
   10.546249996   -0.433824651   -0.313771228
   10.570218746   -0.450243465   -0.318691414
   10.594187496   -0.466554886   -0.323503535
   10.618156246   -0.482742116   -0.328207210
   10.642124996   -0.498787976   -0.332802157
   10.666093746   -0.514674943   -0.337288196
   10.690062496   -0.530385187   -0.341665245
   10.714031245   -0.545900620   -0.345933317
   10.737999995   -0.561202950   -0.350092522
   10.761968745   -0.576273741   -0.354143062
   10.785937495   -0.591094475   -0.358085229
   10.809906245   -0.605646615   -0.361919406
   10.833874995   -0.619911678   -0.365646068
   10.857843745   -0.633871295   -0.369265773
   10.881812495   -0.647507285   -0.372779173
   10.905781245   -0.660801714   -0.376187004
   10.929749995   -0.673736960   -0.379490090
   10.953718745   -0.686295771   -0.382689344
   10.977687495   -0.698461318   -0.385785768
   11.001656245   -0.710217250   -0.388780451
   11.025624995   -0.721547732   -0.391674572
   11.049593745   -0.732437489   -0.394469401
   11.073562495   -0.742871841   -0.397166295
   11.097531245   -0.752836729   -0.399766706
   11.121499995   -0.762318741   -0.402272174
   11.145468745   -0.771305135   -0.404684332
   11.169437495   -0.779783849   -0.407004902
   11.193406245   -0.787743520   -0.409235696
   11.217374995   -0.795173492   -0.411378614
   11.241343745   -0.802063820   -0.413435644
   11.265312495   -0.808405286   -0.415408855
   11.289281245   -0.814189395   -0.417300398
   11.313249995   -0.819408391   -0.419112502
   11.337218745   -0.824055259   -0.420847465
   11.361187495   -0.828123735   -0.422507654
   11.385156245   -0.831608318   -0.424095494
   11.409124995   -0.834504283   -0.425613463
   11.433093745   -0.836807697   -0.427064086
   11.457062495   -0.838515437   -0.428449923
   11.481031245   -0.839625211   -0.429773564
   11.504999995   -0.840135581   -0.431037614
   11.528968745   -0.840045989   -0.432244688
   11.552937495   -0.839356786   -0.433397398
   11.576906245   -0.838069256   -0.434498344
   11.600874995   -0.836185647   -0.435550101
   11.624843745   -0.833709197   -0.436555211
   11.648812495   -0.830644160   -0.437516170
   11.672781245   -0.826995828   -0.438435418
   11.696749995   -0.822770555   -0.439315334
   11.720718745   -0.817975764   -0.440158217
   11.744687495   -0.812619964   -0.440966290
   11.768656245   -0.806712744   -0.441741680
   11.792624995   -0.800264775   -0.442486420
   11.816593745   -0.793287791   -0.443202442
   11.840562495   -0.785794568   -0.443891566
   11.864531245   -0.777798891   -0.444555506
   11.888499995   -0.769315513   -0.445195860
   11.912468745   -0.760360101   -0.445814114
   11.936437495   -0.750949174   -0.446411640
   11.960406245   -0.741100033   -0.446989695
   11.984374995   -0.730830679   -0.447549429
   12.008343745   -0.720159728   -0.448091884
   12.032312495   -0.709106312   -0.448618002
   12.056281245   -0.697689980   -0.449128626
   12.080249995   -0.685930595   -0.449624512
   12.104218745   -0.673848225   -0.450106329
   12.128187495   -0.661463035   -0.450574674
   12.152156245   -0.648795182   -0.451030074
   12.176124995   -0.635864709   -0.451472997
   12.200093745   -0.622691452   -0.451903859
   12.224062495   -0.609294945   -0.452323032
   12.248031245   -0.595694341   -0.452730855
   12.271999995   -0.581908345   -0.453127636
   12.295968745   -0.567955151   -0.453513665
   12.319937495   -0.553852405   -0.453889216
   12.343906245   -0.539617180   -0.454254556
   12.367874995   -0.525265961   -0.454609952
   12.391843745   -0.510814658   -0.454955668
   12.415812495   -0.496278633   -0.455291980
   12.439781245   -0.481672741   -0.455619168
   12.463749995   -0.467011393   -0.455937527
   12.487718745   -0.452308639   -0.456247363
   12.511687495   -0.437578256   -0.456548994
   12.535656245   -0.422833861   -0.456842753
   12.559624995   -0.408089033   -0.457128985
   12.583593745   -0.393357439   -0.457408046
   12.607562495   -0.378652975   -0.457680301
   12.631531245   -0.363989909   -0.457946119
   12.655499995   -0.349383021   -0.458205878
   12.679468745   -0.334847747   -0.458459953
   12.703437495   -0.320400316   -0.458708719
   12.727406245   -0.306057871   -0.458952545
   12.751374995   -0.291838593   -0.459191793
   12.775343745   -0.277761791   -0.459426812
   12.799312495   -0.263847987   -0.459657939
   12.823281245   -0.250118975   -0.459885494
   12.847249995   -0.236597855   -0.460109779
   12.871218745   -0.223309040   -0.460331077
   12.895187495   -0.210278236   -0.460549646
   12.919156245   -0.197532398   -0.460765726
   12.943124995   -0.185099645   -0.460979530
   12.967093745   -0.173009155   -0.461191250
   12.991062495   -0.161291025   -0.461401055
   13.015031245   -0.149976103   -0.461609092
   13.038999995   -0.139095797   -0.461815485
   13.062968745   -0.128681852   -0.462020338
   13.086937494   -0.118766113   -0.462223740
   13.110906244   -0.109380263   -0.462425757
   13.134874994   -0.100555550   -0.462626445
   13.158843744   -0.092322500   -0.462825845
   13.182812494   -0.084710627   -0.463023985
   13.206781244   -0.077748139   -0.463220884
   13.230749994   -0.071461646   -0.463416556
   13.254718744   -0.065875879   -0.463611004
   13.278687494   -0.061013420   -0.463804231
   13.302656244   -0.056894450   -0.463996232
   13.326624994   -0.053536518   -0.464187004
   13.350593744   -0.050954333   -0.464376541
   13.374562494   -0.049159598   -0.464564834
   13.398531244   -0.048160858   -0.464751878
   13.422499994   -0.047963402   -0.464937665
   13.446468744   -0.048569192   -0.465122188
   13.470437494   -0.049976831   -0.465305439
   13.494406244   -0.052181577   -0.465487412
   13.518374994   -0.055175393   -0.465668097
   13.542343744   -0.058947034   -0.465847486
   13.566312494   -0.063482178   -0.466025566
   13.590281244   -0.068763582   -0.466202324
   13.614249994   -0.074771284   -0.466377744
   13.638218744   -0.081482819   -0.466551805
   13.662187494   -0.088873476   -0.466724484
   13.686156244   -0.096916563   -0.466895751
   13.710124994   -0.105583695   -0.467065575
   13.734093744   -0.114845089   -0.467233918
   13.758062494   -0.124669873   -0.467400737
   13.782031244   -0.135026385   -0.467565987
   13.805999994   -0.145882477   -0.467729617
   13.829968744   -0.157205803   -0.467891572
   13.853937494   -0.168964099   -0.468051794
   13.877906244   -0.181125441   -0.468210222
   13.901874994   -0.193658481   -0.468366794
   13.925843744   -0.206532658   -0.468521446
   13.949812494   -0.219718381   -0.468674114
   13.973781244   -0.233187184   -0.468824733
   13.997749994   -0.246911840   -0.468973241
   14.021718744   -0.260866452   -0.469119576
   14.045687494   -0.275026505   -0.469263680
   14.069656244   -0.289368886   -0.469405499
   14.093624994   -0.303871875   -0.469544981
   14.117593744   -0.318515101   -0.469682079
   14.141562494   -0.333279477   -0.469816751
   14.165531244   -0.348147107   -0.469948961
   14.189499994   -0.363101169   -0.470078676
   14.213468744   -0.378125784   -0.470205869
   14.237437494   -0.393205874   -0.470330519
   14.261406244   -0.408327002   -0.470452608
   14.285374994   -0.423475213   -0.470572123
   14.309343744   -0.438636873   -0.470689058
   14.333312494   -0.453798507   -0.470803406
   14.357281244   -0.468946646   -0.470915168
   14.381249994   -0.484067684   -0.471024344
   14.405218744   -0.499147746   -0.471130938
   14.429187494   -0.514172573   -0.471234957
   14.453156244   -0.529127427   -0.471336409
   14.477124994   -0.543997010   -0.471435301
   14.501093744   -0.558765412   -0.471531644
   14.525062494   -0.573416071   -0.471625448
   14.549031244   -0.587931763   -0.471716722
   14.572999994   -0.602294610   -0.471805478
   14.596968744   -0.616486109   -0.471891727
   14.620937494   -0.630487178   -0.471975480
   14.644906244   -0.644278225   -0.472056749
   14.668874994   -0.657839226   -0.472135546
   14.692843744   -0.671149819   -0.472211884
   14.716812494   -0.684189412   -0.472285777
   14.740781244   -0.696937291   -0.472357241
   14.764749994   -0.709372739   -0.472426293
   14.788718744   -0.721475158   -0.472492953
   14.812687494   -0.733224186   -0.472557242
   14.836656244   -0.744599811   -0.472619184
   14.860624994   -0.755582489   -0.472678807
   14.884593744   -0.766153243   -0.472736140
   14.908562494   -0.776293760   -0.472791217
   14.932531244   -0.785986478   -0.472844075
   14.956499994   -0.795214656   -0.472894752
   14.980468744   -0.803962439   -0.472943291
   15.004437494   -0.812214909   -0.472989738
   15.028406244   -0.819958121   -0.473034142
   15.052374994   -0.827179130   -0.473076552
   15.076343744   -0.833866006   -0.473117023
   15.100312494   -0.840007843   -0.473155609
   15.124281244   -0.845594753   -0.473192365
   15.148249994   -0.850617862   -0.473227350
   15.172218744   -0.855069289   -0.473260620
   15.196187494   -0.858942132   -0.473292234
   15.220156244   -0.862230447   -0.473322249
   15.244124994   -0.864929228   -0.473350722
   15.268093744   -0.867034384   -0.473377709
   15.292062494   -0.868542725   -0.473403265
   15.316031244   -0.869451950   -0.473427442
   15.339999994   -0.869760631   -0.473450294
   15.363968744   -0.869468213   -0.473471870
   15.387937494   -0.868575016   -0.473492218
   15.411906244   -0.867082237   -0.473511385
   15.435874994   -0.864991967   -0.473529415
   15.459843744   -0.862307201   -0.473546352
   15.483812493   -0.859031860   -0.473562237
   15.507781243   -0.855170814   -0.473577112
   15.531749993   -0.850729905   -0.473591015
   15.555718743   -0.845715967   -0.473603986
   15.579687493   -0.840136853   -0.473616062
   15.603656243   -0.834001448   -0.473627282
   15.627624993   -0.827319687   -0.473637683
   15.651593743   -0.820102556   -0.473647303
   15.675562493   -0.812362095   -0.473656179
   15.699531243   -0.804111385   -0.473664350
   15.723499993   -0.795364528   -0.473671854
   15.747468743   -0.786136612   -0.473678729
   15.771437493   -0.776443670   -0.473685014
   15.795406243   -0.766302620   -0.473690749
   15.819374993   -0.755731199   -0.473695972
   15.843343743   -0.744747881   -0.473700721
   15.867312493   -0.733371790   -0.473705037
   15.891281243   -0.721622595   -0.473708955
   15.915249993   -0.709520407   -0.473712513
   15.939218743   -0.697085663   -0.473715748
   15.963187493   -0.684339009   -0.473718692
   15.987156243   -0.671301181   -0.473721379
   16.011124993   -0.657992885   -0.473723839
   16.035093743   -0.644434686   -0.473726102
   16.059062493   -0.630646898   -0.473728193
   16.083031243   -0.616649482   -0.473730137
   16.106999993   -0.602461963   -0.473731955
   16.130968743   -0.588103350   -0.473733666
   16.154937493   -0.573592081   -0.473735286
   16.178906243   -0.558945980   -0.473736831
   16.202874993   -0.544182236   -0.473738310
   16.226843743   -0.529317399   -0.473739735
   16.250812493   -0.514367401   -0.473741112
   16.274781243   -0.499347596   -0.473742447
   16.298749993   -0.484272818   -0.473743745
   16.322718743   -0.469157461   -0.473745009
   16.346687493   -0.454015581   -0.473746240
   16.370656243   -0.438861004   -0.473747441
   16.394624993   -0.423707464   -0.473748611
   16.418593743   -0.408568735   -0.473749752
   16.442562493   -0.393458786   -0.473750864
   16.466531243   -0.378391933   -0.473751948
   16.490499993   -0.363382996   -0.473753005
   16.514468743   -0.348447451   -0.473754036
   16.538437493   -0.333601579   -0.473755044
   16.562406243   -0.318862604   -0.473756029
   16.586374993   -0.304248815   -0.473756996
   16.610343743   -0.289779675   -0.473757947
   16.634312493   -0.275475905   -0.473758884
   16.658281243   -0.261359546   -0.473759813
   16.682249993   -0.247453997   -0.473760736
   16.706218743   -0.233784018   -0.473761655
   16.730187493   -0.220375713   -0.473762574
   16.754156243   -0.207256470   -0.473763496
   16.778124993   -0.194454877   -0.473764420
   16.802093743   -0.182000604   -0.473765349
   16.826062493   -0.169924257   -0.473766282
   16.850031243   -0.158257195   -0.473767217
   16.873999993   -0.147031332   -0.473768152
   16.897968743   -0.136278899   -0.473769083
   16.921937493   -0.126032197   -0.473770005
   16.945906243   -0.116323329   -0.473770914
   16.969874993   -0.107183913   -0.473771802
   16.993843743   -0.098644791   -0.473772662
   17.017812493   -0.090735731   -0.473773486
   17.041781243   -0.083485131   -0.473774265
   17.065749993   -0.076919723   -0.473774992
   17.089718743   -0.071064295   -0.473775657
   17.113687493   -0.065941421   -0.473776252
   17.137656243   -0.061571210   -0.473776770
   17.161624993   -0.057971084   -0.473777204
   17.185593743   -0.055155582   -0.473777547
   17.209562493   -0.053136188   -0.473777796
   17.233531243   -0.051921203   -0.473777946
   17.257499993   -0.051515646   -0.473777995
   17.281468743   -0.051921197   -0.473777943
   17.305437493   -0.053136176   -0.473777790
   17.329406243   -0.055155564   -0.473777538
   17.353374993   -0.057971061   -0.473777191
   17.377343743   -0.061571180   -0.473776754
   17.401312493   -0.065941385   -0.473776233
   17.425281243   -0.071064253   -0.473775635
   17.449249993   -0.076919675   -0.473774967
   17.473218743   -0.083485076   -0.473774238
   17.497187493   -0.090735670   -0.473773456
   17.521156243   -0.098644724   -0.473772629
   17.545124993   -0.107183840   -0.473771767
   17.569093743   -0.116323249   -0.473770877
   17.593062493   -0.126032111   -0.473769967
   17.617031243   -0.136278805   -0.473769042
   17.640999993   -0.147031232   -0.473768109
   17.664968743   -0.158257089   -0.473767173
   17.688937493   -0.169924143   -0.473766237
   17.712906243   -0.182000483   -0.473765304
   17.736874993   -0.194454748   -0.473764375
   17.760843743   -0.207256334   -0.473763450
   17.784812493   -0.220375570   -0.473762528
   17.808781243   -0.233783867   -0.473761609
   17.832749993   -0.247453838   -0.473760690
   17.856718742   -0.261359379   -0.473759768
   17.880687492   -0.275475730   -0.473758841
   17.904656242   -0.289779492   -0.473757904
   17.928624992   -0.304248624   -0.473756955
   17.952593742   -0.318862404   -0.473755991
   17.976562492   -0.333601370   -0.473755007
   18.000531242   -0.348447234   -0.473754003
   18.024499992   -0.363382770   -0.473752974
   18.048468742   -0.378391698   -0.473751921
   18.072437492   -0.393458542   -0.473750840
   18.096406242   -0.408568482   -0.473749732
   18.120374992   -0.423707202   -0.473748595
   18.144343742   -0.438860733   -0.473747429
   18.168312492   -0.454015300   -0.473746234
   18.192281242   -0.469157171   -0.473745007
   18.216249992   -0.484272519   -0.473743749
   18.240218742   -0.499347288   -0.473742457
   18.264187492   -0.514367084   -0.473741127
   18.288156242   -0.529317072   -0.473739757
   18.312124992   -0.544181900   -0.473738339
   18.336093742   -0.558945636   -0.473736866
   18.360062492   -0.573591728   -0.473735329
   18.384031242   -0.588102989   -0.473733716
   18.407999992   -0.602461593   -0.473732013
   18.431968742   -0.616649104   -0.473730203
   18.455937492   -0.630646512   -0.473728268
   18.479906242   -0.644434293   -0.473726185
   18.503874992   -0.657992485   -0.473723932
   18.527843742   -0.671300775   -0.473721480
   18.551812492   -0.684338597   -0.473718803
   18.575781242   -0.697085246   -0.473715868
   18.599749992   -0.709519985   -0.473712644
   18.623718742   -0.721622169   -0.473709096
   18.647687492   -0.733371360   -0.473705189
   18.671656242   -0.744747449   -0.473700884
   18.695624992   -0.755730764   -0.473696145
   18.719593742   -0.766302184   -0.473690934
   18.743562492   -0.776443234   -0.473685211
   18.767531242   -0.786136177   -0.473678937
   18.791499992   -0.795364094   -0.473672074
   18.815468742   -0.804110954   -0.473664583
   18.839437492   -0.812361667   -0.473656425
   18.863406242   -0.820102133   -0.473647561
   18.887374992   -0.827319269   -0.473637955
   18.911343742   -0.834001037   -0.473627567
   18.935312492   -0.840136449   -0.473616361
   18.959281242   -0.845715572   -0.473604298
   18.983249992   -0.850729520   -0.473591341
   19.007218742   -0.855170440   -0.473577452
   19.031187492   -0.859031499   -0.473562592
   19.055156242   -0.862306853   -0.473546721
   19.079124992   -0.864991634   -0.473529799
   19.103093742   -0.867081921   -0.473511784
   19.127062492   -0.868574716   -0.473492632
   19.151031242   -0.869467932   -0.473472300
   19.174999992   -0.869760369   -0.473450740
   19.198968742   -0.869451710   -0.473427904
   19.222937492   -0.868542508   -0.473403742
   19.246906242   -0.867034189   -0.473378203
   19.270874992   -0.864929058   -0.473351233
   19.294843742   -0.862230303   -0.473322777
   19.318812492   -0.858942015   -0.473292779
   19.342781242   -0.855069200   -0.473261182
   19.366749992   -0.850617803   -0.473227930
   19.390718742   -0.845594724   -0.473192963
   19.414687492   -0.840007845   -0.473156224
   19.438656242   -0.833866040   -0.473117657
   19.462624992   -0.827179198   -0.473077205
   19.486593742   -0.819958223   -0.473034813
   19.510562492   -0.812215046   -0.472990428
   19.534531242   -0.803962612   -0.472944000
   19.558499992   -0.795214865   -0.472895480
   19.582468742   -0.785986725   -0.472844823
   19.606437492   -0.776294046   -0.472791985
   19.630406242   -0.766153567   -0.472736928
   19.654374992   -0.755582852   -0.472679615
   19.678343742   -0.744600214   -0.472620013
   19.702312492   -0.733224629   -0.472558092
   19.726281242   -0.721475642   -0.472493824
   19.750249992   -0.709373264   -0.472427186
   19.774218742   -0.696937857   -0.472358155
   19.798187492   -0.684190020   -0.472286714
   19.822156242   -0.671150469   -0.472212843
   19.846124992   -0.657839918   -0.472136527
   19.870093742   -0.644278959   -0.472057754
   19.894062492   -0.630487954   -0.471976508
   19.918031242   -0.616486927   -0.471892779
   19.941999992   -0.602295470   -0.471806553
   19.965968742   -0.587932665   -0.471717821
   19.989937492   -0.573417015   -0.471626571
   20.013906242   -0.558766398   -0.471532792
   20.037874992   -0.543998038   -0.471436475
   20.061843742   -0.529128496   -0.471337607
   20.085812492   -0.514173683   -0.471236182
   20.109781242   -0.499148897   -0.471132188
   20.133749992   -0.484068876   -0.471025620
   20.157718742   -0.468947878   -0.470916471
   20.181687492   -0.453799779   -0.470804737
   20.205656242   -0.438638185   -0.470690416
   20.229624991   -0.423476563   -0.470573509
   20.253593741   -0.408328391   -0.470454021
   20.277562491   -0.393207301   -0.470331960
   20.301531241   -0.378127249   -0.470207339
   20.325499991   -0.363102672   -0.470080175
   20.349468741   -0.348148647   -0.469950490
   20.373437491   -0.333281054   -0.469818310
   20.397406241   -0.318516714   -0.469683667
   20.421374991   -0.303873524   -0.469546599
   20.445343741   -0.289370571   -0.469407148
   20.469312491   -0.275028225   -0.469265360
   20.493281241   -0.260868207   -0.469121287
   20.517249991   -0.246913630   -0.468974983
   20.541218741   -0.233189007   -0.468826508
   20.565187491   -0.219720238   -0.468675921
   20.589156241   -0.206534548   -0.468523285
   20.613124991   -0.193660404   -0.468368666
   20.637093741   -0.181127397   -0.468212127
   20.661062491   -0.168966087   -0.468053731
   20.685031241   -0.157207823   -0.467893543
   20.708999991   -0.145884529   -0.467731621
   20.732968741   -0.135028468   -0.467568025
   20.756937491   -0.124671987   -0.467402809
   20.780906241   -0.114847235   -0.467236023
   20.804874991   -0.105585871   -0.467067715
   20.828843741   -0.096918771   -0.466897925
   20.852812491   -0.088875714   -0.466726692
   20.876781241   -0.081485088   -0.466554048
   20.900749991   -0.074773582   -0.466380022
   20.924718741   -0.068765911   -0.466204636
   20.948687491   -0.063484537   -0.466027913
   20.972656241   -0.058949423   -0.465849867
   20.996624991   -0.055177811   -0.465670513
   21.020593741   -0.052184025   -0.465489862
   21.044562491   -0.049979309   -0.465307924
   21.068531241   -0.048571700   -0.465124707
   21.092499991   -0.047965940   -0.464940219
   21.116468741   -0.048163425   -0.464754466
   21.140437491   -0.049162195   -0.464567456
   21.164406241   -0.050956960   -0.464379196
   21.188374991   -0.053539175   -0.464189694
   21.212343741   -0.056897138   -0.463998955
   21.236312491   -0.061016137   -0.463806987
   21.260281241   -0.065878626   -0.463613793
   21.284249991   -0.071464423   -0.463419377
   21.308218741   -0.077750947   -0.463223738
   21.332187491   -0.084713467   -0.463026871
   21.356156241   -0.092325370   -0.462828762
   21.380124991   -0.100558452   -0.462629394
   21.404093741   -0.109383196   -0.462428737
   21.428062491   -0.118769078   -0.462226750
   21.452031241   -0.128684849   -0.462023379
   21.475999991   -0.139098826   -0.461818554
   21.499968741   -0.149979165   -0.461612191
   21.523937491   -0.161294119   -0.461404183
   21.547906241   -0.173012283   -0.461194406
   21.571874991   -0.185102807   -0.460982713
   21.595843741   -0.197535594   -0.460768936
   21.619812491   -0.210281467   -0.460552883
   21.643781241   -0.223312306   -0.460334340
   21.667749991   -0.236601157   -0.460113068
   21.691718741   -0.250122313   -0.459888807
   21.715687491   -0.263851361   -0.459661276
   21.739656241   -0.277765202   -0.459430173
   21.763624991   -0.291842042   -0.459195177
   21.787593741   -0.306061359   -0.458955952
   21.811562491   -0.320403842   -0.458712148
   21.835531241   -0.334851313   -0.458463403
   21.859499991   -0.349386626   -0.458209348
   21.883468741   -0.363993554   -0.457949610
   21.907437491   -0.378656661   -0.457683810
   21.931406241   -0.393361166   -0.457411574
   21.955374991   -0.408092802   -0.457132531
   21.979343741   -0.422837672   -0.456846316
   22.003312491   -0.437582109   -0.456552574
   22.027281241   -0.452312535   -0.456250958
   22.051249991   -0.467015333   -0.455941138
   22.075218741   -0.481676725   -0.455622794
   22.099187491   -0.496282661   -0.455295620
   22.123156241   -0.510818730   -0.454959321
   22.147124991   -0.525270077   -0.454613617
   22.171093741   -0.539621341   -0.454258234
   22.195062491   -0.553856611   -0.453892905
   22.219031241   -0.567959401   -0.453517364
   22.242999991   -0.581912640   -0.453131346
   22.266968741   -0.595698681   -0.452734574
   22.290937491   -0.609299329   -0.452326761
   22.314906241   -0.622695880   -0.451907595
   22.338874991   -0.635869181   -0.451476741
   22.362843741   -0.648799697   -0.451033825
   22.386812491   -0.661467593   -0.450578432
   22.410781241   -0.673852826   -0.450110092
   22.434749991   -0.685935237   -0.449628280
   22.458718741   -0.697694663   -0.449132400
   22.482687491   -0.709111035   -0.448621779
   22.506656241   -0.720164490   -0.448095665
   22.530624991   -0.730835479   -0.447553212
   22.554593741   -0.741104870   -0.446993481
   22.578562491   -0.750954047   -0.446415427
   22.602531241   -0.760365008   -0.445817903
   22.626499990   -0.769320454   -0.445199650
   22.650468740   -0.777803863   -0.444559296
   22.674437490   -0.785799569   -0.443895356
   22.698406240   -0.793292821   -0.443206230
   22.722374990   -0.800269831   -0.442490208
   22.746343740   -0.806717825   -0.441745465
   22.770312490   -0.812625068   -0.440970073
   22.794281240   -0.817980890   -0.440161997
   22.818249990   -0.822775699   -0.439319110
   22.842218740   -0.827000990   -0.438439191
   22.866187490   -0.830649336   -0.437519938
   22.890156240   -0.833714386   -0.436558975
   22.914124990   -0.836190846   -0.435553860
   22.938093740   -0.838074464   -0.434502097
   22.962062490   -0.839361999   -0.433401145
   22.986031240   -0.840051206   -0.432248428
   23.009999990   -0.840140798   -0.431041347
   23.033968740   -0.839630427   -0.429777289
   23.057937490   -0.838520650   -0.428453641
   23.081906240   -0.836812904   -0.427067795
   23.105874990   -0.834509481   -0.425617163
   23.129843740   -0.831613504   -0.424099185
   23.153812490   -0.828128908   -0.422511336
   23.177781240   -0.824060416   -0.420851137
   23.201749990   -0.819413530   -0.419116163
   23.225718740   -0.814194513   -0.417304049
   23.249687490   -0.808410380   -0.415412494
   23.273656240   -0.802068890   -0.413439271
   23.297624990   -0.795178533   -0.411382230
   23.321593740   -0.787748532   -0.409239299
   23.345562490   -0.779788828   -0.407008492
   23.369531240   -0.771310080   -0.404687909
   23.393499990   -0.762323650   -0.402275738
   23.417468740   -0.752841599   -0.399770255
   23.441437490   -0.742876671   -0.397169830
   23.465406240   -0.732442276   -0.394472921
   23.489374990   -0.721552474   -0.391678077
   23.513343740   -0.710221946   -0.388783941
   23.537312490   -0.698465967   -0.385789242
   23.561281240   -0.686300370   -0.382692802
   23.585249990   -0.673741508   -0.379493531
   23.609218740   -0.660806210   -0.376190427
   23.633187490   -0.647511727   -0.372782579
   23.657156240   -0.633875682   -0.369269162
   23.681124990   -0.619916008   -0.365649438
   23.705093740   -0.605650887   -0.361922758
   23.729062490   -0.591098688   -0.358088562
   23.753031240   -0.576277895   -0.354146375
   23.776999990   -0.561207043   -0.350095816
   23.800968740   -0.545904652   -0.345936591
   23.824937490   -0.530389157   -0.341668498
   23.848906240   -0.514678850   -0.337291429
   23.872874990   -0.498791820   -0.332805369
   23.896843740   -0.482745896   -0.328210400
   23.920812490   -0.466558602   -0.323506703
   23.944781240   -0.450247117   -0.318694559
   23.968749990   -0.433828238   -0.313774352
   23.992718740   -0.417318359   -0.308746568
   24.016687490   -0.400733456   -0.303611802
   24.040656240   -0.384089076   -0.298370758
   24.064624990   -0.367400348   -0.293024249
   24.088593740   -0.350681989   -0.287573199
   24.112562490   -0.333948329   -0.282018651
   24.136531240   -0.317213341   -0.276361756
   24.160499990   -0.300490674   -0.270603789
   24.184468740   -0.283793705   -0.264746135
   24.208437490   -0.267135579   -0.258790303
   24.232406240   -0.250529266   -0.252737915
   24.256374990   -0.233987618   -0.246590716
   24.280343740   -0.217523418   -0.240350564
   24.304312490   -0.201149437   -0.234019439
   24.328281240   -0.184878485   -0.227599433
   24.352249990   -0.168723455   -0.221092755
   24.376218740   -0.152697363   -0.214501727
   24.400187490   -0.136813378   -0.207828784
   24.424156240   -0.121084841   -0.201076467
   24.448124990   -0.105525276   -0.194247426
   24.472093740   -0.090148387   -0.187344414
   24.496062490   -0.074968038   -0.180370286
   24.520031240   -0.059998228   -0.173327991
   24.543999990   -0.045253045   -0.166220576
   24.567968740   -0.030746604   -0.159051174
   24.591937490   -0.016492980   -0.151823008
   24.615906240   -0.002506121   -0.144539378
   24.639874990    0.011200249   -0.137203664
   24.663843740    0.024612735   -0.129819318
   24.687812490    0.037718390   -0.122389856
   24.711781240    0.050504834   -0.114918861
   24.735749990    0.062960386   -0.107409969
   24.759718740    0.075074186   -0.099866870
   24.783687490    0.086836333   -0.092293300
   24.807656240    0.098238002   -0.084693034
   24.831624990    0.109271575   -0.077069884
   24.855593740    0.119930742   -0.069427690
   24.879562490    0.130210612   -0.061770314
   24.903531240    0.140107797   -0.054101639
   24.927499990    0.149620487   -0.046425556
   24.951468740    0.158748504   -0.038745964
   24.975437490    0.167493341   -0.031066761
   24.999406239    0.175858178   -0.023391838
   25.023374989    0.183847876   -0.015725076
   25.047343739    0.191468952   -0.008070337
   25.071312489    0.198729531   -0.000431459
   25.095281239    0.205639275    0.007187748
   25.119249989    0.212209292    0.014783509
   25.143218739    0.218452024    0.022352090
   25.167187489    0.224381121    0.029889802
   25.191156239    0.230011293    0.037393007
   25.215124989    0.235358151    0.044858125
   25.239093739    0.240438036    0.052281634
   25.263062489    0.245267838    0.059660079
   25.287031239    0.249864812    0.066990078
   25.310999989    0.254246388    0.074268321
   25.334968739    0.258429983    0.081491580
   25.358937489    0.262432816    0.088656710
   25.382906239    0.266271729    0.095760652
   25.406874989    0.269963022    0.102800442
   25.430843739    0.273522291    0.109773208
   25.454812489    0.276964288    0.116676177
   25.478781239    0.280302800    0.123506678
   25.502749989    0.283550535    0.130262144
   25.526718739    0.286719042    0.136940114
   25.550687489    0.289818643    0.143538235
   25.574656239    0.292858388    0.150054267
   25.598624989    0.295846037    0.156486080
   25.622593739    0.298788058    0.162831659
   25.646562489    0.301689645    0.169089101
   25.670531239    0.304554764    0.175256620
   25.694499989    0.307386209    0.181332544
   25.718468739    0.310185677    0.187315318
   25.742437489    0.312953860    0.193203499
   25.766406239    0.315690547    0.198995760
   25.790374989    0.318394738    0.204690886
   25.814343739    0.321064758    0.210287774
   25.838312489    0.323698387    0.215785431
   25.862281239    0.326292983    0.221182971
   25.886249989    0.328845609    0.226479618
   25.910218739    0.331353151    0.231674696
   25.934187489    0.333812437    0.236767634
   25.958156239    0.336220346    0.241757960
   25.982124989    0.338573904    0.246645300
   26.006093739    0.340870377    0.251429374
   26.030062489    0.343107339    0.256109996
   26.054031239    0.345282741    0.260687071
   26.077999989    0.347394955    0.265160592
   26.101968739    0.349442809    0.269530642
   26.125937489    0.351425608    0.273797387
   26.149906239    0.353343139    0.277961078
   26.173874989    0.355195665    0.282022050
   26.197843739    0.356983905    0.285980723
   26.221812489    0.358709009    0.289837594
   26.245781239    0.360372514    0.293593249
   26.269749989    0.361976303    0.297248350
   26.293718739    0.363522548    0.300803645
   26.317687489    0.365013656    0.304259967
   26.341656239    0.366452213    0.307618228
   26.365624989    0.367840917    0.310879428
   26.389593739    0.369182524    0.314044652
   26.413562489    0.370479792    0.317115071
   26.437531239    0.371735423    0.320091943
   26.461499989    0.372952022    0.322976613
   26.485468739    0.374132048    0.325770513
   26.509437489    0.375277785    0.328475164
   26.533406239    0.376391308    0.331092172
   26.557374989    0.377474468    0.333623230
   26.581343739    0.378528878    0.336070113
   26.605312489    0.379555904    0.338434680
   26.629281239    0.380556674    0.340718866
   26.653249989    0.381532082    0.342924682
   26.677218739    0.382482805    0.345054209
   26.701187489    0.383409326    0.347109592
   26.725156239    0.384311953    0.349093036
   26.749124989    0.385190853    0.351006796
   26.773093739    0.386046077    0.352853172
   26.797062489    0.386877596    0.354634499
   26.821031239    0.387685332    0.356353141
   26.844999989    0.388469186    0.358011477
   26.868968739    0.389229070    0.359611893
   26.892937489    0.389964931    0.361156776
   26.916906239    0.390676779    0.362648495
   26.940874989    0.391364698    0.364089401
   26.964843739    0.392028872    0.365481805
   26.988812489    0.392669587    0.366827978
   27.012781239    0.393287240    0.368130135
   27.036749989    0.393882341    0.369390429
   27.060718739    0.394455510    0.370610939
   27.084687489    0.395007471    0.371793663
   27.108656239    0.395539039    0.372940512
   27.132624989    0.396051107    0.374053304
   27.156593739    0.396544632    0.375133756
   27.180562489    0.397020614    0.376183481
   27.204531239    0.397480079    0.377203986
   27.228499989    0.397924058    0.378196670
   27.252468739    0.398353568    0.379162821
   27.276437489    0.398769593    0.380103620
   27.300406239    0.399173066    0.381020140
   27.324374989    0.399564857    0.381913350
   27.348343739    0.399945754    0.382784117
   27.372312488    0.400316461    0.383633216
   27.396281238    0.400677582    0.384461327
   27.420249988    0.401029624    0.385269052
   27.444218738    0.401372992    0.386056913
   27.468187488    0.401707993    0.386825363
   27.492156238    0.402034840    0.387574796
   27.516124988    0.402353660    0.388305553
   27.540093738    0.402664503    0.389017929
   27.564062488    0.402967355    0.389712183
   27.588031238    0.403262151    0.390388548
   27.611999988    0.403548788    0.391047233
   27.635968738    0.403827139    0.391688436
   27.659937488    0.404097072    0.392312346
   27.683906238    0.404358459    0.392919154
   27.707874988    0.404611189    0.393509052
   27.731843738    0.404855185    0.394082246
   27.755812488    0.405090407    0.394638950
   27.779781238    0.405316866    0.395179399
   27.803749988    0.405534627    0.395703842
   27.827718738    0.405743812    0.396212550
   27.851687488    0.405944602    0.396705815
   27.875656238    0.406137238    0.397183947
   27.899624988    0.406322016    0.397647278
   27.923593738    0.406499281    0.398096157
   27.947562488    0.406669422    0.398530949
   27.971531238    0.406832862    0.398952034
   27.995499988    0.406990052    0.399359803
   28.019468738    0.407141455    0.399754656
   28.043437488    0.407287541    0.400136997
   28.067406238    0.407428775    0.400507235
   28.091374988    0.407565602    0.400865776
   28.115343738    0.407698446    0.401213024
   28.139312488    0.407827694    0.401549376
   28.163281238    0.407953694    0.401875219
   28.187249988    0.408076743    0.402190931
   28.211218738    0.408197090    0.402496875
   28.235187488    0.408314928    0.402793399
   28.259156238    0.408430397    0.403080835
   28.283124988    0.408543582    0.403359500
   28.307093738    0.408654517    0.403629692
   28.331062488    0.408763192    0.403891692
   28.355031238    0.408869552    0.404145763
   28.378999988    0.408973511    0.404392153
   28.402968738    0.409074954    0.404631094
   28.426937488    0.409173748    0.404862802
   28.450906238    0.409269752    0.405087482
   28.474874988    0.409362820    0.405305325
   28.498843738    0.409452815    0.405516513
   28.522812488    0.409539613    0.405721219
   28.546781238    0.409623112    0.405919610
   28.570749988    0.409703237    0.406111845
   28.594718738    0.409779943    0.406298079
   28.618687488    0.409853223    0.406478466
   28.642656238    0.409923105    0.406653157
   28.666624988    0.409989655    0.406822301
   28.690593738    0.410052978    0.406986047
   28.714562488    0.410113210    0.407144546
   28.738531238    0.410170524    0.407297947
   28.762499988    0.410225115    0.407446402
   28.786468738    0.410277204    0.407590061
   28.810437488    0.410327026    0.407729076
   28.834406238    0.410374825    0.407863600
   28.858374988    0.410420851    0.407993783
   28.882343738    0.410465346    0.408119775
   28.906312488    0.410508545    0.408241725
   28.930281238    0.410550665    0.408359777
   28.954249988    0.410591903    0.408474074
   28.978218738    0.410632430    0.408584755
   29.002187488    0.410672385    0.408691953
   29.026156238    0.410711876    0.408795796
   29.050124988    0.410750979    0.408896407
   29.074093738    0.410789734    0.408993903
   29.098062488    0.410828148    0.409088393
   29.122031238    0.410866199    0.409179982
   29.145999988    0.410903834    0.409268767
   29.169968738    0.410940977    0.409354838
   29.193937488    0.410977531    0.409438280
   29.217906238    0.411013385    0.409519172
   29.241874988    0.411048418    0.409597586
   29.265843738    0.411082505    0.409673592
   29.289812488    0.411115521    0.409747254
   29.313781238    0.411147349    0.409818631
   29.337749988    0.411177884    0.409887781
   29.361718738    0.411207036    0.409954759
   29.385687488    0.411234735    0.410019619
   29.409656238    0.411260935    0.410082411
   29.433624988    0.411285613    0.410143186
   29.457593738    0.411308772    0.410201997
   29.481562488    0.411330442    0.410258894
   29.505531238    0.411350678    0.410313928
   29.529499988    0.411369557    0.410367152
   29.553468738    0.411387179    0.410418618
   29.577437488    0.411403662    0.410468381
   29.601406238    0.411419138    0.410516496
   29.625374988    0.411433748    0.410563016
   29.649343738    0.411447641    0.410607999
   29.673312488    0.411460965    0.410651500
   29.697281238    0.411473867    0.410693574
   29.721249988    0.411486484    0.410734277
   29.745218737    0.411498942    0.410773662
   29.769187487    0.411511354    0.410811784
   29.793156237    0.411523811    0.410848692
   29.817124987    0.411536387    0.410884436
   29.841093737    0.411549133    0.410919064
   29.865062487    0.411562077    0.410952619
   29.889031237    0.411575224    0.410985143
   29.912999987    0.411588557    0.411016675
   29.936968737    0.411602040    0.411047251
   29.960937487    0.411615618    0.411076904
   29.984906237    0.411629220    0.411105663
   30.008874987    0.411642764    0.411133557
   30.032843737    0.411656157    0.411160608
   30.056812487    0.411669303    0.411186841
   30.080781237    0.411682105    0.411212275
   30.104749987    0.411694467    0.411236928
   30.128718737    0.411706301    0.411260818
   30.152687487    0.411717527    0.411283960
   30.176656237    0.411728079    0.411306370
   30.200624987    0.411737905    0.411328062
   30.224593737    0.411746969    0.411349050
   30.248562487    0.411755254    0.411369350
   30.272531237    0.411762762    0.411388977
   30.296499987    0.411769511    0.411407947
   30.320468737    0.411775539    0.411426276
   30.344437487    0.411780898    0.411443981
   30.368406237    0.411785657    0.411461081
   30.392374987    0.411789893    0.411477594
   30.416343737    0.411793696    0.411493542
   30.440312487    0.411797160    0.411508944
   30.464281237    0.411800383    0.411523821
   30.488249987    0.411803461    0.411538196
   30.512218737    0.411806489    0.411552090
   30.536187487    0.411809553    0.411565524
   30.560156237    0.411812733    0.411578520
   30.584124987    0.411816094    0.411591098
   30.608093737    0.411819691    0.411603280
   30.632062487    0.411823561    0.411615083
   30.656031237    0.411827729    0.411626526
   30.679999987    0.411832201    0.411637625
   30.703968737    0.411836968    0.411648397
   30.727937487    0.411842008    0.411658854
   30.751906237    0.411847282    0.411669008
   30.775874987    0.411852742    0.411678872
   30.799843737    0.411858328    0.411688453
   30.823812487    0.411863974    0.411697759
   30.847781237    0.411869610    0.411706797
   30.871749987    0.411875160    0.411715573
   30.895718737    0.411880553    0.411724091
   30.919687487    0.411885718    0.411732354
   30.943656237    0.411890592    0.411740365
   30.967624987    0.411895119    0.411748127
   30.991593737    0.411899252    0.411755643
   31.015562487    0.411902957    0.411762914
   31.039531237    0.411906212    0.411769944
   31.063499987    0.411909007    0.411776736
   31.087468737    0.411911347    0.411783293
   31.111437487    0.411913248    0.411789619
   31.135406237    0.411914739    0.411795720
   31.159374987    0.411915861    0.411801600
   31.183343737    0.411916664    0.411807267
   31.207312487    0.411917204    0.411812726
   31.231281237    0.411917545    0.411817987
   31.255249987    0.411917752    0.411823057
   31.279218737    0.411917892    0.411827945
   31.303187487    0.411918032    0.411832660
   31.327156237    0.411918234    0.411837212
   31.351124987    0.411918555    0.411841611
   31.375093737    0.411919043    0.411845864
   31.399062487    0.411919740    0.411849982
   31.423031237    0.411920676    0.411853974
   31.446999987    0.411921870    0.411857846
   31.470968737    0.411923332    0.411861608
   31.494937487    0.411925058    0.411865266
   31.518906237    0.411927035    0.411868826
   31.542874987    0.411929239    0.411872292
   31.566843737    0.411931636    0.411875670
   31.590812487    0.411934187    0.411878962
   31.614781237    0.411936845    0.411882172
   31.638749987    0.411939559    0.411885300
   31.662718737    0.411942276    0.411888348
   31.686687487    0.411944943    0.411891316
   31.710656237    0.411947509    0.411894204
   31.734624987    0.411949925    0.411897012
   31.758593737    0.411952148    0.411899738
   31.782562487    0.411954141    0.411902382
   31.806531237    0.411955876    0.411904942
   31.830499987    0.411957333    0.411907419
   31.854468737    0.411958500    0.411909810
   31.878437487    0.411959376    0.411912117
   31.902406237    0.411959969    0.411914338
   31.926374987    0.411960295    0.411916475
   31.950343737    0.411960379    0.411918529
   31.974312487    0.411960254    0.411920502
   31.998281237    0.411959956    0.411922395
   32.022249987    0.411959529    0.411924212
   32.046218737    0.411959016    0.411925956
   32.070187487    0.411958465    0.411927630
   32.094156237    0.411957921    0.411929238
   32.118124987    0.411957429    0.411930785
   32.142093736    0.411957027    0.411932276
   32.166062486    0.411956752    0.411933715
   32.190031236    0.411956634    0.411935106
   32.213999986    0.411956694    0.411936454
   32.237968736    0.411956949    0.411937763
   32.261937486    0.411957405    0.411939037
   32.285906236    0.411958061    0.411940280
   32.309874986    0.411958910    0.411941494
   32.333843736    0.411959936    0.411942683
   32.357812486    0.411961116    0.411943848
   32.381781236    0.411962423    0.411944991
   32.405749986    0.411963825    0.411946113
   32.429718736    0.411965288    0.411947214
   32.453687486    0.411966773    0.411948295
   32.477656236    0.411968244    0.411949354
   32.501624986    0.411969664    0.411950392
   32.525593736    0.411970999    0.411951407
   32.549562486    0.411972219    0.411952397
   32.573531236    0.411973297    0.411953362
   32.597499986    0.411974212    0.411954299
   32.621468736    0.411974949    0.411955207
   32.645437486    0.411975501    0.411956085
   32.669406236    0.411975864    0.411956932
   32.693374986    0.411976043    0.411957746
   32.717343736    0.411976049    0.411958526
   32.741312486    0.411975898    0.411959273
   32.765281236    0.411975611    0.411959987
   32.789249986    0.411975214    0.411960666
   32.813218736    0.411974734    0.411961314
   32.837187486    0.411974202    0.411961929
   32.861156236    0.411973649    0.411962515
   32.885124986    0.411973106    0.411963072
   32.909093736    0.411972602    0.411963602
   32.933062486    0.411972163    0.411964109
   32.957031236    0.411971813    0.411964593
   32.980999986    0.411971571    0.411965058
   33.004968736    0.411971451    0.411965505
   33.028937486    0.411971464    0.411965938
   33.052906236    0.411971612    0.411966359
   33.076874986    0.411971895    0.411966769
   33.100843736    0.411972305    0.411967171
   33.124812486    0.411972833    0.411967566
   33.148781236    0.411973461    0.411967956
   33.172749986    0.411974171    0.411968341
   33.196718736    0.411974942    0.411968723
   33.220687486    0.411975749    0.411969102
   33.244656236    0.411976568    0.411969478
   33.268624986    0.411977375    0.411969851
   33.292593736    0.411978147    0.411970221
   33.316562486    0.411978861    0.411970586
   33.340531236    0.411979499    0.411970946
   33.364499986    0.411980045    0.411971301
   33.388468736    0.411980488    0.411971647
   33.412437486    0.411980819    0.411971985
   33.436406236    0.411981034    0.411972314
   33.460374986    0.411981136    0.411972631
   33.484343736    0.411981128    0.411972936
   33.508312486    0.411981021    0.411973229
   33.532281236    0.411980825    0.411973507
   33.556249986    0.411980557    0.411973770
   33.580218736    0.411980234    0.411974019
   33.604187486    0.411979874    0.411974251
   33.628156236    0.411979498    0.411974469
   33.652124986    0.411979125    0.411974671
   33.676093736    0.411978773    0.411974859
   33.700062486    0.411978460    0.411975032
   33.724031236    0.411978200    0.411975192
   33.747999986    0.411978005    0.411975340
   33.771968736    0.411977885    0.411975476
   33.795937486    0.411977844    0.411975603
   33.819906236    0.411977886    0.411975720
   33.843874986    0.411978008    0.411975830
   33.867843736    0.411978205    0.411975934
   33.891812486    0.411978470    0.411976032
   33.915781236    0.411978792    0.411976127
   33.939749986    0.411979158    0.411976219
   33.963718736    0.411979554    0.411976310
   33.987687486    0.411979964    0.411976400
   34.011656236    0.411980373    0.411976489
   34.035624986    0.411980766    0.411976579
   34.059593736    0.411981128    0.411976670
   34.083562486    0.411981447    0.411976761
   34.107531236    0.411981713    0.411976853
   34.131499986    0.411981916    0.411976945
   34.155468736    0.411982053    0.411977038
   34.179437486    0.411982121    0.411977130
   34.203406236    0.411982120    0.411977221
   34.227374986    0.411982054    0.411977311
   34.251343736    0.411981929    0.411977397
   34.275312486    0.411981755    0.411977481
   34.299281236    0.411981542    0.411977560
   34.323249986    0.411981301    0.411977633
   34.347218736    0.411981047    0.411977701
   34.371187486    0.411980793    0.411977761
   34.395156236    0.411980551    0.411977814
   34.419124986    0.411980334    0.411977858
   34.443093736    0.411980153    0.411977892
   34.467062486    0.411980016    0.411977917
   34.491031236    0.411979932    0.411977932
