<UPF version="2.0.1">
  <PP_INFO>

 This pseudopotential file has been produced using the code
 ONCVPSP  (Optimized Norm-Conservinng Vanderbilt PSeudopotential)
 scalar-relativistic version 2.1.1, 03/26/2014 by D. R. Hamann
 The code is available through a link at URL www.mat-simresearch.com.
 Documentation with the package provides a full discription of the
 input data below.


 While it is not required under the terms of the GNU GPL, it is
 suggested that you cite D. R. Hamann, Phys. Rev. B 88, 085117 (2013)
 in any publication using these pseudopotentials.


 Copyright 2015 The Regents of the University of California
 
 This work is licensed under the Creative Commons Attribution-ShareAlike 
 4.0 International License. To view a copy of this license, visit 
 http://creativecommons.org/licenses/by-sa/4.0/ or send a letter to 
 Creative Commons, PO Box 1866, Mountain View, CA 94042, USA.
 
 This pseudopotential is part of the Schlipf-Gygi norm-conserving 
 pseudopotential library. Its construction parameters were tuned to 
 reproduce materials of a training set with very high accuracy and 
 should be suitable as a general purpose pseudopotential to treat a 
 variety of different compounds. For details of the construction and 
 testing of the pseudopotential please refer to:
 
 [insert reference to paper here]
 
 We kindly ask that you include this reference in all publications 
 associated to this pseudopotential.


    <PP_INPUTFILE>
# ATOM AND REFERENCE CONFIGURATION
# atsym  z    nc    nv    iexc   psfile
  Ar 18.00     3     2     4      upf
#
#   n    l    f        energy (Ha)
    1    0    2.00
    2    0    2.00
    2    1    6.00
    3    0    2.00
    3    1    6.00
#
# PSEUDOPOTENTIAL AND OPTIMIZATION
# lmax
    1
#
#   l,   rc,     ep,   ncon, nbas, qcut
    0   3.19932  -0.89253    5    8   6.36305
    1   1.74121  -0.37741    5    8   6.77888
#
# LOCAL POTENTIAL
# lloc, lpopt,  rc(5),   dvloc0
    4    5   1.68000      0.00000
#
# VANDERBILT-KLEINMAN-BYLANDER PROJECTORs
# l, nproj, debl
    0    2   0.88095
    1    2   3.82069
#
# MODEL CORE CHARGE
# icmod, fcfact
    0   0.00000
#
# LOG DERIVATIVE ANALYSIS
# epsh1, epsh2, depsh
   -5.00    3.00    0.02
#
# OUTPUT GRID
# rlmax, drl
    6.00    0.01
#
# TEST CONFIGURATIONS
# ncnf
    0
# nvcnf
#   n    l    f
    </PP_INPUTFILE>
  </PP_INFO>
  <!--                               -->
  <!-- END OF HUMAN READABLE SECTION -->
  <!--                               -->
    <PP_HEADER
       generated="Generated using ONCVPSP code by D. R. Hamann"
       author="Martin Schlipf and Francois Gygi"
       date="150105"
       comment=""
       element="Ar"
       pseudo_type="NC"
       relativistic="scalar"
       is_ultrasoft="F"
       is_paw="F"
       is_coulomb="F"
       has_so="F"
       has_wfc="F"
       has_gipaw="F"
       core_correction="F"
       functional="PBE"
       z_valence="    8.00"
       total_psenergy="  -2.12245672031E+01"
       rho_cutoff="   6.01000000000E+00"
       l_max="1"
       l_local="-1"
       mesh_size="   602"
       number_of_wfc="0"
       number_of_proj="4"/>
 <PP_MESH>
   <PP_R type="real"  size=" 602" columns="8">
    0.0000    0.0100    0.0200    0.0300    0.0400    0.0500    0.0600    0.0700
    0.0800    0.0900    0.1000    0.1100    0.1200    0.1300    0.1400    0.1500
    0.1600    0.1700    0.1800    0.1900    0.2000    0.2100    0.2200    0.2300
    0.2400    0.2500    0.2600    0.2700    0.2800    0.2900    0.3000    0.3100
    0.3200    0.3300    0.3400    0.3500    0.3600    0.3700    0.3800    0.3900
    0.4000    0.4100    0.4200    0.4300    0.4400    0.4500    0.4600    0.4700
    0.4800    0.4900    0.5000    0.5100    0.5200    0.5300    0.5400    0.5500
    0.5600    0.5700    0.5800    0.5900    0.6000    0.6100    0.6200    0.6300
    0.6400    0.6500    0.6600    0.6700    0.6800    0.6900    0.7000    0.7100
    0.7200    0.7300    0.7400    0.7500    0.7600    0.7700    0.7800    0.7900
    0.8000    0.8100    0.8200    0.8300    0.8400    0.8500    0.8600    0.8700
    0.8800    0.8900    0.9000    0.9100    0.9200    0.9300    0.9400    0.9500
    0.9600    0.9700    0.9800    0.9900    1.0000    1.0100    1.0200    1.0300
    1.0400    1.0500    1.0600    1.0700    1.0800    1.0900    1.1000    1.1100
    1.1200    1.1300    1.1400    1.1500    1.1600    1.1700    1.1800    1.1900
    1.2000    1.2100    1.2200    1.2300    1.2400    1.2500    1.2600    1.2700
    1.2800    1.2900    1.3000    1.3100    1.3200    1.3300    1.3400    1.3500
    1.3600    1.3700    1.3800    1.3900    1.4000    1.4100    1.4200    1.4300
    1.4400    1.4500    1.4600    1.4700    1.4800    1.4900    1.5000    1.5100
    1.5200    1.5300    1.5400    1.5500    1.5600    1.5700    1.5800    1.5900
    1.6000    1.6100    1.6200    1.6300    1.6400    1.6500    1.6600    1.6700
    1.6800    1.6900    1.7000    1.7100    1.7200    1.7300    1.7400    1.7500
    1.7600    1.7700    1.7800    1.7900    1.8000    1.8100    1.8200    1.8300
    1.8400    1.8500    1.8600    1.8700    1.8800    1.8900    1.9000    1.9100
    1.9200    1.9300    1.9400    1.9500    1.9600    1.9700    1.9800    1.9900
    2.0000    2.0100    2.0200    2.0300    2.0400    2.0500    2.0600    2.0700
    2.0800    2.0900    2.1000    2.1100    2.1200    2.1300    2.1400    2.1500
    2.1600    2.1700    2.1800    2.1900    2.2000    2.2100    2.2200    2.2300
    2.2400    2.2500    2.2600    2.2700    2.2800    2.2900    2.3000    2.3100
    2.3200    2.3300    2.3400    2.3500    2.3600    2.3700    2.3800    2.3900
    2.4000    2.4100    2.4200    2.4300    2.4400    2.4500    2.4600    2.4700
    2.4800    2.4900    2.5000    2.5100    2.5200    2.5300    2.5400    2.5500
    2.5600    2.5700    2.5800    2.5900    2.6000    2.6100    2.6200    2.6300
    2.6400    2.6500    2.6600    2.6700    2.6800    2.6900    2.7000    2.7100
    2.7200    2.7300    2.7400    2.7500    2.7600    2.7700    2.7800    2.7900
    2.8000    2.8100    2.8200    2.8300    2.8400    2.8500    2.8600    2.8700
    2.8800    2.8900    2.9000    2.9100    2.9200    2.9300    2.9400    2.9500
    2.9600    2.9700    2.9800    2.9900    3.0000    3.0100    3.0200    3.0300
    3.0400    3.0500    3.0600    3.0700    3.0800    3.0900    3.1000    3.1100
    3.1200    3.1300    3.1400    3.1500    3.1600    3.1700    3.1800    3.1900
    3.2000    3.2100    3.2200    3.2300    3.2400    3.2500    3.2600    3.2700
    3.2800    3.2900    3.3000    3.3100    3.3200    3.3300    3.3400    3.3500
    3.3600    3.3700    3.3800    3.3900    3.4000    3.4100    3.4200    3.4300
    3.4400    3.4500    3.4600    3.4700    3.4800    3.4900    3.5000    3.5100
    3.5200    3.5300    3.5400    3.5500    3.5600    3.5700    3.5800    3.5900
    3.6000    3.6100    3.6200    3.6300    3.6400    3.6500    3.6600    3.6700
    3.6800    3.6900    3.7000    3.7100    3.7200    3.7300    3.7400    3.7500
    3.7600    3.7700    3.7800    3.7900    3.8000    3.8100    3.8200    3.8300
    3.8400    3.8500    3.8600    3.8700    3.8800    3.8900    3.9000    3.9100
    3.9200    3.9300    3.9400    3.9500    3.9600    3.9700    3.9800    3.9900
    4.0000    4.0100    4.0200    4.0300    4.0400    4.0500    4.0600    4.0700
    4.0800    4.0900    4.1000    4.1100    4.1200    4.1300    4.1400    4.1500
    4.1600    4.1700    4.1800    4.1900    4.2000    4.2100    4.2200    4.2300
    4.2400    4.2500    4.2600    4.2700    4.2800    4.2900    4.3000    4.3100
    4.3200    4.3300    4.3400    4.3500    4.3600    4.3700    4.3800    4.3900
    4.4000    4.4100    4.4200    4.4300    4.4400    4.4500    4.4600    4.4700
    4.4800    4.4900    4.5000    4.5100    4.5200    4.5300    4.5400    4.5500
    4.5600    4.5700    4.5800    4.5900    4.6000    4.6100    4.6200    4.6300
    4.6400    4.6500    4.6600    4.6700    4.6800    4.6900    4.7000    4.7100
    4.7200    4.7300    4.7400    4.7500    4.7600    4.7700    4.7800    4.7900
    4.8000    4.8100    4.8200    4.8300    4.8400    4.8500    4.8600    4.8700
    4.8800    4.8900    4.9000    4.9100    4.9200    4.9300    4.9400    4.9500
    4.9600    4.9700    4.9800    4.9900    5.0000    5.0100    5.0200    5.0300
    5.0400    5.0500    5.0600    5.0700    5.0800    5.0900    5.1000    5.1100
    5.1200    5.1300    5.1400    5.1500    5.1600    5.1700    5.1800    5.1900
    5.2000    5.2100    5.2200    5.2300    5.2400    5.2500    5.2600    5.2700
    5.2800    5.2900    5.3000    5.3100    5.3200    5.3300    5.3400    5.3500
    5.3600    5.3700    5.3800    5.3900    5.4000    5.4100    5.4200    5.4300
    5.4400    5.4500    5.4600    5.4700    5.4800    5.4900    5.5000    5.5100
    5.5200    5.5300    5.5400    5.5500    5.5600    5.5700    5.5800    5.5900
    5.6000    5.6100    5.6200    5.6300    5.6400    5.6500    5.6600    5.6700
    5.6800    5.6900    5.7000    5.7100    5.7200    5.7300    5.7400    5.7500
    5.7600    5.7700    5.7800    5.7900    5.8000    5.8100    5.8200    5.8300
    5.8400    5.8500    5.8600    5.8700    5.8800    5.8900    5.9000    5.9100
    5.9200    5.9300    5.9400    5.9500    5.9600    5.9700    5.9800    5.9900
    6.0000    6.0100
   </PP_R>
   <PP_RAB type="real"  size=" 602" columns="8">
    0.0100    0.0100    0.0100    0.0100    0.0100    0.0100    0.0100    0.0100
    0.0100    0.0100    0.0100    0.0100    0.0100    0.0100    0.0100    0.0100
    0.0100    0.0100    0.0100    0.0100    0.0100    0.0100    0.0100    0.0100
    0.0100    0.0100    0.0100    0.0100    0.0100    0.0100    0.0100    0.0100
    0.0100    0.0100    0.0100    0.0100    0.0100    0.0100    0.0100    0.0100
    0.0100    0.0100    0.0100    0.0100    0.0100    0.0100    0.0100    0.0100
    0.0100    0.0100    0.0100    0.0100    0.0100    0.0100    0.0100    0.0100
    0.0100    0.0100    0.0100    0.0100    0.0100    0.0100    0.0100    0.0100
    0.0100    0.0100    0.0100    0.0100    0.0100    0.0100    0.0100    0.0100
    0.0100    0.0100    0.0100    0.0100    0.0100    0.0100    0.0100    0.0100
    0.0100    0.0100    0.0100    0.0100    0.0100    0.0100    0.0100    0.0100
    0.0100    0.0100    0.0100    0.0100    0.0100    0.0100    0.0100    0.0100
    0.0100    0.0100    0.0100    0.0100    0.0100    0.0100    0.0100    0.0100
    0.0100    0.0100    0.0100    0.0100    0.0100    0.0100    0.0100    0.0100
    0.0100    0.0100    0.0100    0.0100    0.0100    0.0100    0.0100    0.0100
    0.0100    0.0100    0.0100    0.0100    0.0100    0.0100    0.0100    0.0100
    0.0100    0.0100    0.0100    0.0100    0.0100    0.0100    0.0100    0.0100
    0.0100    0.0100    0.0100    0.0100    0.0100    0.0100    0.0100    0.0100
    0.0100    0.0100    0.0100    0.0100    0.0100    0.0100    0.0100    0.0100
    0.0100    0.0100    0.0100    0.0100    0.0100    0.0100    0.0100    0.0100
    0.0100    0.0100    0.0100    0.0100    0.0100    0.0100    0.0100    0.0100
    0.0100    0.0100    0.0100    0.0100    0.0100    0.0100    0.0100    0.0100
    0.0100    0.0100    0.0100    0.0100    0.0100    0.0100    0.0100    0.0100
    0.0100    0.0100    0.0100    0.0100    0.0100    0.0100    0.0100    0.0100
    0.0100    0.0100    0.0100    0.0100    0.0100    0.0100    0.0100    0.0100
    0.0100    0.0100    0.0100    0.0100    0.0100    0.0100    0.0100    0.0100
    0.0100    0.0100    0.0100    0.0100    0.0100    0.0100    0.0100    0.0100
    0.0100    0.0100    0.0100    0.0100    0.0100    0.0100    0.0100    0.0100
    0.0100    0.0100    0.0100    0.0100    0.0100    0.0100    0.0100    0.0100
    0.0100    0.0100    0.0100    0.0100    0.0100    0.0100    0.0100    0.0100
    0.0100    0.0100    0.0100    0.0100    0.0100    0.0100    0.0100    0.0100
    0.0100    0.0100    0.0100    0.0100    0.0100    0.0100    0.0100    0.0100
    0.0100    0.0100    0.0100    0.0100    0.0100    0.0100    0.0100    0.0100
    0.0100    0.0100    0.0100    0.0100    0.0100    0.0100    0.0100    0.0100
    0.0100    0.0100    0.0100    0.0100    0.0100    0.0100    0.0100    0.0100
    0.0100    0.0100    0.0100    0.0100    0.0100    0.0100    0.0100    0.0100
    0.0100    0.0100    0.0100    0.0100    0.0100    0.0100    0.0100    0.0100
    0.0100    0.0100    0.0100    0.0100    0.0100    0.0100    0.0100    0.0100
    0.0100    0.0100    0.0100    0.0100    0.0100    0.0100    0.0100    0.0100
    0.0100    0.0100    0.0100    0.0100    0.0100    0.0100    0.0100    0.0100
    0.0100    0.0100    0.0100    0.0100    0.0100    0.0100    0.0100    0.0100
    0.0100    0.0100    0.0100    0.0100    0.0100    0.0100    0.0100    0.0100
    0.0100    0.0100    0.0100    0.0100    0.0100    0.0100    0.0100    0.0100
    0.0100    0.0100    0.0100    0.0100    0.0100    0.0100    0.0100    0.0100
    0.0100    0.0100    0.0100    0.0100    0.0100    0.0100    0.0100    0.0100
    0.0100    0.0100    0.0100    0.0100    0.0100    0.0100    0.0100    0.0100
    0.0100    0.0100    0.0100    0.0100    0.0100    0.0100    0.0100    0.0100
    0.0100    0.0100    0.0100    0.0100    0.0100    0.0100    0.0100    0.0100
    0.0100    0.0100    0.0100    0.0100    0.0100    0.0100    0.0100    0.0100
    0.0100    0.0100    0.0100    0.0100    0.0100    0.0100    0.0100    0.0100
    0.0100    0.0100    0.0100    0.0100    0.0100    0.0100    0.0100    0.0100
    0.0100    0.0100    0.0100    0.0100    0.0100    0.0100    0.0100    0.0100
    0.0100    0.0100    0.0100    0.0100    0.0100    0.0100    0.0100    0.0100
    0.0100    0.0100    0.0100    0.0100    0.0100    0.0100    0.0100    0.0100
    0.0100    0.0100    0.0100    0.0100    0.0100    0.0100    0.0100    0.0100
    0.0100    0.0100    0.0100    0.0100    0.0100    0.0100    0.0100    0.0100
    0.0100    0.0100    0.0100    0.0100    0.0100    0.0100    0.0100    0.0100
    0.0100    0.0100    0.0100    0.0100    0.0100    0.0100    0.0100    0.0100
    0.0100    0.0100    0.0100    0.0100    0.0100    0.0100    0.0100    0.0100
    0.0100    0.0100    0.0100    0.0100    0.0100    0.0100    0.0100    0.0100
    0.0100    0.0100    0.0100    0.0100    0.0100    0.0100    0.0100    0.0100
    0.0100    0.0100    0.0100    0.0100    0.0100    0.0100    0.0100    0.0100
    0.0100    0.0100    0.0100    0.0100    0.0100    0.0100    0.0100    0.0100
    0.0100    0.0100    0.0100    0.0100    0.0100    0.0100    0.0100    0.0100
    0.0100    0.0100    0.0100    0.0100    0.0100    0.0100    0.0100    0.0100
    0.0100    0.0100    0.0100    0.0100    0.0100    0.0100    0.0100    0.0100
    0.0100    0.0100    0.0100    0.0100    0.0100    0.0100    0.0100    0.0100
    0.0100    0.0100    0.0100    0.0100    0.0100    0.0100    0.0100    0.0100
    0.0100    0.0100    0.0100    0.0100    0.0100    0.0100    0.0100    0.0100
    0.0100    0.0100    0.0100    0.0100    0.0100    0.0100    0.0100    0.0100
    0.0100    0.0100    0.0100    0.0100    0.0100    0.0100    0.0100    0.0100
    0.0100    0.0100    0.0100    0.0100    0.0100    0.0100    0.0100    0.0100
    0.0100    0.0100    0.0100    0.0100    0.0100    0.0100    0.0100    0.0100
    0.0100    0.0100    0.0100    0.0100    0.0100    0.0100    0.0100    0.0100
    0.0100    0.0100    0.0100    0.0100    0.0100    0.0100    0.0100    0.0100
    0.0100    0.0100
   </PP_RAB>
 </PP_MESH>
  <PP_LOCAL type="real"  size=" 602" columns="4">
   -2.1181407523E+01   -2.1182271497E+01   -2.1185302850E+01   -2.1189971629E+01
   -2.1195747884E+01   -2.1201971658E+01   -2.1207917406E+01   -2.1212856904E+01
   -2.1216112777E+01   -2.1217097818E+01   -2.1215338484E+01   -2.1210483682E+01
   -2.1202301638E+01   -2.1190668405E+01   -2.1175551482E+01   -2.1156991493E+01
   -2.1135084099E+01   -2.1109963561E+01   -2.1081788721E+01   -2.1050731663E+01
   -2.1016968984E+01   -2.0980675427E+01   -2.0942019492E+01   -2.0901160659E+01
   -2.0858247850E+01   -2.0813418799E+01   -2.0766800064E+01   -2.0718507465E+01
   -2.0668646780E+01   -2.0617314557E+01   -2.0564598972E+01   -2.0510580668E+01
   -2.0455333518E+01   -2.0398925327E+01   -2.0341418402E+01   -2.0282870076E+01
   -2.0223333091E+01   -2.0162855946E+01   -2.0101483136E+01   -2.0039255348E+01
   -1.9976209620E+01   -1.9912379441E+01   -1.9847794846E+01   -1.9782482485E+01
   -1.9716465690E+01   -1.9649764544E+01   -1.9582395959E+01   -1.9514373768E+01
   -1.9445708836E+01   -1.9376409207E+01   -1.9306480220E+01   -1.9235924730E+01
   -1.9164743320E+01   -1.9092934481E+01   -1.9020494917E+01   -1.8947419792E+01
   -1.8873703005E+01   -1.8799337508E+01   -1.8724315582E+01   -1.8648629152E+01
   -1.8572270073E+01   -1.8495230419E+01   -1.8417502731E+01   -1.8339080302E+01
   -1.8259957361E+01   -1.8180129273E+01   -1.8099592751E+01   -1.8018345938E+01
   -1.7936388510E+01   -1.7853721808E+01   -1.7770348844E+01   -1.7686274315E+01
   -1.7601504603E+01   -1.7516047733E+01   -1.7429913379E+01   -1.7343112757E+01
   -1.7255658563E+01   -1.7167564893E+01   -1.7078847165E+01   -1.6989522032E+01
   -1.6899607300E+01   -1.6809121849E+01   -1.6718085554E+01   -1.6626519224E+01
   -1.6534444535E+01   -1.6441883979E+01   -1.6348860819E+01   -1.6255399051E+01
   -1.6161523372E+01   -1.6067259152E+01   -1.5972632418E+01   -1.5877669829E+01
   -1.5782398663E+01   -1.5686846799E+01   -1.5591042699E+01   -1.5495015388E+01
   -1.5398794425E+01   -1.5302409870E+01   -1.5205892253E+01   -1.5109272549E+01
   -1.5012582094E+01   -1.4915852537E+01   -1.4819115773E+01   -1.4722403871E+01
   -1.4625749002E+01   -1.4529183341E+01   -1.4432738972E+01   -1.4336447794E+01
   -1.4240341436E+01   -1.4144451198E+01   -1.4048807821E+01   -1.3953441504E+01
   -1.3858381789E+01   -1.3763657608E+01   -1.3669296842E+01   -1.3575326550E+01
   -1.3481772884E+01   -1.3388661088E+01   -1.3296015044E+01   -1.3203857682E+01
   -1.3112211011E+01   -1.3021095628E+01   -1.2930530978E+01   -1.2840535599E+01
   -1.2751126813E+01   -1.2662320602E+01   -1.2574132173E+01   -1.2486575660E+01
   -1.2399663874E+01   -1.2313409030E+01   -1.2227822320E+01   -1.2142913834E+01
   -1.2058693235E+01   -1.1975169147E+01   -1.1892349445E+01   -1.1810241710E+01
   -1.1728852436E+01   -1.1648187834E+01   -1.1568253657E+01   -1.1489054894E+01
   -1.1410596455E+01   -1.1332882571E+01   -1.1255917210E+01   -1.1179704108E+01
   -1.1104246415E+01   -1.1029547302E+01   -1.0955609349E+01   -1.0882435033E+01
   -1.0810026518E+01   -1.0738385538E+01   -1.0667513828E+01   -1.0597412368E+01
   -1.0528082309E+01   -1.0459523931E+01   -1.0391737544E+01   -1.0324722747E+01
   -1.0258478793E+01   -1.0193004494E+01   -1.0128297832E+01   -1.0064356691E+01
   -1.0001177545E+01   -9.9387571854E+00   -9.8770903258E+00   -9.8161724723E+00
   -9.7559963338E+00   -9.6965559131E+00   -9.6378416873E+00   -9.5798458652E+00
   -9.5225566594E+00   -9.4659637914E+00   -9.4100548037E+00   -9.3548178187E+00
   -9.3002408199E+00   -9.2463117464E+00   -9.1930188247E+00   -9.1403498517E+00
   -9.0882939264E+00   -9.0368395817E+00   -8.9859766192E+00   -8.9356947328E+00
   -8.8859838637E+00   -8.8368338346E+00   -8.7882349370E+00   -8.7401777740E+00
   -8.6926529509E+00   -8.6456515240E+00   -8.5991643155E+00   -8.5531829331E+00
   -8.5076984750E+00   -8.4627029395E+00   -8.4181878927E+00   -8.3741455008E+00
   -8.3305678753E+00   -8.2874473092E+00   -8.2447764637E+00   -8.2025477341E+00
   -8.1607542596E+00   -8.1193887101E+00   -8.0784444444E+00   -8.0379146306E+00
   -7.9977926562E+00   -7.9580722455E+00   -7.9187467955E+00   -7.8798104637E+00
   -7.8412569748E+00   -7.8030805426E+00   -7.7652754246E+00   -7.7278357762E+00
   -7.6907563329E+00   -7.6540314177E+00   -7.6176559096E+00   -7.5816246177E+00
   -7.5459323078E+00   -7.5105742637E+00   -7.4755453838E+00   -7.4408410644E+00
   -7.4064566828E+00   -7.3723874768E+00   -7.3386292497E+00   -7.3051774532E+00
   -7.2720278646E+00   -7.2391764285E+00   -7.2066187644E+00   -7.1743511303E+00
   -7.1423695185E+00   -7.1106699697E+00   -7.0792489146E+00   -7.0481024808E+00
   -7.0172271167E+00   -6.9866193789E+00   -6.9562755481E+00   -6.9261924275E+00
   -6.8963666560E+00   -6.8667947822E+00   -6.8374738011E+00   -6.8084004613E+00
   -6.7795716047E+00   -6.7509843442E+00   -6.7226355594E+00   -6.6945223464E+00
   -6.6666419295E+00   -6.6389913191E+00   -6.6115678273E+00   -6.5843687863E+00
   -6.5573913355E+00   -6.5306329684E+00   -6.5040911231E+00   -6.4777630646E+00
   -6.4516464374E+00   -6.4257387844E+00   -6.4000374916E+00   -6.3745403288E+00
   -6.3492449421E+00   -6.3241488342E+00   -6.2992498778E+00   -6.2745458214E+00
   -6.2500342795E+00   -6.2257132092E+00   -6.2015804599E+00   -6.1776337547E+00
   -6.1538711178E+00   -6.1302904992E+00   -6.1068897279E+00   -6.0836668802E+00
   -6.0606200060E+00   -6.0377470393E+00   -6.0150460939E+00   -5.9925153199E+00
   -5.9701527569E+00   -5.9479565420E+00   -5.9259249261E+00   -5.9040560560E+00
   -5.8823480793E+00   -5.8607993478E+00   -5.8394081179E+00   -5.8181725366E+00
   -5.7970910554E+00   -5.7761620088E+00   -5.7553836385E+00   -5.7347543896E+00
   -5.7142727036E+00   -5.6939369340E+00   -5.6737454938E+00   -5.6536969361E+00
   -5.6337897327E+00   -5.6140222534E+00   -5.5943931604E+00   -5.5749010003E+00
   -5.5555442390E+00   -5.5363214982E+00   -5.5172314393E+00   -5.4982726515E+00
   -5.4794436842E+00   -5.4607433168E+00   -5.4421702284E+00   -5.4237230109E+00
   -5.4054004349E+00   -5.3872012816E+00   -5.3691242722E+00   -5.3511680787E+00
   -5.3333316050E+00   -5.3156136544E+00   -5.2980129574E+00   -5.2805283731E+00
   -5.2631588136E+00   -5.2459031407E+00   -5.2287601043E+00   -5.2117287281E+00
   -5.1948079327E+00   -5.1779965982E+00   -5.1612936160E+00   -5.1446980357E+00
   -5.1282088280E+00   -5.1118248944E+00   -5.0955452593E+00   -5.0793689878E+00
   -5.0632951004E+00   -5.0473225286E+00   -5.0314504054E+00   -5.0156778123E+00
   -5.0000038087E+00   -4.9844273809E+00   -4.9689477261E+00   -4.9535639525E+00
   -4.9382751466E+00   -4.9230803766E+00   -4.9079788582E+00   -4.8929697376E+00
   -4.8780521255E+00   -4.8632251508E+00   -4.8484880661E+00   -4.8338400580E+00
   -4.8192802729E+00   -4.8048078961E+00   -4.7904222090E+00   -4.7761224361E+00
   -4.7619077609E+00   -4.7477774107E+00   -4.7337306998E+00   -4.7197668890E+00
   -4.7058852012E+00   -4.6920848936E+00   -4.6783653162E+00   -4.6647257641E+00
   -4.6511655024E+00   -4.6376838068E+00   -4.6242800654E+00   -4.6109536060E+00
   -4.5977037382E+00   -4.5845297461E+00   -4.5714310573E+00   -4.5584070314E+00
   -4.5454570247E+00   -4.5325803198E+00   -4.5197763860E+00   -4.5070446125E+00
   -4.4943843886E+00   -4.4817950363E+00   -4.4692760182E+00   -4.4568267681E+00
   -4.4444467038E+00   -4.4321351987E+00   -4.4198916902E+00   -4.4077156616E+00
   -4.3956065576E+00   -4.3835638060E+00   -4.3715868112E+00   -4.3596751062E+00
   -4.3478281616E+00   -4.3360454481E+00   -4.3243263723E+00   -4.3126704756E+00
   -4.3010772666E+00   -4.2895462407E+00   -4.2780768623E+00   -4.2666686209E+00
   -4.2553210811E+00   -4.2440337617E+00   -4.2328061816E+00   -4.2216377924E+00
   -4.2105281942E+00   -4.1994769343E+00   -4.1884835541E+00   -4.1775475665E+00
   -4.1666685038E+00   -4.1558459736E+00   -4.1450795385E+00   -4.1343687611E+00
   -4.1237131484E+00   -4.1131123192E+00   -4.1025658717E+00   -4.0920733890E+00
   -4.0816344438E+00   -4.0712485733E+00   -4.0609154384E+00   -4.0506346415E+00
   -4.0404057851E+00   -4.0302284412E+00   -4.0201022125E+00   -4.0100267579E+00
   -4.0000016984E+00   -3.9900266548E+00   -3.9801012031E+00   -3.9702249996E+00
   -3.9603977044E+00   -3.9506189561E+00   -3.9408883933E+00   -3.9312055992E+00
   -3.9215702733E+00   -3.9119820799E+00   -3.9024406744E+00   -3.8929457123E+00
   -3.8834967876E+00   -3.8740936323E+00   -3.8647359185E+00   -3.8554233176E+00
   -3.8461554973E+00   -3.8369320769E+00   -3.8277527998E+00   -3.8186173530E+00
   -3.8095254233E+00   -3.8004766930E+00   -3.7914707993E+00   -3.7825074983E+00
   -3.7735864916E+00   -3.7647074804E+00   -3.7558701652E+00   -3.7470741920E+00
   -3.7383193325E+00   -3.7296053021E+00   -3.7209318160E+00   -3.7122985896E+00
   -3.7037052868E+00   -3.6951516807E+00   -3.6866375052E+00   -3.6781624891E+00
   -3.6697263608E+00   -3.6613288078E+00   -3.6529695937E+00   -3.6446484749E+00
   -3.6363651927E+00   -3.6281194882E+00   -3.6199110751E+00   -3.6117397003E+00
   -3.6036051448E+00   -3.5955071618E+00   -3.5874455047E+00   -3.5794199158E+00
   -3.5714301190E+00   -3.5634759215E+00   -3.5555570880E+00   -3.5476733833E+00
   -3.5398245723E+00   -3.5320103761E+00   -3.5242306036E+00   -3.5164850390E+00
   -3.5087734580E+00   -3.5010956364E+00   -3.4934513286E+00   -3.4858403058E+00
   -3.4782623841E+00   -3.4707173498E+00   -3.4632049891E+00   -3.4557250881E+00
   -3.4482773876E+00   -3.4408617242E+00   -3.4334778981E+00   -3.4261257055E+00
   -3.4188049424E+00   -3.4115153871E+00   -3.4042568260E+00   -3.3970290957E+00
   -3.3898320019E+00   -3.3826653501E+00   -3.3755289462E+00   -3.3684225605E+00
   -3.3613460278E+00   -3.3542991755E+00   -3.3472818183E+00   -3.3402937707E+00
   -3.3333348452E+00   -3.3264048156E+00   -3.3195035488E+00   -3.3126308681E+00
   -3.3057865967E+00   -3.2989705582E+00   -3.2921825623E+00   -3.2854224160E+00
   -3.2786899830E+00   -3.2719850947E+00   -3.2653075829E+00   -3.2586572790E+00
   -3.2520339939E+00   -3.2454375595E+00   -3.2388678390E+00   -3.2323246720E+00
   -3.2258078978E+00   -3.2193173558E+00   -3.2128528609E+00   -3.2064142622E+00
   -3.2000014255E+00   -3.1936141977E+00   -3.1872524258E+00   -3.1809159567E+00
   -3.1746046119E+00   -3.1683182505E+00   -3.1620567438E+00   -3.1558199458E+00
   -3.1496077106E+00   -3.1434198921E+00   -3.1372563215E+00   -3.1311168608E+00
   -3.1250013894E+00   -3.1189097681E+00   -3.1128418579E+00   -3.1067975195E+00
   -3.1007765958E+00   -3.0947789457E+00   -3.0888044591E+00   -3.0828530033E+00
   -3.0769244458E+00   -3.0710186537E+00   -3.0651354844E+00   -3.0592747873E+00
   -3.0534364653E+00   -3.0476203919E+00   -3.0418264405E+00   -3.0360544848E+00
   -3.0303043981E+00   -3.0245760162E+00   -3.0188692559E+00   -3.0131839968E+00
   -3.0075201183E+00   -3.0018774997E+00   -2.9962560206E+00   -2.9906555356E+00
   -2.9850759393E+00   -2.9795171297E+00   -2.9739789920E+00   -2.9684614110E+00
   -2.9629642719E+00   -2.9574874506E+00   -2.9520308146E+00   -2.9465942821E+00
   -2.9411777434E+00   -2.9357810888E+00   -2.9304042088E+00   -2.9250469937E+00
   -2.9197093068E+00   -2.9143910604E+00   -2.9090921590E+00   -2.9038124979E+00
   -2.8985519726E+00   -2.8933104787E+00   -2.8880879049E+00   -2.8828841260E+00
   -2.8776990705E+00   -2.8725326388E+00   -2.8673847313E+00   -2.8622552483E+00
   -2.8571440901E+00   -2.8520511385E+00   -2.8469762991E+00   -2.8419194927E+00
   -2.8368806242E+00   -2.8318595987E+00   -2.8268563212E+00   -2.8218706966E+00
   -2.8169026027E+00   -2.8119519691E+00   -2.8070187113E+00   -2.8021027389E+00
   -2.7972039611E+00   -2.7923222875E+00   -2.7874576271E+00   -2.7826098577E+00
   -2.7777789249E+00   -2.7729647423E+00   -2.7681672235E+00   -2.7633862822E+00
   -2.7586218321E+00   -2.7538737827E+00   -2.7491420244E+00   -2.7444265026E+00
   -2.7397271350E+00   -2.7350438391E+00   -2.7303765327E+00   -2.7257251335E+00
   -2.7210895542E+00   -2.7164696917E+00   -2.7118654937E+00   -2.7072768816E+00
   -2.7027037770E+00   -2.6981461013E+00   -2.6936037761E+00   -2.6890767199E+00
   -2.6845648302E+00   -2.6800680594E+00   -2.6755863327E+00   -2.6711195752E+00
   -2.6666677121E+00   -2.6622306685E+00
  </PP_LOCAL>
 <PP_NONLOCAL>
   <PP_BETA.1
       type="real"
       size=" 602"
       columns="4"
       index="1"
       angular_momentum="0"
       cutoff_radius_index=" 324"
       cutoff_radius="    3.2300000000E+00" >
    0.0000000000E+00    3.1606961546E-02    6.3182604872E-02    9.4695604182E-02
    1.2611461875E-01    1.5740828601E-01    1.8854521528E-01    2.1949398237E-01
    2.5022312527E-01    2.8070114108E-01    3.1089648448E-01    3.4077756774E-01
    3.7031276272E-01    3.9947040475E-01    4.2821879873E-01    4.5652622751E-01
    4.8436096277E-01    5.1169127838E-01    5.3848546647E-01    5.6471185627E-01
    5.9033883575E-01    6.1533487614E-01    6.3966855944E-01    6.6330860887E-01
    6.8622392222E-01    7.0838360821E-01    7.2975702588E-01    7.5031382669E-01
    7.7002399952E-01    7.8885791851E-01    8.0678639344E-01    8.2378072275E-01
    8.3981274893E-01    8.5485491563E-01    8.6888032888E-01    8.8186281658E-01
    8.9377699446E-01    9.0459832857E-01    9.1430320322E-01    9.2286898821E-01
    9.3027410634E-01    9.3649810256E-01    9.4152171319E-01    9.4532693515E-01
    9.4789709497E-01    9.4921691737E-01    9.4927259299E-01    9.4805184514E-01
    9.4554399472E-01    9.4174002152E-01    9.3663263395E-01    9.3021632107E-01
    9.2248740600E-01    9.1344411426E-01    9.0308661116E-01    8.9141705212E-01
    8.7843963656E-01    8.6416062865E-01    8.4858841781E-01    8.3173352510E-01
    8.1360865030E-01    7.9422868465E-01    7.7361072014E-01    7.5177408548E-01
    7.2874032548E-01    7.0453321331E-01    6.7917875558E-01    6.5270516564E-01
    6.2514284972E-01    5.9652439624E-01    5.6688453794E-01    5.3626011760E-01
    5.0469004925E-01    4.7221527179E-01    4.3887869819E-01    4.0472515397E-01
    3.6980131408E-01    3.3415563291E-01    2.9783826864E-01    2.6090100186E-01
    2.2339714891E-01    1.8538146997E-01    1.4691007219E-01    1.0804030797E-01
    6.8830668797E-02    2.9340674703E-02   -1.0369240243E-02   -5.0237846221E-02
   -9.0203239374E-02   -1.3020296667E-01   -1.7017415354E-01   -2.1005363399E-01
   -2.4977808279E-01   -2.8928414930E-01   -3.2850859255E-01   -3.6738841719E-01
   -4.0586100971E-01   -4.4386425055E-01   -4.8133666634E-01   -5.1821765418E-01