
     Program PWSCF v.6.7MaX starts on 10Dec2020 at 14:45:44 

     This program is part of the open-source Quantum ESPRESSO suite
     for quantum simulation of materials; please cite
         "P. Giannozzi et al., J. Phys.:Condens. Matter 21 395502 (2009);
         "P. Giannozzi et al., J. Phys.:Condens. Matter 29 465901 (2017);
          URL http://www.quantum-espresso.org", 
     in publications or presentations arising from this work. More details at
     http://www.quantum-espresso.org/quote

     Parallel version (MPI & OpenMP), running on       4 processor cores
     Number of MPI processes:                 4
     Threads/MPI process:                     1

     MPI processes distributed on     1 nodes
     R & G space division:  proc/nbgrp/npool/nimage =       4
     Reading input from uspp-ppcg-gamma.in

     Current dimensions of program PWSCF are:
     Max number of different atomic species (ntypx) = 10
     Max number of k-points (npk) =  40000
     Max angular momentum in pseudopotentials (lmaxx) =  3
     file H.pbe-rrkjus.UPF: wavefunction(s)  1S renormalized
     file C.pbe-rrkjus.UPF: wavefunction(s)  2S 2P renormalized

     IMPORTANT: XC functional enforced from input :
     Exchange-correlation= PBE
                           (   1   4   3   4   0   0   0)
     Any further DFT definition will be discarded
     Please, verify this is what you really want


     gamma-point specific algorithms are used

     Subspace diagonalization in iterative solution of the eigenvalue problem:
     a serial algorithm will be used

 
     Parallelization info
     --------------------
     sticks:   dense  smooth     PW     G-vecs:    dense   smooth      PW
     Min         100     100     24                 1544     1544     186
     Max         102     102     26                 1550     1550     190
     Sum         405     405    101                 6187     6187     751
 


     bravais-lattice index     =            1
     lattice parameter (alat)  =       8.0000  a.u.
     unit-cell volume          =     512.0000 (a.u.)^3
     number of atoms/cell      =           10
     number of atomic types    =            2
     number of electrons       =        22.00
     number of Kohn-Sham states=           11
     kinetic-energy cutoff     =      20.0000  Ry
     charge density cutoff     =      80.0000  Ry
     scf convergence threshold =      1.0E-15
     mixing beta               =       0.7000
     number of iterations used =            8  plain     mixing
     Exchange-correlation= PBE
                           (   1   4   3   4   0   0   0)

     celldm(1)=   8.000000  celldm(2)=   0.000000  celldm(3)=   0.000000
     celldm(4)=   0.000000  celldm(5)=   0.000000  celldm(6)=   0.000000

     crystal axes: (cart. coord. in units of alat)
               a(1) = (   1.000000   0.000000   0.000000 )  
               a(2) = (   0.000000   1.000000   0.000000 )  
               a(3) = (   0.000000   0.000000   1.000000 )  

     reciprocal axes: (cart. coord. in units 2 pi/alat)
               b(1) = (  1.000000  0.000000  0.000000 )  
               b(2) = (  0.000000  1.000000  0.000000 )  
               b(3) = (  0.000000  0.000000  1.000000 )  


     PseudoPot. # 1 for H  read from file:
     /marconi/home/userexternal/icarnime/q-e/test-suite/..//pseudo/H.pbe-rrkjus.UPF
     MD5 check sum: 2d52a7f45632fd764c17cc6affed14c8
     Pseudo is Ultrasoft, Zval =  1.0
     Generated by new atomic code, or converted to UPF format
     Using radial grid of 1061 points,  2 beta functions with: 
                l(1) =   0
                l(2) =   0
     Q(r) pseudized with 0 coefficients 


     PseudoPot. # 2 for C  read from file:
     /marconi/home/userexternal/icarnime/q-e/test-suite/..//pseudo/C.pbe-rrkjus.UPF
     MD5 check sum: c9ac5a99bc85b198593446162950cd17
     Pseudo is Ultrasoft, Zval =  4.0
     Generated by new atomic code, or converted to UPF format
     Using radial grid of  627 points,  4 beta functions with: 
                l(1) =   0
                l(2) =   0
                l(3) =   1
                l(4) =   1
     Q(r) pseudized with 0 coefficients 


     atomic species   valence    mass     pseudopotential
        H              1.00     1.00783     H ( 1.00)
        C              4.00    12.00000     C ( 1.00)

     No symmetry found



   Cartesian axes

     site n.     atom                  positions (alat units)
         1           H   tau(   1) = (  -0.3396188  -0.3072775   0.2952175  )
         2           H   tau(   2) = (  -0.3641150   0.3114112   0.1191170  )
         3           H   tau(   3) = (   0.2545363  -0.3380175  -0.1311087  )
         4           H   tau(   4) = (   0.3886387  -0.2037337   0.2366638  )
         5           H   tau(   5) = (   0.3060188   0.3298075   0.0415838  )
         6           H   tau(   6) = (   0.1176044   0.2002337  -0.3229712  )
         7           C   tau(   7) = (  -0.1518812  -0.1636275   0.1645763  )
         8           C   tau(   8) = (  -0.1701575   0.1457675   0.1031486  )
         9           C   tau(   9) = (   0.1935900  -0.1791975   0.0638284  )
        10           C   tau(  10) = (   0.1368550   0.1713513  -0.0621193  )

     number of k points=     1
                       cart. coord. in units 2pi/alat
        k(    1) = (   0.0000000   0.0000000   0.0000000), wk =   2.0000000

     Dense  grid:     3094 G-vectors     FFT dimensions: (  24,  24,  24)

     Estimated max dynamical RAM per process >       1.78 MB

     Estimated total dynamical RAM >       7.13 MB

     Initial potential from superposition of free atoms

     starting charge   21.42256, renormalised to   22.00000
     Starting wfcs are   22 randomized atomic wfcs

     total cpu time spent up to now is        0.1 secs

     Self-consistent Calculation

     iteration #  1     ecut=    20.00 Ry     beta= 0.70
     PPCG style diagonalization
     ethr =  1.00E-02,  avg # of iterations =  4.0

     total cpu time spent up to now is        0.1 secs

     total energy              =     -52.19231776 Ry
     estimated scf accuracy    <       1.39180176 Ry

     iteration #  2     ecut=    20.00 Ry     beta= 0.70
     PPCG style diagonalization
     ethr =  6.33E-03,  avg # of iterations =  5.0

     total cpu time spent up to now is        0.1 secs

     total energy              =     -52.34435850 Ry
     estimated scf accuracy    <       0.13066320 Ry

     iteration #  3     ecut=    20.00 Ry     beta= 0.70
     PPCG style diagonalization
     ethr =  5.94E-04,  avg # of iterations =  6.0

     total cpu time spent up to now is        0.1 secs

     total energy              =     -52.37035140 Ry
     estimated scf accuracy    <       0.04509020 Ry

     iteration #  4     ecut=    20.00 Ry     beta= 0.70
     PPCG style diagonalization
     ethr =  2.05E-04,  avg # of iterations =  6.0

     total cpu time spent up to now is        0.1 secs

     total energy              =     -52.38039086 Ry
     estimated scf accuracy    <       0.00555948 Ry

     iteration #  5     ecut=    20.00 Ry     beta= 0.70
     PPCG style diagonalization
     ethr =  2.53E-05,  avg # of iterations =  5.0

     total cpu time spent up to now is        0.1 secs

     total energy              =     -52.38160276 Ry
     estimated scf accuracy    <       0.00061438 Ry

     iteration #  6     ecut=    20.00 Ry     beta= 0.70
     PPCG style diagonalization
     ethr =  2.79E-06,  avg # of iterations =  6.0

     total cpu time spent up to now is        0.1 secs

     total energy              =     -52.38172455 Ry
     estimated scf accuracy    <       0.00000897 Ry

     iteration #  7     ecut=    20.00 Ry     beta= 0.70
     PPCG style diagonalization
     ethr =  4.08E-08,  avg # of iterations =  5.0

     total cpu time spent up to now is        0.2 secs

     total energy              =     -52.38172577 Ry
     estimated scf accuracy    <       0.00000024 Ry

     iteration #  8     ecut=    20.00 Ry     beta= 0.70
     PPCG style diagonalization
     ethr =  1.07E-09,  avg # of iterations =  6.0

     total cpu time spent up to now is        0.2 secs

     total energy              =     -52.38172582 Ry
     estimated scf accuracy    <       0.00000003 Ry

     iteration #  9     ecut=    20.00 Ry     beta= 0.70
     PPCG style diagonalization
     ethr =  1.16E-10,  avg # of iterations =  5.0

     total cpu time spent up to now is        0.2 secs

     total energy              =     -52.38172583 Ry
     estimated scf accuracy    <          4.5E-09 Ry

     iteration # 10     ecut=    20.00 Ry     beta= 0.70
     PPCG style diagonalization
     ethr =  2.06E-11,  avg # of iterations =  5.0

     total cpu time spent up to now is        0.2 secs

     total energy              =     -52.38172583 Ry
     estimated scf accuracy    <          1.8E-10 Ry

     iteration # 11     ecut=    20.00 Ry     beta= 0.70
     PPCG style diagonalization
     ethr =  8.01E-13,  avg # of iterations =  5.0

     total cpu time spent up to now is        0.2 secs

     total energy              =     -52.38172583 Ry
     estimated scf accuracy    <          6.9E-12 Ry

     iteration # 12     ecut=    20.00 Ry     beta= 0.70
     PPCG style diagonalization
     ethr =  1.00E-13,  avg # of iterations =  5.0

     total cpu time spent up to now is        0.2 secs

     total energy              =     -52.38172583 Ry
     estimated scf accuracy    <          5.3E-13 Ry

     iteration # 13     ecut=    20.00 Ry     beta= 0.70
     PPCG style diagonalization
     ethr =  1.00E-13,  avg # of iterations =  3.3

     total cpu time spent up to now is        0.2 secs

     total energy              =     -52.38172583 Ry
     estimated scf accuracy    <          5.9E-14 Ry

     iteration # 14     ecut=    20.00 Ry     beta= 0.70
     PPCG style diagonalization
     ethr =  1.00E-13,  avg # of iterations =  2.0

     total cpu time spent up to now is        0.2 secs

     total energy              =     -52.38172583 Ry
     estimated scf accuracy    <          1.3E-14 Ry

     iteration # 15     ecut=    20.00 Ry     beta= 0.70
     PPCG style diagonalization
     ethr =  1.00E-13,  avg # of iterations =  2.1

     total cpu time spent up to now is        0.2 secs

     total energy              =     -52.38172583 Ry
     estimated scf accuracy    <          1.4E-15 Ry

     iteration # 16     ecut=    20.00 Ry     beta= 0.70
     PPCG style diagonalization
     ethr =  1.00E-13,  avg # of iterations =  2.0

     total cpu time spent up to now is        0.2 secs

     End of self-consistent calculation

          k = 0.0000 0.0000 0.0000 (   376 PWs)   bands (ev):

   -15.4526  -9.5251  -9.0699  -7.9078  -4.7145  -4.0583  -3.6288  -2.6583
    -1.5299  -1.2560   0.2955

     highest occupied level (ev):     0.2955

!    total energy              =     -52.38172583 Ry
     estimated scf accuracy    <          5.9E-16 Ry

     The total energy is the sum of the following terms:
     one-electron contribution =     -33.80764609 Ry
     hartree contribution      =      24.47628165 Ry
     xc contribution           =     -18.39563175 Ry
     ewald contribution        =     -24.65472964 Ry

     convergence has been achieved in  16 iterations

     Forces acting on atoms (cartesian axes, Ry/au):

     atom    1 type  1   force =     0.09743971    0.01287431   -0.03638230
     atom    2 type  1   force =     0.02396837   -0.01957457    0.00038468
     atom    3 type  1   force =    -0.02106323    0.02354104   -0.00297428
     atom    4 type  1   force =    -0.07458103    0.02397764   -0.00482523
     atom    5 type  1   force =    -0.01204819   -0.00435802   -0.00890921
     atom    6 type  1   force =    -0.00229308   -0.01546521   -0.00006132
     atom    7 type  2   force =    -0.03637547   -0.05886364    0.11130006
     atom    8 type  2   force =    -0.02247033    0.07642907    0.01759834
     atom    9 type  2   force =     0.02200547   -0.02055026   -0.06632893
     atom   10 type  2   force =     0.02541777   -0.01801036   -0.00980181

     Total force =     0.223162     Total SCF correction =     0.000000

     Writing output data file ./pwscf.save/
 
     init_run     :      0.03s CPU      0.03s WALL (       1 calls)
     electrons    :      0.15s CPU      0.16s WALL (       1 calls)
     forces       :      0.00s CPU      0.00s WALL (       1 calls)

     Called by init_run:
     wfcinit      :      0.00s CPU      0.00s WALL (       1 calls)
     potinit      :      0.00s CPU      0.00s WALL (       1 calls)
     hinit0       :      0.02s CPU      0.02s WALL (       1 calls)

     Called by electrons:
     c_bands      :      0.08s CPU      0.09s WALL (      16 calls)
     sum_band     :      0.02s CPU      0.02s WALL (      16 calls)
     v_of_rho     :      0.03s CPU      0.03s WALL (      17 calls)
     newd         :      0.01s CPU      0.01s WALL (      17 calls)
     mix_rho      :      0.00s CPU      0.01s WALL (      16 calls)

     Called by c_bands:
     init_us_2    :      0.00s CPU      0.00s WALL (      33 calls)
     ppcg_gamma   :      0.07s CPU      0.08s WALL (      16 calls)
     wfcrot       :      0.01s CPU      0.02s WALL (      16 calls)

     Called by ppcg_*:
     h_psi        :      0.05s CPU      0.06s WALL (      75 calls)
     s_psi        :      0.00s CPU      0.00s WALL (      75 calls)

     Called by h_psi:
     h_psi:calbec :      0.00s CPU      0.00s WALL (      75 calls)
     vloc_psi     :      0.05s CPU      0.06s WALL (      75 calls)
     add_vuspsi   :      0.00s CPU      0.00s WALL (      75 calls)

     General routines
     calbec       :      0.00s CPU      0.00s WALL (      95 calls)
     fft          :      0.01s CPU      0.02s WALL (     155 calls)
     ffts         :      0.00s CPU      0.00s WALL (      16 calls)
     fftw         :      0.05s CPU      0.06s WALL (     988 calls)
 
     Parallel routines
     fft_scatt_xy :      0.01s CPU      0.01s WALL (    1159 calls)
     fft_scatt_yz :      0.02s CPU      0.03s WALL (    1159 calls)
 
     PWSCF        :      0.22s CPU      0.25s WALL

 
   This run was terminated on:  14:45:44  10Dec2020            

=------------------------------------------------------------------------------=
   JOB DONE.
=------------------------------------------------------------------------------=
