
     Program PWSCF v.6.5 starts on 19Jun2020 at 14:28:22 

     This program is part of the open-source Quantum ESPRESSO suite
     for quantum simulation of materials; please cite
         "P. Giannozzi et al., J. Phys.:Condens. Matter 21 395502 (2009);
         "P. Giannozzi et al., J. Phys.:Condens. Matter 29 465901 (2017);
          URL http://www.quantum-espresso.org", 
     in publications or presentations arising from this work. More details at
     http://www.quantum-espresso.org/quote

     Parallel version (MPI), running on     1 processors

     MPI processes distributed on     1 nodes
     Fft bands division:     nmany     =       1
     Message from routine scan_end:
     No INFO block end statement, possibly corrupted file
 Cannot open trajectory file. I can calculate only a single step from input file

     Subspace diagonalization in iterative solution of the eigenvalue problem:
     a serial algorithm will be used


     G-vector sticks info
     --------------------
     sticks:   dense  smooth     PW     G-vecs:    dense   smooth      PW
     Sum        2561    2561    641                96969    96969   12053



     bravais-lattice index     =            1
     lattice parameter (alat)  =      10.0000  a.u.
     unit-cell volume          =    1000.0000 (a.u.)^3
     number of atoms/cell      =            3
     number of atomic types    =            2
     number of electrons       =         8.00
     number of Kohn-Sham states=            4
     kinetic-energy cutoff     =      80.0000  Ry
     charge density cutoff     =     320.0000  Ry
     convergence threshold     =      1.0E-11
     mixing beta               =       0.7000
     number of iterations used =            8  plain     mixing
     Exchange-correlation=  SLA  PW   PBX  PBC
                           (   1   4   3   4   0   0   0)
     nstep                     =           50


     celldm(1)=  10.000000  celldm(2)=   0.000000  celldm(3)=   0.000000
     celldm(4)=   0.000000  celldm(5)=   0.000000  celldm(6)=   0.000000

     crystal axes: (cart. coord. in units of alat)
               a(1) = (   1.000000   0.000000   0.000000 )  
               a(2) = (   0.000000   1.000000   0.000000 )  
               a(3) = (   0.000000   0.000000   1.000000 )  

     reciprocal axes: (cart. coord. in units 2 pi/alat)
               b(1) = (  1.000000  0.000000  0.000000 )  
               b(2) = (  0.000000  1.000000  0.000000 )  
               b(3) = (  0.000000  0.000000  1.000000 )  


     PseudoPot. # 1 for H  read from file:
     ../pseudo/H_HSCV_PBE-1.0.upf
     MD5 check sum: 9381039c3e76055a91507fe4cf572eb6
     Pseudo is Norm-conserving, Zval =  1.0
     Generated by new atomic code, or converted to UPF format
     Using radial grid of 2000 points,  0 beta functions with: 

     PseudoPot. # 2 for O  read from file:
     ../pseudo/O_HSCV_PBE-1.0.upf
     MD5 check sum: d1ac96ff7cc4673fd84f2420bd578511
     Pseudo is Norm-conserving, Zval =  6.0
     Generated by new atomic code, or converted to UPF format
     Using radial grid of 2000 points,  1 beta functions with: 
                l(1) =   0

     atomic species   valence    mass     pseudopotential
        H              1.00     1.00000     H ( 1.00)
        O              6.00    16.00000     O ( 1.00)

     No symmetry found



   Cartesian axes

     site n.     atom                  positions (alat units)
         1           H   tau(   1) = (   0.0995299   0.1037136   0.0407891  )
         2           H   tau(   2) = (  -0.0894502  -0.0615212  -0.1027043  )
         3           O   tau(   3) = (  -0.0100797  -0.0422112   0.0619152  )

     number of k points=     1
                       cart. coord. in units 2pi/alat
        k(    1) = (   0.0000000   0.0000000   0.0000000), wk =   2.0000000

     Dense  grid:    48485 G-vectors     FFT dimensions: (  60,  60,  60)

     Estimated max dynamical RAM per process >      39.92 MB

     Initial potential from superposition of free atoms

     starting charge    7.99998, renormalised to    8.00000
     Starting wfcs are    6 randomized atomic wfcs

     total cpu time spent up to now is        0.9 secs

     Self-consistent Calculation

     iteration #  1     ecut=    80.00 Ry     beta= 0.70
     Davidson diagonalization with overlap
     ethr =  1.00E-02,  avg # of iterations =  2.0

     total cpu time spent up to now is        1.1 secs

     total energy              =     -34.15962434 Ry
     estimated scf accuracy    <       0.46279009 Ry

     iteration #  2     ecut=    80.00 Ry     beta= 0.70
     Davidson diagonalization with overlap
     ethr =  5.78E-03,  avg # of iterations =  3.0

     total cpu time spent up to now is        1.2 secs

     total energy              =     -34.25893143 Ry
     estimated scf accuracy    <       0.46142532 Ry

     iteration #  3     ecut=    80.00 Ry     beta= 0.70
     Davidson diagonalization with overlap
     ethr =  5.77E-03,  avg # of iterations =  2.0

     negative rho (up, down):  5.554E-06 0.000E+00

     total cpu time spent up to now is        1.4 secs

     total energy              =     -34.35257259 Ry
     estimated scf accuracy    <       0.00468044 Ry

     iteration #  4     ecut=    80.00 Ry     beta= 0.70
     Davidson diagonalization with overlap
     ethr =  5.85E-05,  avg # of iterations =  2.0

     total cpu time spent up to now is        1.5 secs

     total energy              =     -34.35369502 Ry
     estimated scf accuracy    <       0.00041152 Ry

     iteration #  5     ecut=    80.00 Ry     beta= 0.70
     Davidson diagonalization with overlap
     ethr =  5.14E-06,  avg # of iterations =  1.0

     total cpu time spent up to now is        1.6 secs

     total energy              =     -34.35370080 Ry
     estimated scf accuracy    <       0.00004110 Ry

     iteration #  6     ecut=    80.00 Ry     beta= 0.70
     Davidson diagonalization with overlap
     ethr =  5.14E-07,  avg # of iterations =  1.0

     total cpu time spent up to now is        1.8 secs

     total energy              =     -34.35370170 Ry
     estimated scf accuracy    <       0.00000321 Ry

     iteration #  7     ecut=    80.00 Ry     beta= 0.70
     Davidson diagonalization with overlap
     ethr =  4.01E-08,  avg # of iterations =  2.0

     total cpu time spent up to now is        1.9 secs

     total energy              =     -34.35370213 Ry
     estimated scf accuracy    <       0.00000005 Ry

     iteration #  8     ecut=    80.00 Ry     beta= 0.70
     Davidson diagonalization with overlap
     ethr =  6.26E-10,  avg # of iterations =  3.0

     total cpu time spent up to now is        2.1 secs

     total energy              =     -34.35370214 Ry
     estimated scf accuracy    <          4.5E-09 Ry

     iteration #  9     ecut=    80.00 Ry     beta= 0.70
     Davidson diagonalization with overlap
     ethr =  5.67E-11,  avg # of iterations =  2.0

     total cpu time spent up to now is        2.2 secs

     total energy              =     -34.35370214 Ry
     estimated scf accuracy    <          1.5E-09 Ry

     iteration # 10     ecut=    80.00 Ry     beta= 0.70
     Davidson diagonalization with overlap
     ethr =  1.87E-11,  avg # of iterations =  2.0

     total cpu time spent up to now is        2.4 secs

     total energy              =     -34.35370214 Ry
     estimated scf accuracy    <          3.4E-11 Ry

     iteration # 11     ecut=    80.00 Ry     beta= 0.70
     Davidson diagonalization with overlap
     ethr =  4.22E-13,  avg # of iterations =  3.0

     total cpu time spent up to now is        2.5 secs

     total energy              =     -34.35370214 Ry
     estimated scf accuracy    <          3.7E-11 Ry

     iteration # 12     ecut=    80.00 Ry     beta= 0.70
     Davidson diagonalization with overlap
     ethr =  4.22E-13,  avg # of iterations =  1.0

     total cpu time spent up to now is        2.7 secs

     End of self-consistent calculation

          k = 0.0000 0.0000 0.0000 (  6027 PWs)   bands (ev):

   -24.2254 -12.0571  -8.3535  -6.2354

     highest occupied level (ev):    -6.2354

!    total energy              =     -34.35370214 Ry
     estimated scf accuracy    <          6.1E-12 Ry

     convergence has been achieved in  12 iterations
     charge density from previous step

     total cpu time spent up to now is        2.8 secs

     Self-consistent Calculation

     iteration #  1     ecut=    80.00 Ry     beta= 0.70
     Davidson diagonalization with overlap
     ethr =  1.00E-07,  avg # of iterations =  1.0

     Threshold (ethr) on eigenvalues was too large:
     Diagonalizing with lowered threshold

     Davidson diagonalization with overlap
     ethr =  7.59E-11,  avg # of iterations =  2.0

     total cpu time spent up to now is        3.0 secs

     total energy              =     -34.35370214 Ry
     estimated scf accuracy    <          9.2E-09 Ry

     iteration #  2     ecut=    80.00 Ry     beta= 0.70
     Davidson diagonalization with overlap
     ethr =  1.15E-10,  avg # of iterations =  2.0

     total cpu time spent up to now is        3.1 secs

     total energy              =     -34.35370214 Ry
     estimated scf accuracy    <          3.9E-10 Ry

     iteration #  3     ecut=    80.00 Ry     beta= 0.70
     Davidson diagonalization with overlap
     ethr =  4.84E-12,  avg # of iterations =  2.0

     total cpu time spent up to now is        3.3 secs

     total energy              =     -34.35370214 Ry
     estimated scf accuracy    <          2.2E-11 Ry

     iteration #  4     ecut=    80.00 Ry     beta= 0.70
     Davidson diagonalization with overlap
     ethr =  2.70E-13,  avg # of iterations =  2.0

     total cpu time spent up to now is        3.4 secs

     End of self-consistent calculation

          k = 0.0000 0.0000 0.0000 (  6027 PWs)   bands (ev):

   -24.2254 -12.0571  -8.3535  -6.2354

     highest occupied level (ev):    -6.2354

!    total energy              =     -34.35370214 Ry
     estimated scf accuracy    <          1.8E-12 Ry

     convergence has been achieved in   4 iterations
 INIZIO ROUTINE HARTREE & KOHN
 check_charge   3.9999999999999947     
 check_charge   3.9999999999999445     
     hartree_curr :      0.03s CPU      0.04s WALL (       1 calls)
 CORRENTE HARTREE CALCOLATA
     xc_current   :      0.04s CPU      0.04s WALL (       1 calls)
 CORRENTE X-C CALCOLATA
     project      :      0.22s CPU      0.23s WALL (       1 calls)
     kohn-first   :      0.00s CPU      0.00s WALL (       1 calls)
     kohn-second  :      0.00s CPU      0.00s WALL (       1 calls)
  KOHN POLARIZZAZIONE   1 COMPLETATA
     project      :      0.45s CPU      0.46s WALL (       2 calls)
     kohn-first   :      0.00s CPU      0.00s WALL (       2 calls)
     kohn-second  :      0.00s CPU      0.00s WALL (       2 calls)
  KOHN POLARIZZAZIONE   2 COMPLETATA
     project      :      0.68s CPU      0.69s WALL (       3 calls)
     kohn-first   :      0.00s CPU      0.00s WALL (       3 calls)
     kohn-second  :      0.00s CPU      0.00s WALL (       3 calls)
  KOHN POLARIZZAZIONE   3 COMPLETATA
     kohn_current :      0.72s CPU      0.73s WALL (       1 calls)
 CORRENTE KOHN CALCOLATA
     routine_hart :      0.79s CPU      0.81s WALL (       1 calls)
 INIZIO ROUTINE ZERO
 eta  0.10000000000000001     
     zero_current :      0.59s CPU      0.60s WALL (       1 calls)
 CORRENTE ZERO CALCOLATA
     calcolo_i    :      0.00s CPU      0.00s WALL (       1 calls)
 CORRENTE IONIC CALCOLATA
     routine_zero :      0.59s CPU      0.60s WALL (       1 calls)
total energy current:  -0.400744121023E-03 -0.399171845997E-03 -0.405838011293E-03
center of mass velocity of type   1:   0.200000000000E-04  0.200000000000E-04  0.200000000000E-04
center of mass velocity of type   2:   0.200000000000E-04  0.200000000000E-04  0.200000000000E-04
 Finished reading trajectory  at step            0

     init_run     :      0.27s CPU      0.29s WALL (       1 calls)
     electrons    :      2.29s CPU      2.38s WALL (       2 calls)
     update_pot   :      0.09s CPU      0.11s WALL (       1 calls)

     Called by init_run:
     wfcinit      :      0.02s CPU      0.02s WALL (       1 calls)
     potinit      :      0.13s CPU      0.14s WALL (       1 calls)
     hinit0       :      0.11s CPU      0.12s WALL (       1 calls)

     Called by electrons:
     c_bands      :      0.42s CPU      0.42s WALL (      17 calls)
     sum_band     :      0.20s CPU      0.20s WALL (      17 calls)
     v_of_rho     :      1.69s CPU      1.79s WALL (      18 calls)
     mix_rho      :      0.14s CPU      0.14s WALL (      17 calls)

     Called by c_bands:
     init_us_2    :      0.01s CPU      0.01s WALL (      37 calls)
     regterg      :      0.41s CPU      0.42s WALL (      17 calls)

     Called by *egterg:
     rdiaghg      :      0.00s CPU      0.00s WALL (      48 calls)
     h_psi        :      0.99s CPU      1.00s WALL (     136 calls)
     g_psi        :      0.00s CPU      0.00s WALL (      33 calls)

     Called by h_psi:
     h_psi:calbec :      0.01s CPU      0.01s WALL (     136 calls)
     vloc_psi     :      0.97s CPU      0.99s WALL (     136 calls)
     add_vuspsi   :      0.00s CPU      0.00s WALL (     136 calls)

     General routines
     calbec       :      0.01s CPU      0.01s WALL (     243 calls)
     fft          :      0.51s CPU      0.52s WALL (     143 calls)
     ffts         :      0.06s CPU      0.06s WALL (      23 calls)
     fftw         :      0.96s CPU      0.98s WALL (     568 calls)

     Parallel routines

     PWSCF        :      4.65s CPU      4.87s WALL


   This run was terminated on:  14:28:27  19Jun2020            

=------------------------------------------------------------------------------=
   JOB DONE.
=------------------------------------------------------------------------------=
