
     Program PWSCF v.6.7MaX starts on  7Jan2021 at 15:31:21 

     This program is part of the open-source Quantum ESPRESSO suite
     for quantum simulation of materials; please cite
         "P. Giannozzi et al., J. Phys.:Condens. Matter 21 395502 (2009);
         "P. Giannozzi et al., J. Phys.:Condens. Matter 29 465901 (2017);
          URL http://www.quantum-espresso.org", 
     in publications or presentations arising from this work. More details at
     http://www.quantum-espresso.org/quote

     Parallel version (MPI), running on     1 processors

     MPI processes distributed on     1 nodes
 Using CP units for velocities
     Message from routine read_pp_mesh:
     mesh size missing, using the one in header
 Cannot open trajectory file. I can calculate only a single step from input file

     Subspace diagonalization in iterative solution of the eigenvalue problem:
     a serial algorithm will be used

     Message from routine setup:
     Dynamics, you should have no symmetries

     G-vector sticks info
     --------------------
     sticks:   dense  smooth     PW     G-vecs:    dense   smooth      PW
     Sum        2561    2561    641                96969    96969   12053



     bravais-lattice index     =            1
     lattice parameter (alat)  =      10.0000  a.u.
     unit-cell volume          =    1000.0000 (a.u.)^3
     number of atoms/cell      =            1
     number of atomic types    =            1
     number of electrons       =         8.00
     number of Kohn-Sham states=            4
     kinetic-energy cutoff     =      80.0000  Ry
     charge density cutoff     =     320.0000  Ry
     scf convergence threshold =      1.0E-15
     mixing beta               =       0.7000
     number of iterations used =            8  plain     mixing
     energy convergence thresh.=      0.0E+00
     force convergence thresh. =      0.0E+00
     Exchange-correlation= PBE
                           (   1   4   3   4   0   0   0)
     nstep                     =           50


     celldm(1)=  10.000000  celldm(2)=   0.000000  celldm(3)=   0.000000
     celldm(4)=   0.000000  celldm(5)=   0.000000  celldm(6)=   0.000000

     crystal axes: (cart. coord. in units of alat)
               a(1) = (   1.000000   0.000000   0.000000 )  
               a(2) = (   0.000000   1.000000   0.000000 )  
               a(3) = (   0.000000   0.000000   1.000000 )  

     reciprocal axes: (cart. coord. in units 2 pi/alat)
               b(1) = (  1.000000  0.000000  0.000000 )  
               b(2) = (  0.000000  1.000000  0.000000 )  
               b(3) = (  0.000000  0.000000  1.000000 )  


     PseudoPot. # 1 for Ar read from file:
     ../pseudo/Ar_ONCV_PBE-1.0.upf
     MD5 check sum: 95f7c8d9b721380b17de83b628839d39
     Pseudo is Norm-conserving, Zval =  8.0
     Generated using ONCVPSP code by D. R. Hamann
     Using radial grid of  602 points,  4 beta functions with: 
                l(1) =   0
                l(2) =   0
                l(3) =   1
                l(4) =   1

     atomic species   valence    mass     pseudopotential
        Ar             8.00    39.94800     Ar( 1.00)

     48 Sym. Ops., with inversion, found



   Cartesian axes

     site n.     atom                  positions (alat units)
         1           Ar  tau(   1) = (   0.0000000   0.0000000   0.0000000  )

     number of k points=     1
                       cart. coord. in units 2pi/alat
        k(    1) = (   0.0000000   0.0000000   0.0000000), wk =   2.0000000

     Dense  grid:    48485 G-vectors     FFT dimensions: (  60,  60,  60)

     Estimated max dynamical RAM per process >      37.98 MB

     Initial potential from superposition of free atoms

     starting charge    7.99788, renormalised to    8.00000

     negative rho (up, down):  2.702E-05 0.000E+00
     Starting wfcs are random
     charge density from previous step

     negative rho (up, down):  2.702E-05 0.000E+00

     total cpu time spent up to now is        0.6 secs

     Self-consistent Calculation

     iteration #  1     ecut=    80.00 Ry     beta= 0.70
     Davidson diagonalization with overlap
     ethr =  1.00E-03,  avg # of iterations = 10.0

     Threshold (ethr) on eigenvalues was too large:
     Diagonalizing with lowered threshold

     Davidson diagonalization with overlap
     ethr =  6.93E-05,  avg # of iterations =  1.0

     total cpu time spent up to now is        0.9 secs

     total energy              =     -42.43921849 Ry
     estimated scf accuracy    <       0.00573631 Ry

     iteration #  2     ecut=    80.00 Ry     beta= 0.70
     Davidson diagonalization with overlap
     ethr =  7.17E-05,  avg # of iterations =  2.0

     total cpu time spent up to now is        1.1 secs

     total energy              =     -42.44086072 Ry
     estimated scf accuracy    <       0.00033375 Ry

     iteration #  3     ecut=    80.00 Ry     beta= 0.70
     Davidson diagonalization with overlap
     ethr =  4.17E-06,  avg # of iterations =  5.0

     total cpu time spent up to now is        1.3 secs

     total energy              =     -42.44100482 Ry
     estimated scf accuracy    <       0.00003645 Ry

     iteration #  4     ecut=    80.00 Ry     beta= 0.70
     Davidson diagonalization with overlap
     ethr =  4.56E-07,  avg # of iterations =  2.0

     total cpu time spent up to now is        1.5 secs

     total energy              =     -42.44100952 Ry
     estimated scf accuracy    <       0.00001549 Ry

     iteration #  5     ecut=    80.00 Ry     beta= 0.70
     Davidson diagonalization with overlap
     ethr =  1.94E-07,  avg # of iterations =  1.0

     total cpu time spent up to now is        1.6 secs

     total energy              =     -42.44100987 Ry
     estimated scf accuracy    <       0.00000169 Ry

     iteration #  6     ecut=    80.00 Ry     beta= 0.70
     Davidson diagonalization with overlap
     ethr =  2.11E-08,  avg # of iterations =  2.0

     total cpu time spent up to now is        1.8 secs

     total energy              =     -42.44101009 Ry
     estimated scf accuracy    <       0.00000008 Ry

     iteration #  7     ecut=    80.00 Ry     beta= 0.70
     Davidson diagonalization with overlap
     ethr =  9.99E-10,  avg # of iterations =  9.0

     total cpu time spent up to now is        2.1 secs

     total energy              =     -42.44101021 Ry
     estimated scf accuracy    <       0.00000006 Ry

     iteration #  8     ecut=    80.00 Ry     beta= 0.70
     Davidson diagonalization with overlap
     ethr =  7.59E-10,  avg # of iterations =  1.0

     total cpu time spent up to now is        2.2 secs

     total energy              =     -42.44101022 Ry
     estimated scf accuracy    <       0.00000001 Ry

     iteration #  9     ecut=    80.00 Ry     beta= 0.70
     Davidson diagonalization with overlap
     ethr =  1.56E-10,  avg # of iterations =  2.0

     total cpu time spent up to now is        2.4 secs

     total energy              =     -42.44101022 Ry
     estimated scf accuracy    <          4.0E-09 Ry

     iteration # 10     ecut=    80.00 Ry     beta= 0.70
     Davidson diagonalization with overlap
     ethr =  4.99E-11,  avg # of iterations =  2.0

     total cpu time spent up to now is        2.6 secs

     total energy              =     -42.44101022 Ry
     estimated scf accuracy    <          3.2E-11 Ry

     iteration # 11     ecut=    80.00 Ry     beta= 0.70
     Davidson diagonalization with overlap
     ethr =  3.97E-13,  avg # of iterations =  6.0

     total cpu time spent up to now is        2.8 secs

     total energy              =     -42.44101022 Ry
     estimated scf accuracy    <          2.4E-11 Ry

     iteration # 12     ecut=    80.00 Ry     beta= 0.70
     Davidson diagonalization with overlap
     ethr =  3.02E-13,  avg # of iterations =  1.0

     total cpu time spent up to now is        3.0 secs

     total energy              =     -42.44101022 Ry
     estimated scf accuracy    <          1.3E-11 Ry

     iteration # 13     ecut=    80.00 Ry     beta= 0.70
     Davidson diagonalization with overlap
     ethr =  1.58E-13,  avg # of iterations =  2.0

     total cpu time spent up to now is        3.1 secs

     total energy              =     -42.44101022 Ry
     estimated scf accuracy    <          8.1E-15 Ry

     iteration # 14     ecut=    80.00 Ry     beta= 0.70
     Davidson diagonalization with overlap
     ethr =  1.00E-13,  avg # of iterations =  1.0

     total cpu time spent up to now is        3.3 secs

     total energy              =     -42.44101022 Ry
     estimated scf accuracy    <          1.6E-14 Ry

     iteration # 15     ecut=    80.00 Ry     beta= 0.70
     Davidson diagonalization with overlap
     ethr =  1.00E-13,  avg # of iterations =  1.0

     total cpu time spent up to now is        3.5 secs

     total energy              =     -42.44101022 Ry
     estimated scf accuracy    <          1.5E-15 Ry

     iteration # 16     ecut=    80.00 Ry     beta= 0.70
     Davidson diagonalization with overlap
     ethr =  1.00E-13,  avg # of iterations =  1.0

     total cpu time spent up to now is        3.6 secs

     End of self-consistent calculation

          k = 0.0000 0.0000 0.0000 (  6027 PWs)   bands (ev):

   -22.7615  -8.7397  -8.7397  -8.7397

     highest occupied level (ev):    -8.7397

!    total energy              =     -42.44101022 Ry
     estimated scf accuracy    <          8.3E-16 Ry

     convergence has been achieved in  16 iterations
     charge density from previous step

     total cpu time spent up to now is        3.8 secs

     Self-consistent Calculation

     iteration #  1     ecut=    80.00 Ry     beta= 0.70
     Davidson diagonalization with overlap
     ethr =  1.00E-07,  avg # of iterations =  9.0

     total cpu time spent up to now is        4.0 secs

     total energy              =     -42.43913859 Ry
     estimated scf accuracy    <       0.00639912 Ry

     iteration #  2     ecut=    80.00 Ry     beta= 0.70
     Davidson diagonalization with overlap
     ethr =  8.00E-05,  avg # of iterations =  2.0

     total cpu time spent up to now is        4.2 secs

     total energy              =     -42.44088051 Ry
     estimated scf accuracy    <       0.00041936 Ry

     iteration #  3     ecut=    80.00 Ry     beta= 0.70
     Davidson diagonalization with overlap
     ethr =  5.24E-06,  avg # of iterations =  4.0

     total cpu time spent up to now is        4.4 secs

     total energy              =     -42.44100724 Ry
     estimated scf accuracy    <       0.00001580 Ry

     iteration #  4     ecut=    80.00 Ry     beta= 0.70
     Davidson diagonalization with overlap
     ethr =  1.97E-07,  avg # of iterations =  2.0

     total cpu time spent up to now is        4.6 secs

     total energy              =     -42.44100978 Ry
     estimated scf accuracy    <       0.00000174 Ry

     iteration #  5     ecut=    80.00 Ry     beta= 0.70
     Davidson diagonalization with overlap
     ethr =  2.17E-08,  avg # of iterations =  5.0

     total cpu time spent up to now is        4.7 secs

     total energy              =     -42.44101011 Ry
     estimated scf accuracy    <       0.00000020 Ry

     iteration #  6     ecut=    80.00 Ry     beta= 0.70
     Davidson diagonalization with overlap
     ethr =  2.53E-09,  avg # of iterations =  2.0

     total cpu time spent up to now is        4.9 secs

     total energy              =     -42.44101014 Ry
     estimated scf accuracy    <          3.0E-09 Ry

     iteration #  7     ecut=    80.00 Ry     beta= 0.70
     Davidson diagonalization with overlap
     ethr =  3.79E-11,  avg # of iterations =  4.0

     total cpu time spent up to now is        5.1 secs

     total energy              =     -42.44101014 Ry
     estimated scf accuracy    <          2.8E-10 Ry

     iteration #  8     ecut=    80.00 Ry     beta= 0.70
     Davidson diagonalization with overlap
     ethr =  3.54E-12,  avg # of iterations =  2.0

     total cpu time spent up to now is        5.4 secs

     total energy              =     -42.44101014 Ry
     estimated scf accuracy    <          1.3E-10 Ry

     iteration #  9     ecut=    80.00 Ry     beta= 0.70
     Davidson diagonalization with overlap
     ethr =  1.61E-12,  avg # of iterations =  2.0

     total cpu time spent up to now is        5.5 secs

     total energy              =     -42.44101014 Ry
     estimated scf accuracy    <          7.8E-12 Ry

     iteration # 10     ecut=    80.00 Ry     beta= 0.70
     Davidson diagonalization with overlap
     ethr =  1.00E-13,  avg # of iterations =  5.0

     total cpu time spent up to now is        5.7 secs

     total energy              =     -42.44101014 Ry
     estimated scf accuracy    <          6.0E-12 Ry

     iteration # 11     ecut=    80.00 Ry     beta= 0.70
     Davidson diagonalization with overlap
     ethr =  1.00E-13,  avg # of iterations =  2.0

     total cpu time spent up to now is        5.9 secs

     total energy              =     -42.44101014 Ry
     estimated scf accuracy    <          3.5E-14 Ry

     iteration # 12     ecut=    80.00 Ry     beta= 0.70
     Davidson diagonalization with overlap
     ethr =  1.00E-13,  avg # of iterations =  1.0

     total cpu time spent up to now is        6.1 secs

     total energy              =     -42.44101014 Ry
     estimated scf accuracy    <          3.1E-14 Ry

     iteration # 13     ecut=    80.00 Ry     beta= 0.70
     Davidson diagonalization with overlap
     ethr =  1.00E-13,  avg # of iterations =  1.0

     total cpu time spent up to now is        6.3 secs

     total energy              =     -42.44101014 Ry
     estimated scf accuracy    <          2.1E-15 Ry

     iteration # 14     ecut=    80.00 Ry     beta= 0.70
     Davidson diagonalization with overlap
     ethr =  1.00E-13,  avg # of iterations =  1.0

     total cpu time spent up to now is        6.4 secs

     total energy              =     -42.44101014 Ry
     estimated scf accuracy    <          1.4E-15 Ry

     iteration # 15     ecut=    80.00 Ry     beta= 0.70
     Davidson diagonalization with overlap
     ethr =  1.00E-13,  avg # of iterations =  1.0

     total cpu time spent up to now is        6.6 secs

     total energy              =     -42.44101014 Ry
     estimated scf accuracy    <          1.2E-15 Ry

     iteration # 16     ecut=    80.00 Ry     beta= 0.70
     Davidson diagonalization with overlap
     ethr =  1.00E-13,  avg # of iterations =  1.0

     total cpu time spent up to now is        6.7 secs

     End of self-consistent calculation

          k = 0.0000 0.0000 0.0000 (  6027 PWs)   bands (ev):

   -22.7615  -8.7397  -8.7397  -8.7397

     highest occupied level (ev):    -8.7397

!    total energy              =     -42.44101014 Ry
     estimated scf accuracy    <          6.6E-16 Ry

     convergence has been achieved in  16 iterations
 ROUTINE_ZERO BEGINNING
 check_charge   3.9999999999999791     
     zero_current :      0.04s CPU      0.04s WALL (       1 calls)
 ZERO CURRENT CALCULATED
     routine_zero :      0.04s CPU      0.04s WALL (       1 calls)
     calcolo_i    :      0.00s CPU      0.00s WALL (       1 calls)
 IONIC CURRENT CALCULATED
 BEGIN: HARTREE & KOHN
 check_charge   3.9999999999999791     
 check_charge   4.0000000000000497     
     hartree_curr :      0.03s CPU      0.05s WALL (       1 calls)
 HARTREE CURRENT CALCULATED
     xc_current   :      0.03s CPU      0.03s WALL (       1 calls)
 X-C CURRENT CALCULATED
     charge density from previous step
     project      :      0.22s CPU      0.26s WALL (       1 calls)
     kohn-first   :      0.00s CPU      0.00s WALL (       1 calls)
     kohn-second  :      0.00s CPU      0.00s WALL (       1 calls)
  KOHN POLARIZATION   1 COMPLETED
     project      :      0.45s CPU      0.52s WALL (       2 calls)
     kohn-first   :      0.00s CPU      0.00s WALL (       2 calls)
     kohn-second  :      0.00s CPU      0.00s WALL (       2 calls)
  KOHN POLARIZATION   2 COMPLETED
     project      :      0.67s CPU      0.76s WALL (       3 calls)
     kohn-first   :      0.00s CPU      0.00s WALL (       3 calls)
     kohn-second  :      0.00s CPU      0.00s WALL (       3 calls)
  KOHN POLARIZATION   3 COMPLETED
     kohn_current :      0.81s CPU      0.94s WALL (       1 calls)
 KOHN CURRENT CALCULATED
total energy current:  -0.413271439123E+00 -0.413271171891E+00 -0.413271166617E+00
center of mass velocity of type   1:   0.200000000000E-01  0.200000000000E-01  0.200000000000E-01
 Finished reading trajectory  at step            0

     init_run     :      0.17s CPU      0.23s WALL (       1 calls)
     electrons    :      5.03s CPU      6.03s WALL (       2 calls)
     update_pot   :      0.26s CPU      0.34s WALL (       3 calls)

     Called by init_run:
     wfcinit      :      0.02s CPU      0.02s WALL (       1 calls)
     potinit      :      0.10s CPU      0.15s WALL (       1 calls)
     hinit0       :      0.04s CPU      0.04s WALL (       1 calls)

     Called by electrons:
     c_bands      :      1.25s CPU      1.40s WALL (      33 calls)
     sum_band     :      0.58s CPU      0.62s WALL (      34 calls)
     v_of_rho     :      3.01s CPU      3.79s WALL (      36 calls)
     mix_rho      :      0.48s CPU      0.63s WALL (      33 calls)

     Called by c_bands:
     init_us_2    :      0.05s CPU      0.05s WALL (      70 calls)
     regterg      :      1.21s CPU      1.35s WALL (      33 calls)

     Called by *egterg:
     rdiaghg      :      0.00s CPU      0.00s WALL (     124 calls)
     h_psi        :      1.65s CPU      1.85s WALL (     188 calls)
     g_psi        :      0.00s CPU      0.01s WALL (      93 calls)

     Called by h_psi:
     h_psi:calbec :      0.07s CPU      0.07s WALL (     188 calls)
     vloc_psi     :      1.54s CPU      1.73s WALL (     188 calls)
     add_vuspsi   :      0.04s CPU      0.04s WALL (     188 calls)

     General routines
     calbec       :      0.10s CPU      0.11s WALL (     271 calls)
     fft          :      1.51s CPU      1.66s WALL (     288 calls)
     ffts         :      0.11s CPU      0.12s WALL (      40 calls)
     fftw         :      1.60s CPU      1.81s WALL (     762 calls)

     Parallel routines

     PWSCF        :      6.54s CPU      7.82s WALL


   This run was terminated on:  15:31:28   7Jan2021            

=------------------------------------------------------------------------------=
   JOB DONE.
=------------------------------------------------------------------------------=
