
     Program PWSCF v.6.5 starts on 18Aug2020 at 15: 6:23 

     This program is part of the open-source Quantum ESPRESSO suite
     for quantum simulation of materials; please cite
         "P. Giannozzi et al., J. Phys.:Condens. Matter 21 395502 (2009);
         "P. Giannozzi et al., J. Phys.:Condens. Matter 29 465901 (2017);
          URL http://www.quantum-espresso.org", 
     in publications or presentations arising from this work. More details at
     http://www.quantum-espresso.org/quote

     Parallel version (MPI), running on     1 processors

     MPI processes distributed on     1 nodes
     Fft bands division:     nmany     =       1
 Using CP units for velocities
 Cannot open trajectory file. I can calculate only a single step from input file

     Subspace diagonalization in iterative solution of the eigenvalue problem:
     a serial algorithm will be used

     Message from routine setup:
     Dynamics, you should have no symmetries
 
     G-vector sticks info
     --------------------
     sticks:   dense  smooth     PW     G-vecs:    dense   smooth      PW
     Sum        2561    2561    641                96969    96969   12053
 


     bravais-lattice index     =            1
     lattice parameter (alat)  =      10.0000  a.u.
     unit-cell volume          =    1000.0000 (a.u.)^3
     number of atoms/cell      =            1
     number of atomic types    =            1
     number of electrons       =         8.00
     number of Kohn-Sham states=            4
     kinetic-energy cutoff     =      80.0000  Ry
     charge density cutoff     =     320.0000  Ry
     convergence threshold     =      1.0E-15
     mixing beta               =       0.7000
     number of iterations used =            8  plain     mixing
     Exchange-correlation= PBE
                           (   1   4   3   4   0   0   0)
     nstep                     =           50


     celldm(1)=  10.000000  celldm(2)=   0.000000  celldm(3)=   0.000000
     celldm(4)=   0.000000  celldm(5)=   0.000000  celldm(6)=   0.000000

     crystal axes: (cart. coord. in units of alat)
               a(1) = (   1.000000   0.000000   0.000000 )  
               a(2) = (   0.000000   1.000000   0.000000 )  
               a(3) = (   0.000000   0.000000   1.000000 )  

     reciprocal axes: (cart. coord. in units 2 pi/alat)
               b(1) = (  1.000000  0.000000  0.000000 )  
               b(2) = (  0.000000  1.000000  0.000000 )  
               b(3) = (  0.000000  0.000000  1.000000 )  


     PseudoPot. # 1 for Ar read from file:
     ../pseudo/Ar_ONCV_PBE-1.0.upf
     MD5 check sum: 95f7c8d9b721380b17de83b628839d39
     Pseudo is Norm-conserving, Zval =  8.0
     Generated using ONCVPSP code by D. R. Hamann
     Using radial grid of  602 points,  4 beta functions with: 
                l(1) =   0
                l(2) =   0
                l(3) =   1
                l(4) =   1

     atomic species   valence    mass     pseudopotential
        Ar             8.00    39.94800     Ar( 1.00)

     48 Sym. Ops., with inversion, found



   Cartesian axes

     site n.     atom                  positions (alat units)
         1           Ar  tau(   1) = (   0.0000000   0.0000000   0.0000000  )

     number of k points=     1
                       cart. coord. in units 2pi/alat
        k(    1) = (   0.0000000   0.0000000   0.0000000), wk =   2.0000000

     Dense  grid:    48485 G-vectors     FFT dimensions: (  60,  60,  60)

     Estimated max dynamical RAM per process >      39.46 MB

     Initial potential from superposition of free atoms

     starting charge    7.99788, renormalised to    8.00000

     negative rho (up, down):  2.702E-05 0.000E+00
     Starting wfcs are random
     charge density from previous step

     negative rho (up, down):  2.702E-05 0.000E+00

     total cpu time spent up to now is        0.3 secs

     Self-consistent Calculation

     iteration #  1     ecut=    80.00 Ry     beta= 0.70
     Davidson diagonalization with overlap
     ethr =  1.00E-07,  avg # of iterations = 12.0

     total cpu time spent up to now is        0.4 secs

     total energy              =     -42.44096106 Ry
     estimated scf accuracy    <       0.00014916 Ry

     iteration #  2     ecut=    80.00 Ry     beta= 0.70
     Davidson diagonalization with overlap
     ethr =  1.86E-06,  avg # of iterations =  2.0

     total cpu time spent up to now is        0.5 secs

     total energy              =     -42.44100318 Ry
     estimated scf accuracy    <       0.00002513 Ry

     iteration #  3     ecut=    80.00 Ry     beta= 0.70
     Davidson diagonalization with overlap
     ethr =  3.14E-07,  avg # of iterations =  2.0

     total cpu time spent up to now is        0.6 secs

     total energy              =     -42.44100987 Ry
     estimated scf accuracy    <       0.00000069 Ry

     iteration #  4     ecut=    80.00 Ry     beta= 0.70
     Davidson diagonalization with overlap
     ethr =  8.58E-09,  avg # of iterations =  4.0

     total cpu time spent up to now is        0.7 secs

     total energy              =     -42.44101017 Ry
     estimated scf accuracy    <       0.00000006 Ry

     iteration #  5     ecut=    80.00 Ry     beta= 0.70
     Davidson diagonalization with overlap
     ethr =  6.88E-10,  avg # of iterations =  1.0

     total cpu time spent up to now is        0.8 secs

     total energy              =     -42.44101014 Ry
     estimated scf accuracy    <       0.00000004 Ry

     iteration #  6     ecut=    80.00 Ry     beta= 0.70
     Davidson diagonalization with overlap
     ethr =  4.87E-10,  avg # of iterations =  1.0

     total cpu time spent up to now is        0.9 secs

     total energy              =     -42.44101014 Ry
     estimated scf accuracy    <          2.5E-10 Ry

     iteration #  7     ecut=    80.00 Ry     beta= 0.70
     Davidson diagonalization with overlap
     ethr =  3.15E-12,  avg # of iterations =  3.0

     total cpu time spent up to now is        1.0 secs

     total energy              =     -42.44101014 Ry
     estimated scf accuracy    <          6.3E-11 Ry

     iteration #  8     ecut=    80.00 Ry     beta= 0.70
     Davidson diagonalization with overlap
     ethr =  7.92E-13,  avg # of iterations =  1.0

     total cpu time spent up to now is        1.1 secs

     total energy              =     -42.44101014 Ry
     estimated scf accuracy    <          1.4E-10 Ry

     iteration #  9     ecut=    80.00 Ry     beta= 0.70
     Davidson diagonalization with overlap
     ethr =  7.92E-13,  avg # of iterations =  2.0

     total cpu time spent up to now is        1.2 secs

     total energy              =     -42.44101014 Ry
     estimated scf accuracy    <          1.9E-12 Ry

     iteration # 10     ecut=    80.00 Ry     beta= 0.70
     Davidson diagonalization with overlap
     ethr =  1.00E-13,  avg # of iterations =  2.0

     total cpu time spent up to now is        1.3 secs

     total energy              =     -42.44101014 Ry
     estimated scf accuracy    <          2.9E-12 Ry

     iteration # 11     ecut=    80.00 Ry     beta= 0.70
     Davidson diagonalization with overlap
     ethr =  1.00E-13,  avg # of iterations =  1.0

     total cpu time spent up to now is        1.3 secs

     total energy              =     -42.44101014 Ry
     estimated scf accuracy    <          1.1E-12 Ry

     iteration # 12     ecut=    80.00 Ry     beta= 0.70
     Davidson diagonalization with overlap
     ethr =  1.00E-13,  avg # of iterations =  1.0

     total cpu time spent up to now is        1.4 secs

     total energy              =     -42.44101014 Ry
     estimated scf accuracy    <          3.0E-13 Ry

     iteration # 13     ecut=    80.00 Ry     beta= 0.70
     Davidson diagonalization with overlap
     ethr =  1.00E-13,  avg # of iterations =  1.0

     total cpu time spent up to now is        1.5 secs

     total energy              =     -42.44101014 Ry
     estimated scf accuracy    <          5.8E-15 Ry

     iteration # 14     ecut=    80.00 Ry     beta= 0.70
     Davidson diagonalization with overlap
     ethr =  1.00E-13,  avg # of iterations =  1.0

     total cpu time spent up to now is        1.6 secs

     total energy              =     -42.44101014 Ry
     estimated scf accuracy    <          6.8E-15 Ry

     iteration # 15     ecut=    80.00 Ry     beta= 0.70
     Davidson diagonalization with overlap
     ethr =  1.00E-13,  avg # of iterations =  1.0

     total cpu time spent up to now is        1.7 secs

     total energy              =     -42.44101014 Ry
     estimated scf accuracy    <          5.4E-15 Ry

     iteration # 16     ecut=    80.00 Ry     beta= 0.70
     Davidson diagonalization with overlap
     ethr =  1.00E-13,  avg # of iterations =  1.0

     total cpu time spent up to now is        1.8 secs

     total energy              =     -42.44101014 Ry
     estimated scf accuracy    <          2.3E-15 Ry

     iteration # 17     ecut=    80.00 Ry     beta= 0.70
     Davidson diagonalization with overlap
     ethr =  1.00E-13,  avg # of iterations =  1.0

     total cpu time spent up to now is        1.9 secs

     total energy              =     -42.44101014 Ry
     estimated scf accuracy    <          2.8E-15 Ry

     iteration # 18     ecut=    80.00 Ry     beta= 0.70
     Davidson diagonalization with overlap
     ethr =  1.00E-13,  avg # of iterations =  1.0

     total cpu time spent up to now is        2.0 secs

     total energy              =     -42.44101014 Ry
     estimated scf accuracy    <          1.3E-15 Ry

     iteration # 19     ecut=    80.00 Ry     beta= 0.70
     Davidson diagonalization with overlap
     ethr =  1.00E-13,  avg # of iterations =  1.0

     total cpu time spent up to now is        2.0 secs

     total energy              =     -42.44101014 Ry
     estimated scf accuracy    <          1.2E-15 Ry

     iteration # 20     ecut=    80.00 Ry     beta= 0.70
     Davidson diagonalization with overlap
     ethr =  1.00E-13,  avg # of iterations =  1.0

     total cpu time spent up to now is        2.1 secs

     total energy              =     -42.44101014 Ry
     estimated scf accuracy    <          1.7E-15 Ry

     iteration # 21     ecut=    80.00 Ry     beta= 0.70
     Davidson diagonalization with overlap
     ethr =  1.00E-13,  avg # of iterations =  1.0

     total cpu time spent up to now is        2.2 secs

     total energy              =     -42.44101014 Ry
     estimated scf accuracy    <          2.4E-15 Ry

     iteration # 22     ecut=    80.00 Ry     beta= 0.70
     Davidson diagonalization with overlap
     ethr =  1.00E-13,  avg # of iterations =  1.0

     total cpu time spent up to now is        2.3 secs

     End of self-consistent calculation

          k = 0.0000 0.0000 0.0000 (  6027 PWs)   bands (ev):

   -22.7615  -8.7397  -8.7397  -8.7397

     highest occupied level (ev):    -8.7397

!    total energy              =     -42.44101014 Ry
     estimated scf accuracy    <          4.5E-16 Ry

     convergence has been achieved in  22 iterations
     charge density from previous step

     total cpu time spent up to now is        2.4 secs

     Self-consistent Calculation

     iteration #  1     ecut=    80.00 Ry     beta= 0.70
     Davidson diagonalization with overlap
     ethr =  1.00E-07,  avg # of iterations =  1.0

     Threshold (ethr) on eigenvalues was too large:
     Diagonalizing with lowered threshold

     Davidson diagonalization with overlap
     ethr =  1.37E-11,  avg # of iterations =  2.0

     total cpu time spent up to now is        2.5 secs

     total energy              =     -42.44101014 Ry
     estimated scf accuracy    <          1.5E-09 Ry

     iteration #  2     ecut=    80.00 Ry     beta= 0.70
     Davidson diagonalization with overlap
     ethr =  1.82E-11,  avg # of iterations =  2.0

     total cpu time spent up to now is        2.6 secs

     total energy              =     -42.44101014 Ry
     estimated scf accuracy    <          1.1E-10 Ry

     iteration #  3     ecut=    80.00 Ry     beta= 0.70
     Davidson diagonalization with overlap
     ethr =  1.34E-12,  avg # of iterations =  2.0

     total cpu time spent up to now is        2.7 secs

     total energy              =     -42.44101014 Ry
     estimated scf accuracy    <          5.3E-13 Ry

     iteration #  4     ecut=    80.00 Ry     beta= 0.70
     Davidson diagonalization with overlap
     ethr =  1.00E-13,  avg # of iterations =  1.0

     total cpu time spent up to now is        2.7 secs

     total energy              =     -42.44101014 Ry
     estimated scf accuracy    <          2.1E-14 Ry

     iteration #  5     ecut=    80.00 Ry     beta= 0.70
     Davidson diagonalization with overlap
     ethr =  1.00E-13,  avg # of iterations =  1.0

     total cpu time spent up to now is        2.8 secs

     total energy              =     -42.44101014 Ry
     estimated scf accuracy    <          6.6E-15 Ry

     iteration #  6     ecut=    80.00 Ry     beta= 0.70
     Davidson diagonalization with overlap
     ethr =  1.00E-13,  avg # of iterations =  1.0

     total cpu time spent up to now is        2.9 secs

     End of self-consistent calculation

          k = 0.0000 0.0000 0.0000 (  6027 PWs)   bands (ev):

   -22.7615  -8.7397  -8.7397  -8.7397

     highest occupied level (ev):    -8.7397

!    total energy              =     -42.44101014 Ry
     estimated scf accuracy    <          6.8E-16 Ry

     convergence has been achieved in   6 iterations
 INIZIO ROUTINE ZERO
 eta  0.100000000000000     
 check_charge   4.00000000000001     
 Comincia il test per test           1
 Testiamo:            1
 CONTROLLO           8           8           4           8
 CONTROLLO_POS  0.000000000000000E+000  0.000000000000000E+000
  0.000000000000000E+000
 Comincia il test per test           1
 Testiamo:            2
 CONTROLLO           8           8           4           8
 CONTROLLO_POS  0.000000000000000E+000  0.000000000000000E+000
  0.000000000000000E+000
 Comincia il test per test           1
 Testiamo:            3
 CONTROLLO           8           8           4           8
 CONTROLLO_POS  0.000000000000000E+000  0.000000000000000E+000
  0.000000000000000E+000
 Comincia il test per test           1
 Testiamo:            4
 CONTROLLO           8           8           4           8
 CONTROLLO_POS  0.000000000000000E+000  0.000000000000000E+000
  0.000000000000000E+000
 Comincia il test per test           1
 Testiamo:            5
 CONTROLLO           8           8           4           8
 CONTROLLO_POS  0.000000000000000E+000  0.000000000000000E+000
  0.000000000000000E+000
 Comincia il test per test           1
 Testiamo:            6
 CONTROLLO           8           8           4           8
 CONTROLLO_POS  0.000000000000000E+000  0.000000000000000E+000
  0.000000000000000E+000
 Comincia il test per test           1
 Testiamo:            7
 CONTROLLO           8           8           4           8
 CONTROLLO_POS  0.000000000000000E+000  0.000000000000000E+000
  0.000000000000000E+000
 Comincia il test per test           1
 Testiamo:            8
 CONTROLLO           8           8           4           8
 CONTROLLO_POS  0.000000000000000E+000  0.000000000000000E+000
  0.000000000000000E+000
 Comincia il test per test           2
 Testiamo:            1
 CONTROLLO           8           8           4           8
 CONTROLLO_POS  0.000000000000000E+000  0.000000000000000E+000
  0.000000000000000E+000
 Comincia il test per test           2
 Testiamo:            2
 CONTROLLO           8           8           4           8
 CONTROLLO_POS  0.000000000000000E+000  0.000000000000000E+000
  0.000000000000000E+000
 Comincia il test per test           2
 Testiamo:            3
 CONTROLLO           8           8           4           8
 CONTROLLO_POS  0.000000000000000E+000  0.000000000000000E+000
  0.000000000000000E+000
 Comincia il test per test           2
 Testiamo:            4
 CONTROLLO           8           8           4           8
 CONTROLLO_POS  0.000000000000000E+000  0.000000000000000E+000
  0.000000000000000E+000
 Comincia il test per test           2
 Testiamo:            5
 CONTROLLO           8           8           4           8
 CONTROLLO_POS  0.000000000000000E+000  0.000000000000000E+000
  0.000000000000000E+000
 Comincia il test per test           2
 Testiamo:            6
 CONTROLLO           8           8           4           8
 CONTROLLO_POS  0.000000000000000E+000  0.000000000000000E+000
  0.000000000000000E+000
 Comincia il test per test           2
 Testiamo:            7
 CONTROLLO           8           8           4           8
 CONTROLLO_POS  0.000000000000000E+000  0.000000000000000E+000
  0.000000000000000E+000
 Comincia il test per test           2
 Testiamo:            8
 CONTROLLO           8           8           4           8
 CONTROLLO_POS  0.000000000000000E+000  0.000000000000000E+000
  0.000000000000000E+000
 Comincia il test per test           3
 Testiamo:            1
 CONTROLLO           8           8           4           8
 CONTROLLO_POS  0.000000000000000E+000  0.000000000000000E+000
  0.000000000000000E+000
 Comincia il test per test           3
 Testiamo:            2
 CONTROLLO           8           8           4           8
 CONTROLLO_POS  0.000000000000000E+000  0.000000000000000E+000
  0.000000000000000E+000
 Comincia il test per test           3
 Testiamo:            3
 CONTROLLO           8           8           4           8
 CONTROLLO_POS  0.000000000000000E+000  0.000000000000000E+000
  0.000000000000000E+000
 Comincia il test per test           3
 Testiamo:            4
 CONTROLLO           8           8           4           8
 CONTROLLO_POS  0.000000000000000E+000  0.000000000000000E+000
  0.000000000000000E+000
 Comincia il test per test           3
 Testiamo:            5
 CONTROLLO           8           8           4           8
 CONTROLLO_POS  0.000000000000000E+000  0.000000000000000E+000
  0.000000000000000E+000
 Comincia il test per test           3
 Testiamo:            6
 CONTROLLO           8           8           4           8
 CONTROLLO_POS  0.000000000000000E+000  0.000000000000000E+000
  0.000000000000000E+000
 Comincia il test per test           3
 Testiamo:            7
 CONTROLLO           8           8           4           8
 CONTROLLO_POS  0.000000000000000E+000  0.000000000000000E+000
  0.000000000000000E+000
 Comincia il test per test           3
 Testiamo:            8
 CONTROLLO           8           8           4           8
 CONTROLLO_POS  0.000000000000000E+000  0.000000000000000E+000
  0.000000000000000E+000
     zero_current :     13.40s CPU     29.81s WALL (       1 calls)
 CORRENTE ZERO CALCOLATA
     calcolo_i    :      0.00s CPU      0.00s WALL (       1 calls)
 CORRENTE IONIC CALCOLATA
     routine_zero :     13.40s CPU     29.81s WALL (       1 calls)
     charge density from previous step

     total cpu time spent up to now is       32.8 secs

     Self-consistent Calculation

     iteration #  1     ecut=    80.00 Ry     beta= 0.70
     Davidson diagonalization with overlap
     ethr =  1.00E-07,  avg # of iterations =  1.0

     Threshold (ethr) on eigenvalues was too large:
     Diagonalizing with lowered threshold

     Davidson diagonalization with overlap
     ethr =  1.37E-11,  avg # of iterations =  2.0

     total cpu time spent up to now is       32.9 secs

     total energy              =     -42.44101014 Ry
     estimated scf accuracy    <          1.5E-09 Ry

     iteration #  2     ecut=    80.00 Ry     beta= 0.70
     Davidson diagonalization with overlap
     ethr =  1.84E-11,  avg # of iterations =  2.0

     total cpu time spent up to now is       33.0 secs

     total energy              =     -42.44101014 Ry
     estimated scf accuracy    <          1.1E-10 Ry

     iteration #  3     ecut=    80.00 Ry     beta= 0.70
     Davidson diagonalization with overlap
     ethr =  1.36E-12,  avg # of iterations =  2.0

     total cpu time spent up to now is       33.1 secs

     total energy              =     -42.44101014 Ry
     estimated scf accuracy    <          5.9E-13 Ry

     iteration #  4     ecut=    80.00 Ry     beta= 0.70
     Davidson diagonalization with overlap
     ethr =  1.00E-13,  avg # of iterations =  1.0

     total cpu time spent up to now is       33.1 secs

     total energy              =     -42.44101014 Ry
     estimated scf accuracy    <          2.3E-14 Ry

     iteration #  5     ecut=    80.00 Ry     beta= 0.70
     Davidson diagonalization with overlap
     ethr =  1.00E-13,  avg # of iterations =  1.0

     total cpu time spent up to now is       33.2 secs

     total energy              =     -42.44101014 Ry
     estimated scf accuracy    <          9.2E-15 Ry

     iteration #  6     ecut=    80.00 Ry     beta= 0.70
     Davidson diagonalization with overlap
     ethr =  1.00E-13,  avg # of iterations =  1.0

     total cpu time spent up to now is       33.3 secs

     total energy              =     -42.44101014 Ry
     estimated scf accuracy    <          1.2E-15 Ry

     iteration #  7     ecut=    80.00 Ry     beta= 0.70
     Davidson diagonalization with overlap
     ethr =  1.00E-13,  avg # of iterations =  1.0

     total cpu time spent up to now is       33.4 secs

     End of self-consistent calculation

          k = 0.0000 0.0000 0.0000 (  6027 PWs)   bands (ev):

   -22.7615  -8.7397  -8.7397  -8.7397

     highest occupied level (ev):    -8.7397

!    total energy              =     -42.44101014 Ry
     estimated scf accuracy    <          3.4E-16 Ry

     convergence has been achieved in   7 iterations
 BEGIN: HARTREE & KOHN
 check_charge   4.00000000000001     
 check_charge   4.00000000000000     
 check_charge   4.00000000000001     
     hartree_curr :      0.03s CPU      0.03s WALL (       1 calls)
 HARTREE CURRENT CALCULATED
     xc_current   :      0.02s CPU      0.02s WALL (       1 calls)
 CORRENTE X-C CALCULATED
     project      :      0.13s CPU      0.14s WALL (       1 calls)
     kohn-first   :      0.00s CPU      0.00s WALL (       1 calls)
     kohn-second  :      0.00s CPU      0.00s WALL (       1 calls)
  KOHN POLARIZATION   1 COMPLETED
     project      :      0.26s CPU      0.27s WALL (       2 calls)
     kohn-first   :      0.00s CPU      0.00s WALL (       2 calls)
     kohn-second  :      0.00s CPU      0.00s WALL (       2 calls)
  KOHN POLARIZATION   2 COMPLETED
     project      :      0.39s CPU      0.40s WALL (       3 calls)
     kohn-first   :      0.00s CPU      0.00s WALL (       3 calls)
     kohn-second  :      0.00s CPU      0.00s WALL (       3 calls)
  KOHN POLARIZATION   3 COMPLETED
     kohn_current :      0.41s CPU      0.41s WALL (       1 calls)
 KOHN CURRENT CALCULATED
     routine_hart :      0.46s CPU      0.46s WALL (       1 calls)
total energy current:  -0.849502500245E-03 -0.849498963812E-03 -0.849453435270E-03
center of mass velocity of type   1:   0.200000000000E-04  0.200000000000E-04  0.200000000000E-04
 Finished reading trajectory  at step            0
 
     init_run     :      0.09s CPU      0.11s WALL (       1 calls)
     electrons    :      3.05s CPU      3.16s WALL (       3 calls)
     update_pot   :      0.16s CPU      0.19s WALL (       3 calls)

     Called by init_run:
     wfcinit      :      0.01s CPU      0.01s WALL (       1 calls)
     potinit      :      0.06s CPU      0.07s WALL (       1 calls)
     hinit0       :      0.01s CPU      0.01s WALL (       1 calls)

     Called by electrons:
     c_bands      :      0.68s CPU      0.69s WALL (      37 calls)
     sum_band     :      0.25s CPU      0.26s WALL (      37 calls)
     v_of_rho     :      1.96s CPU      2.07s WALL (      39 calls)
     mix_rho      :      0.29s CPU      0.29s WALL (      37 calls)

     Called by c_bands:
     init_us_2    :      0.04s CPU      0.04s WALL (      77 calls)
     regterg      :      0.63s CPU      0.63s WALL (      37 calls)

     Called by *egterg:
     rdiaghg      :      0.00s CPU      0.00s WALL (      96 calls)
     h_psi        :      0.95s CPU      0.96s WALL (     165 calls)
     g_psi        :      0.00s CPU      0.00s WALL (      63 calls)

     Called by h_psi:
     h_psi:calbec :      0.01s CPU      0.01s WALL (     165 calls)
     vloc_psi     :      0.92s CPU      0.93s WALL (     165 calls)
     add_vuspsi   :      0.01s CPU      0.01s WALL (     165 calls)

     General routines
     calbec       :      0.01s CPU      0.01s WALL (     251 calls)
     fft          :      0.41s CPU      0.42s WALL (     311 calls)
     ffts         :      0.06s CPU      0.06s WALL (      44 calls)
     fftw         :      1.07s CPU      1.08s WALL (     804 calls)
 
     Parallel routines
 
     PWSCF        :     17.24s CPU     33.86s WALL

 
   This run was terminated on:  15: 6:56  18Aug2020            

=------------------------------------------------------------------------------=
   JOB DONE.
=------------------------------------------------------------------------------=
