
     Program PWSCF v.6.3 starts on 29Aug2018 at 12:30:49 

     This program is part of the open-source Quantum ESPRESSO suite
     for quantum simulation of materials; please cite
         "P. Giannozzi et al., J. Phys.:Condens. Matter 21 395502 (2009);
         "P. Giannozzi et al., J. Phys.:Condens. Matter 29 465901 (2017);
          URL http://www.quantum-espresso.org", 
     in publications or presentations arising from this work. More details at
     http://www.quantum-espresso.org/quote

     Parallel version (MPI), running on     8 processors

     MPI processes distributed on     1 nodes
     R & G space division:  proc/nbgrp/npool/nimage =       8
     Waiting for input...
     Reading input from standard input
     Message from routine read_cards :
     DEPRECATED: no units specified in CELL_PARAMETERS card

     Current dimensions of program PWSCF are:
     Max number of different atomic species (ntypx) = 10
     Max number of k-points (npk) =  40000
     Max angular momentum in pseudopotentials (lmaxx) =  3
     Message from routine read_upf::
     Pseudo file /scratch/timrov/WORK_Hubbard/Z_git/work2_QE_fork/q-e/HP/examples/pseudo/O.pbesol-n-kjpaw_psl.0.1.UPF has been successfully fixed on the fly.
To avoid this message in the future you can permanently fix 
 your pseudo files following instructions given in: 
https://gitlab.com/QEF/q-e/blob/master/upftools/how_to_fix_upf.md
               file O.pbesol-n-kjpaw_psl.0.1.UPF: wavefunction(s)  2P renormalized

     Subspace diagonalization in iterative solution of the eigenvalue problem:
     a serial algorithm will be used

 
     Parallelization info
     --------------------
     sticks:   dense  smooth     PW     G-vecs:    dense   smooth      PW
     Min         204     101     30                 4135     1452     239
     Max         205     102     31                 4137     1455     241
     Sum        1635     813    241                33087    11627    1919
 


     bravais-lattice index     =            0
     lattice parameter (alat)  =       7.8800  a.u.
     unit-cell volume          =     244.6519 (a.u.)^3
     number of atoms/cell      =            4
     number of atomic types    =            3
     number of electrons       =        48.00
     number of Kohn-Sham states=           29
     kinetic-energy cutoff     =      50.0000  Ry
     charge density cutoff     =     400.0000  Ry
     convergence threshold     =      1.0E-10
     mixing beta               =       0.7000
     number of iterations used =            8  plain     mixing
     Exchange-correlation      = SLA PW PSX PSC ( 1  4 10  8 0 0)

     celldm(1)=   7.880000  celldm(2)=   0.000000  celldm(3)=   0.000000
     celldm(4)=   0.000000  celldm(5)=   0.000000  celldm(6)=   0.000000

     crystal axes: (cart. coord. in units of alat)
               a(1) = (   1.000000   0.500000   0.500000 )  
               a(2) = (   0.500000   1.000000   0.500000 )  
               a(3) = (   0.500000   0.500000   1.000000 )  

     reciprocal axes: (cart. coord. in units 2 pi/alat)
               b(1) = (  1.500000 -0.500000 -0.500000 )  
               b(2) = ( -0.500000  1.500000 -0.500000 )  
               b(3) = ( -0.500000 -0.500000  1.500000 )  


     PseudoPot. # 1 for Ni read from file:
     /scratch/timrov/WORK_Hubbard/Z_git/work2_QE_fork/q-e/HP/examples/pseudo/ni_pbesol_v1.4.uspp.F.UPF
     MD5 check sum: de937c0c8ae4b350e69c02b76d8a83cb
     Pseudo is Ultrasoft + core correction, Zval = 18.0
     Generated by new atomic code, or converted to UPF format
     Using radial grid of  865 points,  6 beta functions with: 
                l(1) =   0
                l(2) =   0
                l(3) =   1
                l(4) =   1
                l(5) =   2
                l(6) =   2
     Q(r) pseudized with 10 coefficients,  rinner =    0.980   0.980   0.980
                                                       0.980   0.980

     PseudoPot. # 2 for Ni read from file:
     /scratch/timrov/WORK_Hubbard/Z_git/work2_QE_fork/q-e/HP/examples/pseudo/ni_pbesol_v1.4.uspp.F.UPF
     MD5 check sum: de937c0c8ae4b350e69c02b76d8a83cb
     Pseudo is Ultrasoft + core correction, Zval = 18.0
     Generated by new atomic code, or converted to UPF format
     Using radial grid of  865 points,  6 beta functions with: 
                l(1) =   0
                l(2) =   0
                l(3) =   1
                l(4) =   1
                l(5) =   2
                l(6) =   2
     Q(r) pseudized with 10 coefficients,  rinner =    0.980   0.980   0.980
                                                       0.980   0.980

     PseudoPot. # 3 for O  read from file:
     /scratch/timrov/WORK_Hubbard/Z_git/work2_QE_fork/q-e/HP/examples/pseudo/O.pbesol-n-kjpaw_psl.0.1.UPF
     MD5 check sum: 433e5d6bca876f33b592d2bdaf67ea28
     Pseudo is Projector augmented-wave + core cor, Zval =  6.0
     Generated using "atomic" code by A. Dal Corso v.5.0.99 svn rev. 10869
     Shape of augmentation charge: BESSEL
     Using radial grid of 1095 points,  4 beta functions with: 
                l(1) =   0
                l(2) =   0
                l(3) =   1
                l(4) =   1
     Q(r) pseudized with 0 coefficients 


     atomic species   valence    mass     pseudopotential
        Ni1           18.00    58.69300     Ni( 1.00)
        Ni2           18.00    58.69300     Ni( 1.00)
        O              6.00    16.00000     O ( 1.00)

     Starting magnetic structure 
     atomic species   magnetization
        Ni1          0.500
        Ni2         -0.500
        O            0.000


     Simplified LDA+U calculation (l_max = 2) with parameters (eV):
     atomic species    L          U    alpha       J0     beta
        Ni1            2     0.0000   0.0000   0.0000   0.0000
        Ni2            2     0.0000   0.0000   0.0000   0.0000



     12 Sym. Ops., with inversion, found


                                    s                        frac. trans.

      isym =  1     identity                                     

 cryst.   s( 1) = (     1          0          0      )
                  (     0          1          0      )
                  (     0          0          1      )

 cart.    s( 1) = (  1.0000000  0.0000000  0.0000000 )
                  (  0.0000000  1.0000000  0.0000000 )
                  (  0.0000000  0.0000000  1.0000000 )


      isym =  2     180 deg rotation - cart. axis [1,-1,0]       

 cryst.   s( 2) = (     0         -1          0      )
                  (    -1          0          0      )
                  (     0          0         -1      )

 cart.    s( 2) = (  0.0000000 -1.0000000  0.0000000 )
                  ( -1.0000000  0.0000000  0.0000000 )
                  (  0.0000000  0.0000000 -1.0000000 )


      isym =  3     180 deg rotation - cart. axis [-1,0,1]       

 cryst.   s( 3) = (     0          0         -1      )
                  (     0         -1          0      )
                  (    -1          0          0      )

 cart.    s( 3) = (  0.0000000  0.0000000 -1.0000000 )
                  (  0.0000000 -1.0000000  0.0000000 )
                  ( -1.0000000  0.0000000  0.0000000 )


      isym =  4     180 deg rotation - cart. axis [0,1,-1]       

 cryst.   s( 4) = (    -1          0          0      )
                  (     0          0         -1      )
                  (     0         -1          0      )

 cart.    s( 4) = ( -1.0000000  0.0000000  0.0000000 )
                  (  0.0000000  0.0000000 -1.0000000 )
                  (  0.0000000 -1.0000000  0.0000000 )


      isym =  5     120 deg rotation - cart. axis [-1,-1,-1]     

 cryst.   s( 5) = (     0          0          1      )
                  (     1          0          0      )
                  (     0          1          0      )

 cart.    s( 5) = (  0.0000000  1.0000000  0.0000000 )
                  (  0.0000000  0.0000000  1.0000000 )
                  (  1.0000000  0.0000000  0.0000000 )


      isym =  6     120 deg rotation - cart. axis [1,1,1]        

 cryst.   s( 6) = (     0          1          0      )
                  (     0          0          1      )
                  (     1          0          0      )

 cart.    s( 6) = (  0.0000000  0.0000000  1.0000000 )
                  (  1.0000000  0.0000000  0.0000000 )
                  (  0.0000000  1.0000000  0.0000000 )


      isym =  7     inversion                                    

 cryst.   s( 7) = (    -1          0          0      )
                  (     0         -1          0      )
                  (     0          0         -1      )

 cart.    s( 7) = ( -1.0000000  0.0000000  0.0000000 )
                  (  0.0000000 -1.0000000  0.0000000 )
                  (  0.0000000  0.0000000 -1.0000000 )


      isym =  8     inv. 180 deg rotation - cart. axis [1,-1,0]  

 cryst.   s( 8) = (     0          1          0      )
                  (     1          0          0      )
                  (     0          0          1      )

 cart.    s( 8) = (  0.0000000  1.0000000  0.0000000 )
                  (  1.0000000  0.0000000  0.0000000 )
                  (  0.0000000  0.0000000  1.0000000 )


      isym =  9     inv. 180 deg rotation - cart. axis [-1,0,1]  

 cryst.   s( 9) = (     0          0          1      )
                  (     0          1          0      )
                  (     1          0          0      )

 cart.    s( 9) = (  0.0000000  0.0000000  1.0000000 )
                  (  0.0000000  1.0000000  0.0000000 )
                  (  1.0000000  0.0000000  0.0000000 )


      isym = 10     inv. 180 deg rotation - cart. axis [0,1,-1]  

 cryst.   s(10) = (     1          0          0      )
                  (     0          0          1      )
                  (     0          1          0      )

 cart.    s(10) = (  1.0000000  0.0000000  0.0000000 )
                  (  0.0000000  0.0000000  1.0000000 )
                  (  0.0000000  1.0000000  0.0000000 )


      isym = 11     inv. 120 deg rotation - cart. axis [-1,-1,-1]

 cryst.   s(11) = (     0          0         -1      )
                  (    -1          0          0      )
                  (     0         -1          0      )

 cart.    s(11) = (  0.0000000 -1.0000000  0.0000000 )
                  (  0.0000000  0.0000000 -1.0000000 )
                  ( -1.0000000  0.0000000  0.0000000 )


      isym = 12     inv. 120 deg rotation - cart. axis [1,1,1]   

 cryst.   s(12) = (     0         -1          0      )
                  (     0          0         -1      )
                  (    -1          0          0      )

 cart.    s(12) = (  0.0000000  0.0000000 -1.0000000 )
                  ( -1.0000000  0.0000000  0.0000000 )
                  (  0.0000000 -1.0000000  0.0000000 )


   Cartesian axes

     site n.     atom                  positions (alat units)
         1           Ni1 tau(   1) = (   0.0000000   0.0000000   0.0000000  )
         2           Ni2 tau(   2) = (   0.5000000   0.5000000   0.0000000  )
         3           O   tau(   3) = (   0.5000000   0.0000000   0.0000000  )
         4           O   tau(   4) = (   1.0000000   0.5000000   0.0000000  )

   Crystallographic axes

     site n.     atom                  positions (cryst. coord.)
         1           Ni1 tau(   1) = (  0.0000000  0.0000000  0.0000000  )
         2           Ni2 tau(   2) = (  0.5000000  0.5000000 -0.5000000  )
         3           O   tau(   3) = (  0.7500000 -0.2500000 -0.2500000  )
         4           O   tau(   4) = (  1.2500000  0.2500000 -0.7500000  )

     number of k points=     4  gaussian smearing, width (Ry)=  0.0010
                       cart. coord. in units 2pi/alat
        k(    1) = (   0.0000000   0.0000000   0.0000000), wk =   0.1250000
        k(    2) = (   0.2500000   0.2500000  -0.7500000), wk =   0.3750000
        k(    3) = (   0.5000000  -0.5000000  -0.5000000), wk =   0.3750000
        k(    4) = (  -0.2500000  -0.2500000  -0.2500000), wk =   0.1250000

                       cryst. coord.
        k(    1) = (   0.0000000   0.0000000   0.0000000), wk =   0.1250000
        k(    2) = (   0.0000000   0.0000000  -0.5000000), wk =   0.3750000
        k(    3) = (   0.0000000  -0.5000000  -0.5000000), wk =   0.3750000
        k(    4) = (  -0.5000000  -0.5000000  -0.5000000), wk =   0.1250000

     Dense  grid:    33087 G-vectors     FFT dimensions: (  64,  64,  64)

     Smooth grid:    11627 G-vectors     FFT dimensions: (  45,  45,  45)

     Dynamical RAM for                 wfc:       0.08 MB

     Dynamical RAM for     wfc (w. buffer):       0.72 MB

     Dynamical RAM for             U proj.:       0.03 MB

     Dynamical RAM for  U proj. (w. buff.):       0.25 MB

     Dynamical RAM for           str. fact:       0.19 MB

     Dynamical RAM for           local pot:       0.00 MB

     Dynamical RAM for          nlocal pot:       0.14 MB

     Dynamical RAM for                qrad:       6.04 MB

     Dynamical RAM for          rho,v,vnew:       1.88 MB

     Dynamical RAM for               rhoin:       0.63 MB

     Dynamical RAM for            rho*nmix:       2.02 MB

     Dynamical RAM for           G-vectors:       0.25 MB

     Dynamical RAM for          h,s,v(r/c):       0.62 MB

     Dynamical RAM for          <psi|beta>:       0.02 MB

     Dynamical RAM for                 psi:       0.32 MB

     Dynamical RAM for                hpsi:       0.32 MB

     Dynamical RAM for                spsi:       0.32 MB

     Dynamical RAM for      wfcinit/wfcrot:       0.22 MB

     Dynamical RAM for           addusdens:      11.93 MB

     Estimated static dynamical RAM per process >      13.87 MB

     Estimated max dynamical RAM per process >      25.80 MB

     Estimated total dynamical RAM >     206.38 MB
     Generating pointlists ...
     new r_m :   0.2063 (alat units)  1.6253 (a.u.) for type    1
     new r_m :   0.2063 (alat units)  1.6253 (a.u.) for type    2
     new r_m :   0.2063 (alat units)  1.6253 (a.u.) for type    3

     Check: negative/imaginary core charge=   -0.000010    0.000000

     Initial potential from superposition of free atoms

     starting charge   44.00000, renormalised to   48.00000
 --- in v_hubbard ---
Hubbard energy    0.0000
 -------
     Number of +U iterations with fixed ns =  0
     Starting occupations:
 --- enter write_ns ---
 LDA+U parameters:
U( 1)     =  0.00000001
alpha( 1) =  0.00000000
U( 2)     =  0.00000001
alpha( 2) =  0.00000000
atom    1   Tr[ns(na)] (up, down, total) =   5.00000  3.00000  8.00000
   spin  1
    eigenvalues: 
  1.000  1.000  1.000  1.000  1.000
    eigenvectors:
  1.000  0.000  0.000  0.000  0.000
  0.000  1.000  0.000  0.000  0.000
  0.000  0.000  1.000  0.000  0.000
  0.000  0.000  0.000  1.000  0.000
  0.000  0.000  0.000  0.000  1.000
    occupations:
  1.000  0.000  0.000  0.000  0.000
  0.000  1.000  0.000  0.000  0.000
  0.000  0.000  1.000  0.000  0.000
  0.000  0.000  0.000  1.000  0.000
  0.000  0.000  0.000  0.000  1.000
   spin  2
    eigenvalues: 
  0.600  0.600  0.600  0.600  0.600
    eigenvectors:
  1.000  0.000  0.000  0.000  0.000
  0.000  1.000  0.000  0.000  0.000
  0.000  0.000  1.000  0.000  0.000
  0.000  0.000  0.000  1.000  0.000
  0.000  0.000  0.000  0.000  1.000
    occupations:
  0.600  0.000  0.000  0.000  0.000
  0.000  0.600  0.000  0.000  0.000
  0.000  0.000  0.600  0.000  0.000
  0.000  0.000  0.000  0.600  0.000
  0.000  0.000  0.000  0.000  0.600
atomic mag. moment =     2.000000
atom    2   Tr[ns(na)] (up, down, total) =   3.00000  5.00000  8.00000
   spin  1
    eigenvalues: 
  0.600  0.600  0.600  0.600  0.600
    eigenvectors:
  1.000  0.000  0.000  0.000  0.000
  0.000  1.000  0.000  0.000  0.000
  0.000  0.000  1.000  0.000  0.000
  0.000  0.000  0.000  1.000  0.000
  0.000  0.000  0.000  0.000  1.000
    occupations:
  0.600  0.000  0.000  0.000  0.000
  0.000  0.600  0.000  0.000  0.000
  0.000  0.000  0.600  0.000  0.000
  0.000  0.000  0.000  0.600  0.000
  0.000  0.000  0.000  0.000  0.600
   spin  2
    eigenvalues: 
  1.000  1.000  1.000  1.000  1.000
    eigenvectors:
  1.000  0.000  0.000  0.000  0.000
  0.000  1.000  0.000  0.000  0.000
  0.000  0.000  1.000  0.000  0.000
  0.000  0.000  0.000  1.000  0.000
  0.000  0.000  0.000  0.000  1.000
    occupations:
  1.000  0.000  0.000  0.000  0.000
  0.000  1.000  0.000  0.000  0.000
  0.000  0.000  1.000  0.000  0.000
  0.000  0.000  0.000  1.000  0.000
  0.000  0.000  0.000  0.000  1.000
atomic mag. moment =    -2.000000
N of occupied +U levels =   16.000000
 --- exit write_ns ---
 Atomic wfc used for LDA+U Projector are orthogonalized
     Starting wfcs are   34 randomized atomic wfcs
     Checking if some PAW data can be deallocated... 
       PAW data deallocated on    4 nodes for type:  3

     total cpu time spent up to now is        0.8 secs

     Self-consistent Calculation

     iteration #  1     ecut=    50.00 Ry     beta= 0.70
     Davidson diagonalization with overlap
     ethr =  1.00E-02,  avg # of iterations =  4.5
 --- enter write_ns ---
 LDA+U parameters:
U( 1)     =  0.00000001
alpha( 1) =  0.00000000
U( 2)     =  0.00000001
alpha( 2) =  0.00000000
atom    1   Tr[ns(na)] (up, down, total) =   3.49363  0.40444  3.89807
   spin  1
    eigenvalues: 
  0.631  0.702  0.702  0.729  0.729
    eigenvectors:
  0.000  0.099  0.077  0.450  0.374
  0.333  0.022  0.527  0.107  0.011
  0.333  0.494  0.055  0.005  0.112
  0.000  0.077  0.099  0.374  0.450
  0.333  0.308  0.241  0.064  0.053
    occupations:
  0.724  0.004  0.004  0.000  0.008
  0.004  0.682 -0.025  0.007  0.025
  0.004 -0.025  0.682 -0.007  0.025
  0.000  0.007 -0.007  0.724 -0.000
  0.008  0.025  0.025 -0.000  0.682
   spin  2
    eigenvalues: 
  0.035  0.035  0.102  0.102  0.130
    eigenvectors:
  0.138  0.861  0.001  0.000  0.000
  0.000  0.000  0.202  0.464  0.333
  0.001  0.000  0.133  0.533  0.333
  0.861  0.138  0.000  0.001  0.000
  0.000  0.000  0.664  0.002  0.333
    occupations:
  0.035  0.001  0.001  0.000  0.002
  0.001  0.112  0.009  0.001 -0.009
  0.001  0.009  0.112 -0.001 -0.009
  0.000  0.001 -0.001  0.035 -0.000
  0.002 -0.009 -0.009 -0.000  0.112
atomic mag. moment =     3.089185
atom    2   Tr[ns(na)] (up, down, total) =   0.40079  3.49327  3.89406
   spin  1
    eigenvalues: 
  0.035  0.035  0.102  0.102  0.128
    eigenvectors:
  0.085  0.914  0.001  0.000  0.000
  0.000  0.000  0.222  0.444  0.333
  0.001  0.000  0.117  0.549  0.333
  0.914  0.085  0.000  0.001  0.000
  0.000  0.001  0.661  0.006  0.333
    occupations:
  0.035  0.001  0.001  0.000  0.002
  0.001  0.110  0.009  0.001 -0.009
  0.001  0.009  0.110 -0.001 -0.009
  0.000  0.001 -0.001  0.035 -0.000
  0.002 -0.009 -0.009 -0.000  0.110
   spin  2
    eigenvalues: 
  0.631  0.702  0.702  0.729  0.729
    eigenvectors:
  0.000  0.106  0.069  0.217  0.608
  0.333  0.013  0.537  0.116  0.000
  0.333  0.479  0.071  0.028  0.089
  0.000  0.069  0.106  0.608  0.217
  0.333  0.333  0.218  0.031  0.086
    occupations:
  0.724  0.004  0.004  0.000  0.008
  0.004  0.682 -0.025  0.007  0.025
  0.004 -0.025  0.682 -0.007  0.025
  0.000  0.007 -0.007  0.724 -0.000
  0.008  0.025  0.025 -0.000  0.682
atomic mag. moment =    -3.092479
N of occupied +U levels =    7.792131
 --- exit write_ns ---
 --- in v_hubbard ---
Hubbard energy    0.0000
 -------

     total cpu time spent up to now is        1.4 secs

     total energy              =    -732.06639176 Ry
     Harris-Foulkes estimate   =    -777.89572294 Ry
     estimated scf accuracy    <      60.11133564 Ry

     total magnetization       =    -0.00 Bohr mag/cell
     absolute magnetization    =     7.18 Bohr mag/cell

     iteration #  2     ecut=    50.00 Ry     beta= 0.70
     Davidson diagonalization with overlap
     ethr =  1.00E-02,  avg # of iterations =  3.8
 --- enter write_ns ---
 LDA+U parameters:
U( 1)     =  0.00000001
alpha( 1) =  0.00000000
U( 2)     =  0.00000001
alpha( 2) =  0.00000000
atom    1   Tr[ns(na)] (up, down, total) =   4.59714  4.62850  9.22564
   spin  1
    eigenvalues: 
  0.916  0.916  0.916  0.925  0.925
    eigenvectors:
  0.008  0.000  0.000  0.308  0.684
  0.256  0.405  0.333  0.001  0.004
  0.089  0.572  0.333  0.006  0.000
  0.000  0.008  0.000  0.684  0.308
  0.647  0.014  0.333  0.002  0.004
    occupations:
  0.925 -0.000 -0.000  0.000 -0.001
 -0.000  0.916  0.000 -0.001 -0.000
 -0.000  0.000  0.916  0.001 -0.000
  0.000 -0.001  0.001  0.925 -0.000
 -0.001 -0.000 -0.000 -0.000  0.916
   spin  2
    eigenvalues: 
  0.922  0.922  0.922  0.931  0.931
    eigenvectors:
  0.000  0.009  0.000  0.148  0.842
  0.333  0.303  0.357  0.002  0.004
  0.333  0.059  0.602  0.006  0.000
  0.000  0.000  0.009  0.842  0.148
  0.333  0.629  0.032  0.001  0.005
    occupations:
  0.931 -0.000 -0.000  0.000 -0.001
 -0.000  0.922 -0.000 -0.001  0.000
 -0.000 -0.000  0.922  0.001  0.000
  0.000 -0.001  0.001  0.931 -0.000
 -0.001  0.000  0.000 -0.000  0.922
atomic mag. moment =    -0.031353
atom    2   Tr[ns(na)] (up, down, total) =   4.62805  4.59699  9.22504
   spin  1
    eigenvalues: 
  0.922  0.922  0.922  0.931  0.931
    eigenvectors:
  0.000  0.007  0.000  0.119  0.873
  0.333  0.295  0.367  0.002  0.003
  0.333  0.064  0.598  0.005  0.000
  0.000  0.000  0.007  0.873  0.119
  0.333  0.633  0.028  0.001  0.005
    occupations:
  0.931 -0.000 -0.000  0.000 -0.001
 -0.000  0.922 -0.000 -0.001  0.000
 -0.000 -0.000  0.922  0.001  0.000
  0.000 -0.001  0.001  0.931 -0.000
 -0.001  0.000  0.000 -0.000  0.922
   spin  2
    eigenvalues: 
  0.915  0.915  0.916  0.925  0.925
    eigenvectors:
  0.008  0.000  0.000  0.145  0.847
  0.239  0.422  0.333  0.002  0.003
  0.101  0.560  0.333  0.005  0.000
  0.000  0.008  0.000  0.847  0.145
  0.651  0.010  0.333  0.001  0.005
    occupations:
  0.925 -0.000 -0.000  0.000 -0.001
 -0.000  0.916  0.000 -0.001 -0.000
 -0.000  0.000  0.916  0.001 -0.000
  0.000 -0.001  0.001  0.925 -0.000
 -0.001 -0.000 -0.000 -0.000  0.916
atomic mag. moment =     0.031061
N of occupied +U levels =   18.450674
 --- exit write_ns ---
 --- in v_hubbard ---
Hubbard energy    0.0000
 -------

     total cpu time spent up to now is        1.9 secs

     total energy              =    -759.28639804 Ry
     Harris-Foulkes estimate   =    -814.07951399 Ry
     estimated scf accuracy    <     121.73913544 Ry

     total magnetization       =    -0.20 Bohr mag/cell
     absolute magnetization    =     1.14 Bohr mag/cell

     iteration #  3     ecut=    50.00 Ry     beta= 0.70
     Davidson diagonalization with overlap
     ethr =  1.00E-02,  avg # of iterations =  3.5
 --- enter write_ns ---
 LDA+U parameters:
U( 1)     =  0.00000001
alpha( 1) =  0.00000000
U( 2)     =  0.00000001
alpha( 2) =  0.00000000
atom    1   Tr[ns(na)] (up, down, total) =   4.94692  4.89923  9.84615
   spin  1
    eigenvalues: 
  0.983  0.983  0.994  0.994  0.994
    eigenvectors:
  0.084  0.910  0.006  0.000  0.000
  0.002  0.002  0.075  0.587  0.333
  0.004  0.000  0.277  0.386  0.333
  0.910  0.084  0.000  0.006  0.000
  0.000  0.004  0.642  0.021  0.333
    occupations:
  0.983 -0.000 -0.000  0.000 -0.001
 -0.000  0.994  0.000 -0.001 -0.000
 -0.000  0.000  0.994  0.001 -0.000
  0.000 -0.001  0.001  0.983 -0.000
 -0.001 -0.000 -0.000 -0.000  0.994
   spin  2
    eigenvalues: 
  0.957  0.957  0.995  0.995  0.995
    eigenvectors:
  0.110  0.886  0.004  0.000  0.000
  0.001  0.002  0.064  0.600  0.333
  0.003  0.000  0.297  0.367  0.333
  0.886  0.110  0.000  0.004  0.000
  0.000  0.002  0.636  0.028  0.333
    occupations:
  0.957 -0.001 -0.001  0.000 -0.002
 -0.001  0.995  0.000 -0.002 -0.000
 -0.001  0.000  0.995  0.002 -0.000
  0.000 -0.002  0.002  0.957 -0.000
 -0.002 -0.000 -0.000 -0.000  0.995
atomic mag. moment =     0.047693
atom    2   Tr[ns(na)] (up, down, total) =   4.86235  4.94492  9.80727
   spin  1
    eigenvalues: 
  0.940  0.940  0.993  0.993  0.995
    eigenvectors:
  0.030  0.970  0.000  0.000  0.000
  0.000  0.000  0.179  0.488  0.333
  0.000  0.000  0.155  0.512  0.333
  0.970  0.030  0.000  0.000  0.000
  0.000  0.000  0.666  0.000  0.333
    occupations:
  0.940  0.000  0.000  0.000  0.001
  0.000  0.994  0.001  0.001 -0.001
  0.000  0.001  0.994 -0.001 -0.001
  0.000  0.001 -0.001  0.940 -0.000
  0.001 -0.001 -0.001 -0.000  0.994
   spin  2
    eigenvalues: 
  0.982  0.982  0.994  0.994  0.994
    eigenvectors:
  0.129  0.865  0.006  0.000  0.000
  0.002  0.002  0.068  0.595  0.333
  0.004  0.000  0.289  0.374  0.333
  0.865  0.129  0.000  0.006  0.000
  0.000  0.003  0.637  0.025  0.333
    occupations:
  0.982 -0.000 -0.000  0.000 -0.001
 -0.000  0.994  0.000 -0.001 -0.000
 -0.000  0.000  0.994  0.001 -0.000
  0.000 -0.001  0.001  0.982 -0.000
 -0.001 -0.000 -0.000 -0.000  0.994
atomic mag. moment =    -0.082573
N of occupied +U levels =   19.653422
 --- exit write_ns ---
 --- in v_hubbard ---
Hubbard energy    0.0000
 -------

     total cpu time spent up to now is        2.4 secs

     total energy              =    -765.52429476 Ry
     Harris-Foulkes estimate   =    -770.58771345 Ry
     estimated scf accuracy    <      13.79299838 Ry

     total magnetization       =    -0.25 Bohr mag/cell
     absolute magnetization    =     0.56 Bohr mag/cell

     iteration #  4     ecut=    50.00 Ry     beta= 0.70
     Davidson diagonalization with overlap
     ethr =  1.00E-02,  avg # of iterations =  2.6
 --- enter write_ns ---
 LDA+U parameters:
U( 1)     =  0.00000001
alpha( 1) =  0.00000000
U( 2)     =  0.00000001
alpha( 2) =  0.00000000
atom    1   Tr[ns(na)] (up, down, total) =   4.72725  1.93632  6.66357
   spin  1
    eigenvalues: 
  0.905  0.905  0.970  0.974  0.974
    eigenvectors:
  0.104  0.896  0.000  0.000  0.000
  0.000  0.000  0.333  0.176  0.490
  0.000  0.000  0.333  0.157  0.509
  0.896  0.104  0.000  0.000  0.000
  0.000  0.000  0.333  0.666  0.000
    occupations:
  0.905  0.000  0.000  0.000  0.001
  0.000  0.973 -0.001  0.001  0.001
  0.000 -0.001  0.973 -0.001  0.001
  0.000  0.001 -0.001  0.905 -0.000
  0.001  0.001  0.001 -0.000  0.973
   spin  2
    eigenvalues: 
  0.141  0.141  0.515  0.515  0.623
    eigenvectors:
  0.010  0.972  0.015  0.003  0.000
  0.008  0.004  0.004  0.651  0.333
  0.010  0.002  0.447  0.208  0.333
  0.972  0.010  0.003  0.015  0.000
  0.000  0.012  0.531  0.123  0.333
    occupations:
  0.148 -0.020 -0.020  0.000 -0.041
 -0.020  0.547  0.038 -0.035 -0.038
 -0.020  0.038  0.547  0.035 -0.038
  0.000 -0.035  0.035  0.148 -0.000
 -0.041 -0.038 -0.038 -0.000  0.547
atomic mag. moment =     2.790926
atom    2   Tr[ns(na)] (up, down, total) =   4.23136  4.86175  9.09312
   spin  1
    eigenvalues: 
  0.672  0.672  0.960  0.964  0.964
    eigenvectors:
  0.073  0.927  0.000  0.000  0.000
  0.000  0.000  0.333  0.168  0.499
  0.000  0.000  0.333  0.166  0.501
  0.927  0.073  0.000  0.000  0.000
  0.000  0.000  0.333  0.667  0.000
    occupations:
  0.672  0.001  0.001  0.000  0.003
  0.001  0.963 -0.001  0.003  0.001
  0.001 -0.001  0.963 -0.003  0.001
  0.000  0.003 -0.003  0.672 -0.000
  0.003  0.001  0.001 -0.000  0.963
   spin  2
    eigenvalues: 
  0.964  0.964  0.976  0.978  0.978
    eigenvectors:
  0.161  0.832  0.000  0.007  0.000
  0.002  0.003  0.333  0.268  0.394
  0.004  0.000  0.333  0.081  0.581
  0.832  0.161  0.000  0.000  0.007
  0.001  0.004  0.333  0.644  0.018
    occupations:
  0.965  0.000  0.000  0.000  0.001
  0.000  0.978 -0.001  0.001  0.001
  0.000 -0.001  0.978 -0.001  0.001
  0.000  0.001 -0.001  0.965 -0.000
  0.001  0.001  0.001 -0.000  0.978
atomic mag. moment =    -0.630388
N of occupied +U levels =   15.756682
 --- exit write_ns ---
 --- in v_hubbard ---
Hubbard energy    0.0000
 -------

     total cpu time spent up to now is        2.9 secs

     total energy              =    -767.24019207 Ry
     Harris-Foulkes estimate   =    -768.62591511 Ry
     estimated scf accuracy    <       4.09360690 Ry

     total magnetization       =     2.25 Bohr mag/cell
     absolute magnetization    =     3.59 Bohr mag/cell

     iteration #  5     ecut=    50.00 Ry     beta= 0.70
     Davidson diagonalization with overlap
     ethr =  8.53E-03,  avg # of iterations =  2.2
 --- enter write_ns ---
 LDA+U parameters:
U( 1)     =  0.00000001
alpha( 1) =  0.00000000
U( 2)     =  0.00000001
alpha( 2) =  0.00000000
atom    1   Tr[ns(na)] (up, down, total) =   4.99074  4.98469  9.97543
   spin  1
    eigenvalues: 
  0.998  0.998  0.998  0.999  0.999
    eigenvectors:
  0.204  0.274  0.000  0.313  0.210
  0.038  0.311  0.333  0.278  0.040
  0.336  0.012  0.333  0.008  0.310
  0.274  0.204  0.000  0.210  0.313
  0.149  0.200  0.333  0.191  0.128
    occupations:
  0.998  0.000  0.000  0.000  0.000
  0.000  0.998  0.000  0.000 -0.000
  0.000  0.000  0.998 -0.000 -0.000
  0.000  0.000 -0.000  0.998 -0.000
  0.000 -0.000 -0.000 -0.000  0.998
   spin  2
    eigenvalues: 
  0.996  0.996  0.997  0.998  0.998
    eigenvectors:
  0.128  0.062  0.000  0.323  0.488
  0.004  0.537  0.333  0.123  0.003
  0.443  0.098  0.333  0.016  0.110
  0.062  0.128  0.000  0.488  0.323
  0.364  0.176  0.333  0.050  0.076
    occupations:
  0.998  0.000  0.000  0.000  0.001
  0.000  0.997  0.000  0.001 -0.000
  0.000  0.000  0.997 -0.001 -0.000
  0.000  0.001 -0.001  0.998 -0.000
  0.001 -0.000 -0.000 -0.000  0.997
atomic mag. moment =     0.006051
atom    2   Tr[ns(na)] (up, down, total) =   0.88950  3.91326  4.80276
   spin  1
    eigenvalues: 
  0.063  0.063  0.189  0.189  0.385
    eigenvectors:
  0.013  0.950  0.022  0.015  0.000
  0.021  0.004  0.019  0.623  0.333
  0.016  0.009  0.566  0.076  0.333
  0.950  0.013  0.015  0.022  0.000
  0.000  0.024  0.378  0.264  0.333
    occupations:
  0.068 -0.010 -0.010  0.000 -0.019
 -0.010  0.251  0.067 -0.017 -0.067
 -0.010  0.067  0.251  0.017 -0.067
  0.000 -0.017  0.017  0.068 -0.000
 -0.019 -0.067 -0.067 -0.000  0.251
   spin  2
    eigenvalues: 
  0.566  0.566  0.894  0.943  0.943
    eigenvectors:
  0.098  0.900  0.000  0.003  0.000
  0.001  0.001  0.333  0.039  0.626
  0.002  0.000  0.333  0.344  0.320
  0.900  0.098  0.000  0.000  0.003
  0.000  0.002  0.333  0.614  0.051
    occupations:
  0.567 -0.008 -0.008  0.000 -0.016
 -0.008  0.926 -0.016 -0.014  0.016
 -0.008 -0.016  0.926  0.014  0.016
  0.000 -0.014  0.014  0.567 -0.000
 -0.016  0.016  0.016 -0.000  0.926
atomic mag. moment =    -3.023755
N of occupied +U levels =   14.778192
 --- exit write_ns ---
 --- in v_hubbard ---
Hubbard energy    0.0000
 -------

     total cpu time spent up to now is        3.3 secs

     total energy              =    -767.33231942 Ry
     Harris-Foulkes estimate   =    -770.38035244 Ry
     estimated scf accuracy    <      19.60879707 Ry

     total magnetization       =    -2.75 Bohr mag/cell
     absolute magnetization    =     3.32 Bohr mag/cell

     iteration #  6     ecut=    50.00 Ry     beta= 0.70
     Davidson diagonalization with overlap
     ethr =  8.53E-03,  avg # of iterations =  2.4
 --- enter write_ns ---
 LDA+U parameters:
U( 1)     =  0.00000001
alpha( 1) =  0.00000000
U( 2)     =  0.00000001
alpha( 2) =  0.00000000
atom    1   Tr[ns(na)] (up, down, total) =   4.92461  4.80830  9.73291
   spin  1
    eigenvalues: 
  0.967  0.967  0.996  0.996  0.997
    eigenvectors:
  0.001  0.989  0.010  0.000  0.000
  0.005  0.002  0.087  0.574  0.333
  0.005  0.001  0.259  0.401  0.333
  0.989  0.001  0.000  0.010  0.000
  0.000  0.007  0.645  0.015  0.333
    occupations:
  0.968 -0.001 -0.001  0.000 -0.002
 -0.001  0.996  0.000 -0.002 -0.000
 -0.001  0.000  0.996  0.002 -0.000
  0.000 -0.002  0.002  0.968 -0.000
 -0.002 -0.000 -0.000 -0.000  0.996
   spin  2
    eigenvalues: 
  0.915  0.915  0.992  0.992  0.994
    eigenvectors:
  0.045  0.950  0.005  0.000  0.000
  0.002  0.002  0.048  0.615  0.333
  0.003  0.000  0.324  0.339  0.333
  0.950  0.045  0.000  0.005  0.000
  0.000  0.003  0.622  0.041  0.333
    occupations:
  0.915 -0.002 -0.002  0.000 -0.005
 -0.002  0.993  0.001 -0.004 -0.001
 -0.002  0.001  0.993  0.004 -0.001
  0.000 -0.004  0.004  0.915 -0.000
 -0.005 -0.001 -0.001 -0.000  0.993
atomic mag. moment =     0.116313
atom    2   Tr[ns(na)] (up, down, total) =   4.14330  4.69351  8.83682
   spin  1
    eigenvalues: 
  0.611  0.611  0.973  0.973  0.974
    eigenvectors:
  0.082  0.918  0.000  0.000  0.000
  0.000  0.000  0.138  0.529  0.333
  0.000  0.000  0.198  0.469  0.333
  0.918  0.082  0.000  0.000  0.000
  0.000  0.000  0.665  0.002  0.333
    occupations:
  0.611  0.002  0.002  0.000  0.003
  0.002  0.974  0.000  0.003 -0.000
  0.002  0.000  0.974 -0.003 -0.000
  0.000  0.003 -0.003  0.611 -0.000
  0.003 -0.000 -0.000 -0.000  0.974
   spin  2
    eigenvalues: 
  0.865  0.865  0.986  0.986  0.992
    eigenvectors:
  0.181  0.817  0.002  0.000  0.000
  0.000  0.001  0.237  0.428  0.333
  0.001  0.000  0.104  0.561  0.333
  0.817  0.181  0.000  0.002  0.000
  0.000  0.001  0.656  0.009  0.333
    occupations:
  0.865  0.002  0.002  0.000  0.004
  0.002  0.988  0.002  0.004 -0.002
  0.002  0.002  0.988 -0.004 -0.002
  0.000  0.004 -0.004  0.865 -0.000
  0.004 -0.002 -0.002 -0.000  0.988
atomic mag. moment =    -0.550213
N of occupied +U levels =   18.569721
 --- exit write_ns ---
 --- in v_hubbard ---
Hubbard energy    0.0000
 -------

     total cpu time spent up to now is        3.7 secs

     total energy              =    -768.34407459 Ry
     Harris-Foulkes estimate   =    -768.86480246 Ry
     estimated scf accuracy    <       4.02226784 Ry

     total magnetization       =    -0.50 Bohr mag/cell
     absolute magnetization    =     0.92 Bohr mag/cell

     iteration #  7     ecut=    50.00 Ry     beta= 0.70
     Davidson diagonalization with overlap
     ethr =  8.38E-03,  avg # of iterations =  1.0
 --- enter write_ns ---
 LDA+U parameters:
U( 1)     =  0.00000001
alpha( 1) =  0.00000000
U( 2)     =  0.00000001
alpha( 2) =  0.00000000
atom    1   Tr[ns(na)] (up, down, total) =   4.93058  4.64448  9.57506
   spin  1
    eigenvalues: 
  0.973  0.973  0.995  0.995  0.995
    eigenvectors:
  0.159  0.840  0.000  0.001  0.000
  0.000  0.000  0.333  0.166  0.500
  0.001  0.000  0.333  0.167  0.499
  0.840  0.159  0.000  0.000  0.001
  0.000  0.001  0.333  0.666  0.000
    occupations:
  0.973  0.000  0.000  0.000  0.001
  0.000  0.995 -0.000  0.000  0.000
  0.000 -0.000  0.995 -0.000  0.000
  0.000  0.000 -0.000  0.973 -0.000
  0.001  0.000  0.000 -0.000  0.995
   spin  2
    eigenvalues: 
  0.841  0.841  0.987  0.987  0.989
    eigenvectors:
  0.072  0.922  0.005  0.001  0.000
  0.002  0.002  0.025  0.638  0.333
  0.004  0.000  0.375  0.287  0.333
  0.922  0.072  0.001  0.005  0.000
  0.000  0.004  0.594  0.069  0.333
    occupations:
  0.841 -0.005 -0.005  0.000 -0.009
 -0.005  0.987  0.001 -0.008 -0.001
 -0.005  0.001  0.987  0.008 -0.001
  0.000 -0.008  0.008  0.841 -0.000
 -0.009 -0.001 -0.001 -0.000  0.987
atomic mag. moment =     0.286096
atom    2   Tr[ns(na)] (up, down, total) =   3.58815  4.35419  7.94234
   spin  1
    eigenvalues: 
  0.398  0.398  0.911  0.941  0.941
    eigenvectors:
  0.201  0.799  0.000  0.000  0.000
  0.000  0.000  0.333  0.123  0.543
  0.000  0.000  0.333  0.214  0.453
  0.799  0.201  0.000  0.000  0.000
  0.000  0.000  0.333  0.662  0.004
    occupations:
  0.398  0.004  0.004  0.000  0.007
  0.004  0.930 -0.010  0.006  0.010
  0.004 -0.010  0.930 -0.006  0.010
  0.000  0.006 -0.006  0.398 -0.000
  0.007  0.010  0.010 -0.000  0.930
   spin  2
    eigenvalues: 
  0.711  0.711  0.973  0.973  0.987
    eigenvectors:
  0.102  0.893  0.005  0.000  0.000
  0.002  0.002  0.263  0.400  0.333
  0.003  0.000  0.085  0.578  0.333
  0.893  0.102  0.000  0.005  0.000
  0.000  0.003  0.647  0.016  0.333
    occupations:
  0.712  0.008  0.008  0.000  0.016
  0.008  0.977  0.005  0.014 -0.005
  0.008  0.005  0.977 -0.014 -0.005
  0.000  0.014 -0.014  0.712 -0.000
  0.016 -0.005 -0.005 -0.000  0.977
atomic mag. moment =    -0.766038
N of occupied +U levels =   17.517397
 --- exit write_ns ---
 --- in v_hubbard ---
Hubbard energy    0.0000
 -------

     total cpu time spent up to now is        4.0 secs

     total energy              =    -768.35208541 Ry
     Harris-Foulkes estimate   =    -768.48307248 Ry
     estimated scf accuracy    <       2.04251013 Ry

     total magnetization       =    -0.25 Bohr mag/cell
     absolute magnetization    =     1.38 Bohr mag/cell

     iteration #  8     ecut=    50.00 Ry     beta= 0.70
     Davidson diagonalization with overlap
     ethr =  4.26E-03,  avg # of iterations =  1.0
 --- enter write_ns ---
 LDA+U parameters:
U( 1)     =  0.00000001
alpha( 1) =  0.00000000
U( 2)     =  0.00000001
alpha( 2) =  0.00000000
atom    1   Tr[ns(na)] (up, down, total) =   4.86386  3.94090  8.80477
   spin  1
    eigenvalues: 
  0.945  0.945  0.991  0.992  0.992
    eigenvectors:
  0.067  0.932  0.000  0.001  0.000
  0.000  0.000  0.333  0.167  0.499
  0.001  0.000  0.333  0.166  0.500
  0.932  0.067  0.000  0.000  0.001
  0.000  0.001  0.333  0.666  0.000
    occupations:
  0.945  0.001  0.001  0.000  0.001
  0.001  0.991 -0.000  0.001  0.000
  0.001 -0.000  0.991 -0.001  0.000
  0.000  0.001 -0.001  0.945 -0.000
  0.001  0.000  0.000 -0.000  0.991
   spin  2
    eigenvalues: 
  0.513  0.513  0.971  0.972  0.972
    eigenvectors:
  0.302  0.697  0.000  0.001  0.000
  0.000  0.000  0.333  0.189  0.477
  0.001  0.000  0.333  0.145  0.522
  0.697  0.302  0.000  0.000  0.001
  0.000  0.000  0.333  0.665  0.001
    occupations:
  0.513  0.005  0.005  0.000  0.011
  0.005  0.972 -0.000  0.009  0.000
  0.005 -0.000  0.972 -0.009  0.000
  0.000  0.009 -0.009  0.513 -0.000
  0.011  0.000  0.000 -0.000  0.972
atomic mag. moment =     0.922956
atom    2   Tr[ns(na)] (up, down, total) =   3.83220  4.79946  8.63166
   spin  1
    eigenvalues: 
  0.459  0.459  0.970  0.970  0.974
    eigenvectors:
  0.160  0.840  0.000  0.000  0.000
  0.000  0.000  0.152  0.515  0.333
  0.000  0.000  0.182  0.484  0.333
  0.840  0.160  0.000  0.000  0.000
  0.000  0.000  0.666  0.000  0.333
    occupations:
  0.459 -0.001 -0.001  0.000 -0.002
 -0.001  0.971  0.001 -0.002 -0.001
 -0.001  0.001  0.971  0.002 -0.001
  0.000 -0.002  0.002  0.459 -0.000
 -0.002 -0.001 -0.001 -0.000  0.971
   spin  2
    eigenvalues: 
  0.916  0.916  0.989  0.989  0.989
    eigenvectors:
  0.055  0.945  0.000  0.000  0.000
  0.000  0.000  0.333  0.174  0.493
  0.000  0.000  0.333  0.160  0.507
  0.945  0.055  0.000  0.000  0.000
  0.000  0.000  0.333  0.667  0.000
    occupations:
  0.916  0.000  0.000  0.000  0.000
  0.000  0.989 -0.000  0.000  0.000
  0.000 -0.000  0.989 -0.000  0.000
  0.000  0.000 -0.000  0.916 -0.000
  0.000  0.000  0.000 -0.000  0.989
atomic mag. moment =    -0.967256
N of occupied +U levels =   17.436424
 --- exit write_ns ---
 --- in v_hubbard ---
Hubbard energy    0.0000
 -------

     total cpu time spent up to now is        4.4 secs

     total energy              =    -768.36169578 Ry
     Harris-Foulkes estimate   =    -768.40708264 Ry
     estimated scf accuracy    <       0.35079569 Ry

     total magnetization       =    -0.00 Bohr mag/cell
     absolute magnetization    =     2.16 Bohr mag/cell

     iteration #  9     ecut=    50.00 Ry     beta= 0.70
     Davidson diagonalization with overlap
     ethr =  7.31E-04,  avg # of iterations =  1.0
 --- enter write_ns ---
 LDA+U parameters:
U( 1)     =  0.00000001
alpha( 1) =  0.00000000
U( 2)     =  0.00000001
alpha( 2) =  0.00000000
atom    1   Tr[ns(na)] (up, down, total) =   4.86466  3.80925  8.67391
   spin  1
    eigenvalues: 
  0.947  0.947  0.990  0.991  0.991
    eigenvectors:
  0.128  0.872  0.000  0.000  0.000
  0.000  0.000  0.333  0.174  0.493
  0.000  0.000  0.333  0.160  0.507
  0.872  0.128  0.000  0.000  0.000
  0.000  0.000  0.333  0.666  0.000
    occupations:
  0.947  0.000  0.000  0.000  0.001
  0.000  0.990 -0.000  0.001  0.000
  0.000 -0.000  0.990 -0.001  0.000
  0.000  0.001 -0.001  0.947 -0.000
  0.001  0.000  0.000 -0.000  0.990
   spin  2
    eigenvalues: 
  0.447  0.447  0.972  0.972  0.972
    eigenvectors:
  0.293  0.707  0.000  0.000  0.000
  0.000  0.000  0.333  0.166  0.500
  0.000  0.000  0.333  0.167  0.500
  0.707  0.293  0.000  0.000  0.000
  0.000  0.000  0.333  0.666  0.000
    occupations:
  0.447  0.004  0.004  0.000  0.007
  0.004  0.972  0.000  0.006 -0.000
  0.004  0.000  0.972 -0.006 -0.000
  0.000  0.006 -0.006  0.447 -0.000
  0.007 -0.000 -0.000 -0.000  0.972
atomic mag. moment =     1.055419
atom    2   Tr[ns(na)] (up, down, total) =   3.69293  4.79533  8.48825
   spin  1
    eigenvalues: 
  0.390  0.390  0.970  0.970  0.972
    eigenvectors:
  0.190  0.810  0.000  0.000  0.000
  0.000  0.000  0.214  0.452  0.333
  0.000  0.000  0.123  0.544  0.333
  0.810  0.190  0.000  0.000  0.000
  0.000  0.000  0.662  0.004  0.333
    occupations:
  0.390  0.002  0.002  0.000  0.004
  0.002  0.971  0.000  0.003 -0.000
  0.002  0.000  0.971 -0.003 -0.000
  0.000  0.003 -0.003  0.390 -0.000
  0.004 -0.000 -0.000 -0.000  0.971
   spin  2
    eigenvalues: 
  0.916  0.916  0.987  0.988  0.988
    eigenvectors:
  0.220  0.780  0.000  0.000  0.000
  0.000  0.000  0.333  0.148  0.519
  0.000  0.000  0.333  0.186  0.480
  0.780  0.220  0.000  0.000  0.000
  0.000  0.000  0.333  0.666  0.001
    occupations:
  0.916  0.000  0.000  0.000  0.000
  0.000  0.988 -0.000  0.000  0.000
  0.000 -0.000  0.988 -0.000  0.000
  0.000  0.000 -0.000  0.916 -0.000
  0.000  0.000  0.000 -0.000  0.988
atomic mag. moment =    -1.102399
N of occupied +U levels =   17.162164
 --- exit write_ns ---
 --- in v_hubbard ---
Hubbard energy    0.0000
 -------

     total cpu time spent up to now is        4.8 secs

     total energy              =    -768.37105005 Ry
     Harris-Foulkes estimate   =    -768.37522196 Ry
     estimated scf accuracy    <       0.10133784 Ry

     total magnetization       =    -0.00 Bohr mag/cell
     absolute magnetization    =     2.40 Bohr mag/cell

     iteration # 10     ecut=    50.00 Ry     beta= 0.70
     Davidson diagonalization with overlap
     ethr =  2.11E-04,  avg # of iterations =  1.0
 --- enter write_ns ---
 LDA+U parameters:
U( 1)     =  0.00000001
alpha( 1) =  0.00000000
U( 2)     =  0.00000001
alpha( 2) =  0.00000000
atom    1   Tr[ns(na)] (up, down, total) =   4.86724  3.73693  8.60418
   spin  1
    eigenvalues: 
  0.949  0.949  0.989  0.990  0.990
    eigenvectors:
  0.072  0.928  0.000  0.000  0.000
  0.000  0.000  0.333  0.148  0.518
  0.000  0.000  0.333  0.186  0.481
  0.928  0.072  0.000  0.000  0.000
  0.000  0.000  0.333  0.666  0.001
    occupations:
  0.949  0.000  0.000  0.000  0.000
  0.000  0.990 -0.000  0.000  0.000
  0.000 -0.000  0.990 -0.000  0.000
  0.000  0.000 -0.000  0.949 -0.000
  0.000  0.000  0.000 -0.000  0.990
   spin  2
    eigenvalues: 
  0.410  0.410  0.972  0.972  0.972
    eigenvectors:
  0.172  0.828  0.000  0.000  0.000
  0.000  0.000  0.143  0.523  0.333
  0.000  0.000  0.191  0.475  0.333
  0.828  0.172  0.000  0.000  0.000
  0.000  0.000  0.665  0.001  0.333
    occupations:
  0.410  0.003  0.003  0.000  0.005
  0.003  0.972  0.000  0.004 -0.000
  0.003  0.000  0.972 -0.004 -0.000
  0.000  0.004 -0.004  0.410 -0.000
  0.005 -0.000 -0.000 -0.000  0.972
atomic mag. moment =     1.130310
atom    2   Tr[ns(na)] (up, down, total) =   3.64448  4.81919  8.46367
   spin  1
    eigenvalues: 
  0.365  0.365  0.971  0.971  0.972
    eigenvectors:
  0.169  0.831  0.000  0.000  0.000
  0.000  0.000  0.167  0.500  0.333
  0.000  0.000  0.166  0.500  0.333
  0.831  0.169  0.000  0.000  0.000
  0.000  0.000  0.667  0.000  0.333
    occupations:
  0.365  0.002  0.002  0.000  0.004
  0.002  0.972  0.000  0.003 -0.000
  0.002  0.000  0.972 -0.003 -0.000
  0.000  0.003 -0.003  0.365 -0.000
  0.004 -0.000 -0.000 -0.000  0.972
   spin  2
    eigenvalues: 
  0.928  0.928  0.987  0.988  0.988
    eigenvectors:
  0.113  0.887  0.000  0.000  0.000
  0.000  0.000  0.333  0.177  0.490
  0.000  0.000  0.333  0.157  0.510
  0.887  0.113  0.000  0.000  0.000
  0.000  0.000  0.333  0.666  0.000
    occupations:
  0.928  0.000  0.000  0.000  0.000
  0.000  0.988 -0.000  0.000  0.000
  0.000 -0.000  0.988 -0.000  0.000
  0.000  0.000 -0.000  0.928 -0.000
  0.000  0.000  0.000 -0.000  0.988
atomic mag. moment =    -1.174705
N of occupied +U levels =   17.067843
 --- exit write_ns ---
 --- in v_hubbard ---
Hubbard energy    0.0000
 -------

     total cpu time spent up to now is        5.2 secs

     total energy              =    -768.36599019 Ry
     Harris-Foulkes estimate   =    -768.37339169 Ry
     estimated scf accuracy    <       0.04433727 Ry

     total magnetization       =     0.00 Bohr mag/cell
     absolute magnetization    =     2.56 Bohr mag/cell

     iteration # 11     ecut=    50.00 Ry     beta= 0.70
     Davidson diagonalization with overlap
     ethr =  9.24E-05,  avg # of iterations =  1.4
 --- enter write_ns ---
 LDA+U parameters:
U( 1)     =  0.00000001
alpha( 1) =  0.00000000
U( 2)     =  0.00000001
alpha( 2) =  0.00000000
atom    1   Tr[ns(na)] (up, down, total) =   4.86424  3.63472  8.49896
   spin  1
    eigenvalues: 
  0.950  0.950  0.988  0.988  0.988
    eigenvectors:
  0.060  0.939  0.000  0.000  0.000
  0.000  0.000  0.333  0.180  0.486
  0.000  0.000  0.333  0.153  0.513
  0.939  0.060  0.000  0.000  0.000
  0.000  0.000  0.333  0.666  0.000
    occupations:
  0.950  0.000  0.000  0.000  0.000
  0.000  0.988 -0.000  0.000  0.000
  0.000 -0.000  0.988 -0.000  0.000
  0.000  0.000 -0.000  0.950 -0.000
  0.000  0.000  0.000 -0.000  0.988
   spin  2
    eigenvalues: 
  0.358  0.358  0.973  0.973  0.973
    eigenvectors:
  0.104  0.896  0.000  0.000  0.000
  0.000  0.000  0.192  0.474  0.333
  0.000  0.000  0.142  0.524  0.333
  0.896  0.104  0.000  0.000  0.000
  0.000  0.000  0.665  0.001  0.333
    occupations:
  0.358  0.002  0.002  0.000  0.003
  0.002  0.973  0.000  0.003 -0.000
  0.002  0.000  0.973 -0.003 -0.000
  0.000  0.003 -0.003  0.358 -0.000
  0.003 -0.000 -0.000 -0.000  0.973
atomic mag. moment =     1.229517
atom    2   Tr[ns(na)] (up, down, total) =   3.59214  4.84629  8.43843
   spin  1
    eigenvalues: 
  0.338  0.338  0.972  0.972  0.972
    eigenvectors:
  0.244  0.756  0.000  0.000  0.000
  0.000  0.000  0.153  0.514  0.333
  0.000  0.000  0.181  0.486  0.333
  0.756  0.244  0.000  0.000  0.000
  0.000  0.000  0.666  0.000  0.333
    occupations:
  0.338  0.002  0.002  0.000  0.005
  0.002  0.972  0.000  0.004 -0.000
  0.002  0.000  0.972 -0.004 -0.000
  0.000  0.004 -0.004  0.338 -0.000
  0.005 -0.000 -0.000 -0.000  0.972
   spin  2
    eigenvalues: 
  0.942  0.942  0.987  0.988  0.988
    eigenvectors:
  0.097  0.903  0.000  0.000  0.000
  0.000  0.000  0.333  0.186  0.480
  0.000  0.000  0.333  0.148  0.519
  0.903  0.097  0.000  0.000  0.000
  0.000  0.000  0.333  0.666  0.001
    occupations:
  0.942  0.000  0.000  0.000  0.000
  0.000  0.988 -0.000  0.000  0.000
  0.000 -0.000  0.988 -0.000  0.000
  0.000  0.000 -0.000  0.942 -0.000
  0.000  0.000  0.000 -0.000  0.988
atomic mag. moment =    -1.254149
N of occupied +U levels =   16.937388
 --- exit write_ns ---
 --- in v_hubbard ---
Hubbard energy    0.0000
 -------

     total cpu time spent up to now is        5.5 secs

     total energy              =    -768.36909767 Ry
     Harris-Foulkes estimate   =    -768.36969030 Ry
     estimated scf accuracy    <       0.00370556 Ry

     total magnetization       =    -0.00 Bohr mag/cell
     absolute magnetization    =     2.74 Bohr mag/cell

     iteration # 12     ecut=    50.00 Ry     beta= 0.70
     Davidson diagonalization with overlap
     ethr =  7.72E-06,  avg # of iterations =  2.6
 --- enter write_ns ---
 LDA+U parameters:
U( 1)     =  0.00000001
alpha( 1) =  0.00000000
U( 2)     =  0.00000001
alpha( 2) =  0.00000000
atom    1   Tr[ns(na)] (up, down, total) =   4.85126  3.60707  8.45833
   spin  1
    eigenvalues: 
  0.944  0.944  0.987  0.988  0.988
    eigenvectors:
  0.198  0.802  0.000  0.000  0.000
  0.000  0.000  0.333  0.170  0.497
  0.000  0.000  0.333  0.164  0.503
  0.802  0.198  0.000  0.000  0.000
  0.000  0.000  0.333  0.667  0.000
    occupations:
  0.944  0.000  0.000  0.000  0.000
  0.000  0.987 -0.000  0.000  0.000
  0.000 -0.000  0.987 -0.000  0.000
  0.000  0.000 -0.000  0.944 -0.000
  0.000  0.000  0.000 -0.000  0.987
   spin  2
    eigenvalues: 
  0.346  0.346  0.972  0.972  0.972
    eigenvectors:
  0.083  0.917  0.000  0.000  0.000
  0.000  0.000  0.333  0.162  0.505
  0.000  0.000  0.333  0.171  0.495
  0.917  0.083  0.000  0.000  0.000
  0.000  0.000  0.333  0.667  0.000
    occupations:
  0.346  0.002  0.002  0.000  0.004
  0.002  0.972  0.000  0.003 -0.000
  0.002  0.000  0.972 -0.003 -0.000
  0.000  0.003 -0.003  0.346 -0.000
  0.004 -0.000 -0.000 -0.000  0.972
atomic mag. moment =     1.244187
atom    2   Tr[ns(na)] (up, down, total) =   3.60503  4.85123  8.45627
   spin  1
    eigenvalues: 
  0.344  0.344  0.972  0.972  0.972
    eigenvectors:
  0.147  0.853  0.000  0.000  0.000
  0.000  0.000  0.179  0.488  0.333
  0.000  0.000  0.155  0.512  0.333
  0.853  0.147  0.000  0.000  0.000
  0.000  0.000  0.666  0.000  0.333
    occupations:
  0.344  0.002  0.002  0.000  0.004
  0.002  0.972  0.000  0.003 -0.000
  0.002  0.000  0.972 -0.003 -0.000
  0.000  0.003 -0.003  0.344 -0.000
  0.004 -0.000 -0.000 -0.000  0.972
   spin  2
    eigenvalues: 
  0.945  0.945  0.987  0.988  0.988
    eigenvectors:
  0.114  0.885  0.000  0.000  0.000
  0.000  0.000  0.333  0.191  0.475
  0.000  0.000  0.333  0.143  0.523
  0.885  0.114  0.000  0.000  0.000
  0.000  0.000  0.333  0.665  0.001
    occupations:
  0.945  0.000  0.000  0.000  0.000
  0.000  0.987 -0.000  0.000  0.000
  0.000 -0.000  0.987 -0.000  0.000
  0.000  0.000 -0.000  0.945 -0.000
  0.000  0.000  0.000 -0.000  0.987
atomic mag. moment =    -1.246203
N of occupied +U levels =   16.914593
 --- exit write_ns ---
 --- in v_hubbard ---
Hubbard energy    0.0000
 -------

     total cpu time spent up to now is        5.9 secs

     total energy              =    -768.36951172 Ry
     Harris-Foulkes estimate   =    -768.36951420 Ry
     estimated scf accuracy    <       0.00008718 Ry

     total magnetization       =     0.00 Bohr mag/cell
     absolute magnetization    =     2.74 Bohr mag/cell

     iteration # 13     ecut=    50.00 Ry     beta= 0.70
     Davidson diagonalization with overlap
     ethr =  1.82E-07,  avg # of iterations =  1.9
 --- enter write_ns ---
 LDA+U parameters:
U( 1)     =  0.00000001
alpha( 1) =  0.00000000
U( 2)     =  0.00000001
alpha( 2) =  0.00000000
atom    1   Tr[ns(na)] (up, down, total) =   4.85283  3.61014  8.46297
   spin  1
    eigenvalues: 
  0.945  0.945  0.987  0.988  0.988
    eigenvectors:
  0.091  0.909  0.000  0.000  0.000
  0.000  0.000  0.333  0.186  0.481
  0.000  0.000  0.333  0.148  0.518
  0.909  0.091  0.000  0.000  0.000
  0.000  0.000  0.333  0.666  0.001
    occupations:
  0.945  0.000  0.000  0.000  0.000
  0.000  0.988 -0.000  0.000  0.000
  0.000 -0.000  0.988 -0.000  0.000
  0.000  0.000 -0.000  0.945 -0.000
  0.000  0.000  0.000 -0.000  0.988
   spin  2
    eigenvalues: 
  0.347  0.347  0.972  0.972  0.972
    eigenvectors:
  0.042  0.958  0.000  0.000  0.000
  0.000  0.000  0.182  0.484  0.333
  0.000  0.000  0.152  0.515  0.333
  0.958  0.042  0.000  0.000  0.000
  0.000  0.000  0.666  0.000  0.333
    occupations:
  0.347  0.002  0.002  0.000  0.004
  0.002  0.972  0.000  0.003 -0.000
  0.002  0.000  0.972 -0.003 -0.000
  0.000  0.003 -0.003  0.347 -0.000
  0.004 -0.000 -0.000 -0.000  0.972
atomic mag. moment =     1.242693
atom    2   Tr[ns(na)] (up, down, total) =   3.60302  4.85033  8.45335
   spin  1
    eigenvalues: 
  0.343  0.343  0.972  0.972  0.972
    eigenvectors:
  0.022  0.978  0.000  0.000  0.000
  0.000  0.000  0.168  0.499  0.333
  0.000  0.000  0.166  0.501  0.333
  0.978  0.022  0.000  0.000  0.000
  0.000  0.000  0.667  0.000  0.333
    occupations:
  0.343  0.002  0.002  0.000  0.004
  0.002  0.972  0.000  0.003 -0.000
  0.002  0.000  0.972 -0.003 -0.000
  0.000  0.003 -0.003  0.343 -0.000
  0.004 -0.000 -0.000 -0.000  0.972
   spin  2
    eigenvalues: 
  0.944  0.944  0.987  0.988  0.988
    eigenvectors:
  0.131  0.869  0.000  0.000  0.000
  0.000  0.000  0.333  0.200  0.467
  0.000  0.000  0.333  0.136  0.531
  0.869  0.131  0.000  0.000  0.000
  0.000  0.000  0.333  0.665  0.002
    occupations:
  0.944  0.000  0.000  0.000  0.000
  0.000  0.987 -0.000  0.000  0.000
  0.000 -0.000  0.987 -0.000  0.000
  0.000  0.000 -0.000  0.944 -0.000
  0.000  0.000  0.000 -0.000  0.987
atomic mag. moment =    -1.247308
N of occupied +U levels =   16.916321
 --- exit write_ns ---
 --- in v_hubbard ---
Hubbard energy    0.0000
 -------

     total cpu time spent up to now is        6.3 secs

     total energy              =    -768.36951306 Ry
     Harris-Foulkes estimate   =    -768.36951965 Ry
     estimated scf accuracy    <       0.00015718 Ry

     total magnetization       =     0.00 Bohr mag/cell
     absolute magnetization    =     2.75 Bohr mag/cell

     iteration # 14     ecut=    50.00 Ry     beta= 0.70
     Davidson diagonalization with overlap
     ethr =  1.82E-07,  avg # of iterations =  1.0
 --- enter write_ns ---
 LDA+U parameters:
U( 1)     =  0.00000001
alpha( 1) =  0.00000000
U( 2)     =  0.00000001
alpha( 2) =  0.00000000
atom    1   Tr[ns(na)] (up, down, total) =   4.85198  3.60824  8.46022
   spin  1
    eigenvalues: 
  0.945  0.945  0.987  0.988  0.988
    eigenvectors:
  0.265  0.735  0.000  0.000  0.000
  0.000  0.000  0.333  0.168  0.498
  0.000  0.000  0.333  0.165  0.501
  0.735  0.265  0.000  0.000  0.000
  0.000  0.000  0.333  0.667  0.000
    occupations:
  0.945  0.000  0.000  0.000  0.000
  0.000  0.988 -0.000  0.000  0.000
  0.000 -0.000  0.988 -0.000  0.000
  0.000  0.000 -0.000  0.945 -0.000
  0.000  0.000  0.000 -0.000  0.988
   spin  2
    eigenvalues: 
  0.346  0.346  0.972  0.972  0.972
    eigenvectors:
  0.152  0.848  0.000  0.000  0.000
  0.000  0.000  0.133  0.533  0.333
  0.000  0.000  0.202  0.464  0.333
  0.848  0.152  0.000  0.000  0.000
  0.000  0.000  0.664  0.002  0.333
    occupations:
  0.346  0.002  0.002  0.000  0.004
  0.002  0.972  0.000  0.003 -0.000
  0.002  0.000  0.972 -0.003 -0.000
  0.000  0.003 -0.003  0.346 -0.000
  0.004 -0.000 -0.000 -0.000  0.972
atomic mag. moment =     1.243743
atom    2   Tr[ns(na)] (up, down, total) =   3.60474  4.85121  8.45595
   spin  1
    eigenvalues: 
  0.344  0.344  0.972  0.972  0.972
    eigenvectors:
  0.052  0.948  0.000  0.000  0.000
  0.000  0.000  0.200  0.466  0.333
  0.000  0.000  0.135  0.531  0.333
  0.948  0.052  0.000  0.000  0.000
  0.000  0.000  0.665  0.002  0.333
    occupations:
  0.344  0.002  0.002  0.000  0.004
  0.002  0.972  0.000  0.003 -0.000
  0.002  0.000  0.972 -0.003 -0.000
  0.000  0.003 -0.003  0.344 -0.000
  0.004 -0.000 -0.000 -0.000  0.972
   spin  2
    eigenvalues: 
  0.944  0.944  0.987  0.988  0.988
    eigenvectors:
  0.112  0.888  0.000  0.000  0.000
  0.000  0.000  0.333  0.189  0.477
  0.000  0.000  0.333  0.145  0.522
  0.888  0.112  0.000  0.000  0.000
  0.000  0.000  0.333  0.666  0.001
    occupations:
  0.944  0.000  0.000  0.000  0.000
  0.000  0.987 -0.000  0.000  0.000
  0.000 -0.000  0.987 -0.000  0.000
  0.000  0.000 -0.000  0.944 -0.000
  0.000  0.000  0.000 -0.000  0.987
atomic mag. moment =    -1.246475
N of occupied +U levels =   16.916174
 --- exit write_ns ---
 --- in v_hubbard ---
Hubbard energy    0.0000
 -------

     total cpu time spent up to now is        6.7 secs

     total energy              =    -768.36952759 Ry
     Harris-Foulkes estimate   =    -768.36951619 Ry
     estimated scf accuracy    <       0.00010324 Ry

     total magnetization       =    -0.00 Bohr mag/cell
     absolute magnetization    =     2.75 Bohr mag/cell

     iteration # 15     ecut=    50.00 Ry     beta= 0.70
     Davidson diagonalization with overlap
     ethr =  1.82E-07,  avg # of iterations =  2.0
 --- enter write_ns ---
 LDA+U parameters:
U( 1)     =  0.00000001
alpha( 1) =  0.00000000
U( 2)     =  0.00000001
alpha( 2) =  0.00000000
atom    1   Tr[ns(na)] (up, down, total) =   4.85464  3.61390  8.46854
   spin  1
    eigenvalues: 
  0.946  0.946  0.987  0.988  0.988
    eigenvectors:
  0.091  0.909  0.000  0.000  0.000
  0.000  0.000  0.333  0.191  0.475
  0.000  0.000  0.333  0.143  0.523
  0.909  0.091  0.000  0.000  0.000
  0.000  0.000  0.333  0.665  0.001
    occupations:
  0.946  0.000  0.000  0.000  0.000
  0.000  0.988 -0.000  0.000  0.000
  0.000 -0.000  0.988 -0.000  0.000
  0.000  0.000 -0.000  0.946 -0.000
  0.000  0.000  0.000 -0.000  0.988
   spin  2
    eigenvalues: 
  0.349  0.349  0.972  0.972  0.972
    eigenvectors:
  0.028  0.972  0.000  0.000  0.000
  0.000  0.000  0.178  0.489  0.333
  0.000  0.000  0.156  0.511  0.333
  0.972  0.028  0.000  0.000  0.000
  0.000  0.000  0.666  0.000  0.333
    occupations:
  0.349  0.002  0.002  0.000  0.004
  0.002  0.972  0.000  0.003 -0.000
  0.002  0.000  0.972 -0.003 -0.000
  0.000  0.003 -0.003  0.349 -0.000
  0.004 -0.000 -0.000 -0.000  0.972
atomic mag. moment =     1.240742
atom    2   Tr[ns(na)] (up, down, total) =   3.60227  4.84972  8.45199
   spin  1
    eigenvalues: 
  0.343  0.343  0.972  0.972  0.972
    eigenvectors:
  0.185  0.815  0.000  0.000  0.000
  0.000  0.000  0.143  0.523  0.333
  0.000  0.000  0.191  0.476  0.333
  0.815  0.185  0.000  0.000  0.000
  0.000  0.000  0.665  0.001  0.333
    occupations:
  0.343  0.002  0.002  0.000  0.004
  0.002  0.972  0.000  0.004 -0.000
  0.002  0.000  0.972 -0.004 -0.000
  0.000  0.004 -0.004  0.343 -0.000
  0.004 -0.000 -0.000 -0.000  0.972
   spin  2
    eigenvalues: 
  0.944  0.944  0.987  0.988  0.988
    eigenvectors:
  0.079  0.921  0.000  0.000  0.000
  0.000  0.000  0.333  0.184  0.483
  0.000  0.000  0.333  0.150  0.517
  0.921  0.079  0.000  0.000  0.000
  0.000  0.000  0.333  0.666  0.001
    occupations:
  0.944  0.000  0.000  0.000  0.000
  0.000  0.987 -0.000  0.000  0.000
  0.000 -0.000  0.987 -0.000  0.000
  0.000  0.000 -0.000  0.944 -0.000
  0.000  0.000  0.000 -0.000  0.987
atomic mag. moment =    -1.247455
N of occupied +U levels =   16.920534
 --- exit write_ns ---
 --- in v_hubbard ---
Hubbard energy    0.0000
 -------

     total cpu time spent up to now is        7.1 secs

     total energy              =    -768.36955720 Ry
     Harris-Foulkes estimate   =    -768.36954143 Ry
     estimated scf accuracy    <       0.00034180 Ry

     total magnetization       =     0.00 Bohr mag/cell
     absolute magnetization    =     2.75 Bohr mag/cell

     iteration # 16     ecut=    50.00 Ry     beta= 0.70
     Davidson diagonalization with overlap
     ethr =  1.82E-07,  avg # of iterations =  2.5
 --- enter write_ns ---
 LDA+U parameters:
U( 1)     =  0.00000001
alpha( 1) =  0.00000000
U( 2)     =  0.00000001
alpha( 2) =  0.00000000
atom    1   Tr[ns(na)] (up, down, total) =   4.85690  3.61511  8.47201
   spin  1
    eigenvalues: 
  0.947  0.947  0.987  0.988  0.988
    eigenvectors:
  0.067  0.933  0.000  0.000  0.000
  0.000  0.000  0.333  0.217  0.450
  0.000  0.000  0.333  0.121  0.546
  0.933  0.067  0.000  0.000  0.000
  0.000  0.000  0.333  0.662  0.005
    occupations:
  0.947  0.000  0.000  0.000  0.000
  0.000  0.988 -0.000  0.000  0.000
  0.000 -0.000  0.988 -0.000  0.000
  0.000  0.000 -0.000  0.947 -0.000
  0.000  0.000  0.000 -0.000  0.988
   spin  2
    eigenvalues: 
  0.349  0.349  0.972  0.972  0.972
    eigenvectors:
  0.154  0.846  0.000  0.000  0.000
  0.000  0.000  0.249  0.418  0.333
  0.000  0.000  0.097  0.570  0.333
  0.846  0.154  0.000  0.000  0.000
  0.000  0.000  0.655  0.012  0.333
    occupations:
  0.349  0.002  0.002  0.000  0.003
  0.002  0.972  0.000  0.003 -0.000
  0.002  0.000  0.972 -0.003 -0.000
  0.000  0.003 -0.003  0.349 -0.000
  0.003 -0.000 -0.000 -0.000  0.972
atomic mag. moment =     1.241793
atom    2   Tr[ns(na)] (up, down, total) =   3.59237  4.84646  8.43882
   spin  1
    eigenvalues: 
  0.338  0.338  0.972  0.972  0.972
    eigenvectors:
  0.011  0.989  0.000  0.000  0.000
  0.000  0.000  0.333  0.156  0.511
  0.000  0.000  0.333  0.178  0.489
  0.989  0.011  0.000  0.000  0.000
  0.000  0.000  0.333  0.666  0.000
    occupations:
  0.338  0.002  0.002  0.000  0.004
  0.002  0.972 -0.000  0.004  0.000
  0.002 -0.000  0.972 -0.004  0.000
  0.000  0.004 -0.004  0.338 -0.000
  0.004  0.000  0.000 -0.000  0.972
   spin  2
    eigenvalues: 
  0.942  0.942  0.987  0.987  0.987
    eigenvectors:
  0.076  0.924  0.000  0.000  0.000
  0.000  0.000  0.333  0.176  0.491
  0.000  0.000  0.333  0.158  0.509
  0.924  0.076  0.000  0.000  0.000
  0.000  0.000  0.333  0.666  0.000
    occupations:
  0.942  0.000  0.000  0.000  0.000
  0.000  0.987 -0.000  0.000  0.000
  0.000 -0.000  0.987 -0.000  0.000
  0.000  0.000 -0.000  0.942 -0.000
  0.000  0.000  0.000 -0.000  0.987
atomic mag. moment =    -1.254094
N of occupied +U levels =   16.910838
 --- exit write_ns ---
 --- in v_hubbard ---
Hubbard energy    0.0000
 -------

     total cpu time spent up to now is        7.5 secs

     total energy              =    -768.36946142 Ry
     Harris-Foulkes estimate   =    -768.36959494 Ry
     estimated scf accuracy    <       0.00083913 Ry

     total magnetization       =     0.00 Bohr mag/cell
     absolute magnetization    =     2.75 Bohr mag/cell

     iteration # 17     ecut=    50.00 Ry     beta= 0.70
     Davidson diagonalization with overlap
     ethr =  1.82E-07,  avg # of iterations =  2.8
 --- enter write_ns ---
 LDA+U parameters:
U( 1)     =  0.00000001
alpha( 1) =  0.00000000
U( 2)     =  0.00000001
alpha( 2) =  0.00000000
atom    1   Tr[ns(na)] (up, down, total) =   4.84956  3.60906  8.45862
   spin  1
    eigenvalues: 
  0.944  0.944  0.987  0.988  0.988
    eigenvectors:
  0.075  0.925  0.000  0.000  0.000
  0.000  0.000  0.333  0.186  0.480
  0.000  0.000  0.333  0.148  0.519
  0.925  0.075  0.000  0.000  0.000
  0.000  0.000  0.333  0.666  0.001
    occupations:
  0.944  0.000  0.000  0.000  0.000
  0.000  0.987 -0.000  0.000  0.000
  0.000 -0.000  0.987 -0.000  0.000
  0.000  0.000 -0.000  0.944 -0.000
  0.000  0.000  0.000 -0.000  0.987
   spin  2
    eigenvalues: 
  0.347  0.347  0.972  0.972  0.972
    eigenvectors:
  0.077  0.923  0.000  0.000  0.000
  0.000  0.000  0.333  0.170  0.497
  0.000  0.000  0.333  0.163  0.503
  0.923  0.077  0.000  0.000  0.000
  0.000  0.000  0.333  0.667  0.000
    occupations:
  0.347  0.002  0.002  0.000  0.004
  0.002  0.972 -0.000  0.003  0.000
  0.002 -0.000  0.972 -0.003  0.000
  0.000  0.003 -0.003  0.347 -0.000
  0.004  0.000  0.000 -0.000  0.972
atomic mag. moment =     1.240493
atom    2   Tr[ns(na)] (up, down, total) =   3.61026  4.85009  8.46035
   spin  1
    eigenvalues: 
  0.347  0.347  0.972  0.972  0.972
    eigenvectors:
  0.085  0.915  0.000  0.000  0.000
  0.000  0.000  0.333  0.153  0.514
  0.000  0.000  0.333  0.181  0.486
  0.915  0.085  0.000  0.000  0.000
  0.000  0.000  0.333  0.666  0.000
    occupations:
  0.347  0.002  0.002  0.000  0.004
  0.002  0.972  0.000  0.003 -0.000
  0.002  0.000  0.972 -0.003 -0.000
  0.000  0.003 -0.003  0.347 -0.000
  0.004 -0.000 -0.000 -0.000  0.972
   spin  2
    eigenvalues: 
  0.944  0.944  0.987  0.988  0.988
    eigenvectors:
  0.040  0.960  0.000  0.000  0.000
  0.000  0.000  0.333  0.189  0.478
  0.000  0.000  0.333  0.145  0.521
  0.960  0.040  0.000  0.000  0.000
  0.000  0.000  0.333  0.666  0.001
    occupations:
  0.944  0.000  0.000  0.000  0.000
  0.000  0.987 -0.000  0.000  0.000
  0.000 -0.000  0.987 -0.000  0.000
  0.000  0.000 -0.000  0.944 -0.000
  0.000  0.000  0.000 -0.000  0.987
atomic mag. moment =    -1.239826
N of occupied +U levels =   16.918967
 --- exit write_ns ---
 --- in v_hubbard ---
Hubbard energy    0.0000
 -------

     total cpu time spent up to now is        7.9 secs

     total energy              =    -768.36954689 Ry
     Harris-Foulkes estimate   =    -768.36955740 Ry
     estimated scf accuracy    <       0.00003208 Ry

     total magnetization       =     0.00 Bohr mag/cell
     absolute magnetization    =     2.73 Bohr mag/cell

     iteration # 18     ecut=    50.00 Ry     beta= 0.70
     Davidson diagonalization with overlap
     ethr =  6.68E-08,  avg # of iterations =  2.0
 --- enter write_ns ---
 LDA+U parameters:
U( 1)     =  0.00000001
alpha( 1) =  0.00000000
U( 2)     =  0.00000001
alpha( 2) =  0.00000000
atom    1   Tr[ns(na)] (up, down, total) =   4.84947  3.60896  8.45843
   spin  1
    eigenvalues: 
  0.944  0.944  0.987  0.988  0.988
    eigenvectors:
  0.100  0.900  0.000  0.000  0.000
  0.000  0.000  0.333  0.202  0.464
  0.000  0.000  0.333  0.133  0.533
  0.900  0.100  0.000  0.000  0.000
  0.000  0.000  0.333  0.664  0.002
    occupations:
  0.944  0.000  0.000  0.000  0.000
  0.000  0.987 -0.000  0.000  0.000
  0.000 -0.000  0.987 -0.000  0.000
  0.000  0.000 -0.000  0.944 -0.000
  0.000  0.000  0.000 -0.000  0.987
   spin  2
    eigenvalues: 
  0.346  0.346  0.972  0.972  0.972
    eigenvectors:
  0.063  0.937  0.000  0.000  0.000
  0.000  0.000  0.333  0.151  0.516
  0.000  0.000  0.333  0.183  0.483
  0.937  0.063  0.000  0.000  0.000
  0.000  0.000  0.333  0.666  0.001
    occupations:
  0.346  0.002  0.002  0.000  0.004
  0.002  0.972 -0.000  0.003  0.000
  0.002 -0.000  0.972 -0.003  0.000
  0.000  0.003 -0.003  0.346 -0.000
  0.004  0.000  0.000 -0.000  0.972
atomic mag. moment =     1.240515
atom    2   Tr[ns(na)] (up, down, total) =   3.60878  4.84921  8.45799
   spin  1
    eigenvalues: 
  0.346  0.346  0.972  0.972  0.972
    eigenvectors:
  0.024  0.976  0.000  0.000  0.000
  0.000  0.000  0.333  0.143  0.524
  0.000  0.000  0.333  0.191  0.475
  0.976  0.024  0.000  0.000  0.000
  0.000  0.000  0.333  0.665  0.001
    occupations:
  0.346  0.002  0.002  0.000  0.004
  0.002  0.972  0.000  0.003 -0.000
  0.002  0.000  0.972 -0.003 -0.000
  0.000  0.003 -0.003  0.346 -0.000
  0.004 -0.000 -0.000 -0.000  0.972
   spin  2
    eigenvalues: 
  0.944  0.944  0.987  0.988  0.988
    eigenvectors:
  0.079  0.920  0.000  0.000  0.000
  0.000  0.000  0.333  0.188  0.478
  0.000  0.000  0.333  0.146  0.521
  0.920  0.079  0.000  0.000  0.000
  0.000  0.000  0.333  0.666  0.001
    occupations:
  0.944  0.000  0.000  0.000  0.000
  0.000  0.987 -0.000  0.000  0.000
  0.000 -0.000  0.987 -0.000  0.000
  0.000  0.000 -0.000  0.944 -0.000
  0.000  0.000  0.000 -0.000  0.987
atomic mag. moment =    -1.240437
N of occupied +U levels =   16.916421
 --- exit write_ns ---
 --- in v_hubbard ---
Hubbard energy    0.0000
 -------

     total cpu time spent up to now is        8.3 secs

     total energy              =    -768.36955323 Ry
     Harris-Foulkes estimate   =    -768.36955392 Ry
     estimated scf accuracy    <       0.00000276 Ry

     total magnetization       =    -0.00 Bohr mag/cell
     absolute magnetization    =     2.73 Bohr mag/cell

     iteration # 19     ecut=    50.00 Ry     beta= 0.70
     Davidson diagonalization with overlap
     ethr =  5.75E-09,  avg # of iterations =  2.0
 --- enter write_ns ---
 LDA+U parameters:
U( 1)     =  0.00000001
alpha( 1) =  0.00000000
U( 2)     =  0.00000001
alpha( 2) =  0.00000000
atom    1   Tr[ns(na)] (up, down, total) =   4.84935  3.60908  8.45843
   spin  1
    eigenvalues: 
  0.944  0.944  0.987  0.988  0.988
    eigenvectors:
  0.036  0.964  0.000  0.000  0.000
  0.000  0.000  0.333  0.204  0.463
  0.000  0.000  0.333  0.132  0.535
  0.964  0.036  0.000  0.000  0.000
  0.000  0.000  0.333  0.664  0.003
    occupations:
  0.944  0.000  0.000  0.000  0.000
  0.000  0.987 -0.000  0.000  0.000
  0.000 -0.000  0.987 -0.000  0.000
  0.000  0.000 -0.000  0.944 -0.000
  0.000  0.000  0.000 -0.000  0.987
   spin  2
    eigenvalues: 
  0.347  0.347  0.972  0.972  0.972
    eigenvectors:
  0.087  0.913  0.000  0.000  0.000
  0.000  0.000  0.333  0.214  0.452
  0.000  0.000  0.333  0.123  0.544
  0.913  0.087  0.000  0.000  0.000
  0.000  0.000  0.333  0.662  0.004
    occupations:
  0.347  0.002  0.002  0.000  0.004
  0.002  0.972  0.000  0.003 -0.000
  0.002  0.000  0.972 -0.003 -0.000
  0.000  0.003 -0.003  0.347 -0.000
  0.004 -0.000 -0.000 -0.000  0.972
atomic mag. moment =     1.240276
atom    2   Tr[ns(na)] (up, down, total) =   3.60865  4.84907  8.45772
   spin  1
    eigenvalues: 
  0.346  0.346  0.972  0.972  0.972
    eigenvectors:
  0.232  0.768  0.000  0.000  0.000
  0.000  0.000  0.333  0.172  0.495
  0.000  0.000  0.333  0.161  0.505
  0.768  0.232  0.000  0.000  0.000
  0.000  0.000  0.333  0.667  0.000
    occupations:
  0.346  0.002  0.002  0.000  0.004
  0.002  0.972  0.000  0.003 -0.000
  0.002  0.000  0.972 -0.003 -0.000
  0.000  0.003 -0.003  0.346 -0.000
  0.004 -0.000 -0.000 -0.000  0.972
   spin  2
    eigenvalues: 
  0.944  0.944  0.987  0.988  0.988
    eigenvectors:
  0.256  0.744  0.000  0.000  0.000
  0.000  0.000  0.333  0.163  0.504
  0.000  0.000  0.333  0.171  0.496
  0.744  0.256  0.000  0.000  0.000
  0.000  0.000  0.333  0.667  0.000
    occupations:
  0.944  0.000  0.000  0.000  0.000
  0.000  0.987 -0.000  0.000  0.000
  0.000 -0.000  0.987 -0.000  0.000
  0.000  0.000 -0.000  0.944 -0.000
  0.000  0.000  0.000 -0.000  0.987
atomic mag. moment =    -1.240422
N of occupied +U levels =   16.916149
 --- exit write_ns ---
 --- in v_hubbard ---
Hubbard energy    0.0000
 -------

     total cpu time spent up to now is        8.7 secs

     total energy              =    -768.36955342 Ry
     Harris-Foulkes estimate   =    -768.36955359 Ry
     estimated scf accuracy    <       0.00000088 Ry

     total magnetization       =     0.00 Bohr mag/cell
     absolute magnetization    =     2.73 Bohr mag/cell

     iteration # 20     ecut=    50.00 Ry     beta= 0.70
     Davidson diagonalization with overlap
     ethr =  1.83E-09,  avg # of iterations =  1.9
 --- enter write_ns ---
 LDA+U parameters:
U( 1)     =  0.00000001
alpha( 1) =  0.00000000
U( 2)     =  0.00000001
alpha( 2) =  0.00000000
atom    1   Tr[ns(na)] (up, down, total) =   4.84917  3.60913  8.45830
   spin  1
    eigenvalues: 
  0.944  0.944  0.987  0.988  0.988
    eigenvectors:
  0.054  0.946  0.000  0.000  0.000
  0.000  0.000  0.333  0.209  0.458
  0.000  0.000  0.333  0.128  0.539
  0.946  0.054  0.000  0.000  0.000
  0.000  0.000  0.333  0.663  0.003
    occupations:
  0.944  0.000  0.000  0.000  0.000
  0.000  0.987 -0.000  0.000  0.000
  0.000 -0.000  0.987 -0.000  0.000
  0.000  0.000 -0.000  0.944 -0.000
  0.000  0.000  0.000 -0.000  0.987
   spin  2
    eigenvalues: 
  0.347  0.347  0.972  0.972  0.972
    eigenvectors:
  0.085  0.915  0.000  0.000  0.000
  0.000  0.000  0.333  0.215  0.451
  0.000  0.000  0.333  0.122  0.544
  0.915  0.085  0.000  0.000  0.000
  0.000  0.000  0.333  0.662  0.004
    occupations:
  0.347  0.002  0.002  0.000  0.004
  0.002  0.972  0.000  0.003 -0.000
  0.002  0.000  0.972 -0.003 -0.000
  0.000  0.003 -0.003  0.347 -0.000
  0.004 -0.000 -0.000 -0.000  0.972
atomic mag. moment =     1.240042
atom    2   Tr[ns(na)] (up, down, total) =   3.60915  4.84915  8.45830
   spin  1
    eigenvalues: 
  0.347  0.347  0.972  0.972  0.972
    eigenvectors:
  0.307  0.693  0.000  0.000  0.000
  0.000  0.000  0.333  0.140  0.527
  0.000  0.000  0.333  0.195  0.472
  0.693  0.307  0.000  0.000  0.000
  0.000  0.000  0.333  0.665  0.002
    occupations:
  0.347  0.002  0.002  0.000  0.004
  0.002  0.972  0.000  0.003 -0.000
  0.002  0.000  0.972 -0.003 -0.000
  0.000  0.003 -0.003  0.347 -0.000
  0.004 -0.000 -0.000 -0.000  0.972
   spin  2
    eigenvalues: 
  0.944  0.944  0.987  0.988  0.988
    eigenvectors:
  0.074  0.926  0.000  0.000  0.000
  0.000  0.000  0.333  0.159  0.507
  0.000  0.000  0.333  0.174  0.493
  0.926  0.074  0.000  0.000  0.000
  0.000  0.000  0.333  0.666  0.000
    occupations:
  0.944  0.000  0.000  0.000  0.000
  0.000  0.987 -0.000  0.000  0.000
  0.000 -0.000  0.987 -0.000  0.000
  0.000  0.000 -0.000  0.944 -0.000
  0.000  0.000  0.000 -0.000  0.987
atomic mag. moment =    -1.240004
N of occupied +U levels =   16.916601
 --- exit write_ns ---
 --- in v_hubbard ---
Hubbard energy    0.0000
 -------

     total cpu time spent up to now is        9.1 secs

     total energy              =    -768.36955354 Ry
     Harris-Foulkes estimate   =    -768.36955353 Ry
     estimated scf accuracy    <          7.8E-09 Ry

     total magnetization       =    -0.00 Bohr mag/cell
     absolute magnetization    =     2.73 Bohr mag/cell

     iteration # 21     ecut=    50.00 Ry     beta= 0.70
     Davidson diagonalization with overlap
     ethr =  1.63E-11,  avg # of iterations =  2.5
 --- enter write_ns ---
 LDA+U parameters:
U( 1)     =  0.00000001
alpha( 1) =  0.00000000
U( 2)     =  0.00000001
alpha( 2) =  0.00000000
atom    1   Tr[ns(na)] (up, down, total) =   4.84917  3.60917  8.45834
   spin  1
    eigenvalues: 
  0.944  0.944  0.987  0.988  0.988
    eigenvectors:
  0.117  0.883  0.000  0.000  0.000
  0.000  0.000  0.333  0.188  0.479
  0.000  0.000  0.333  0.147  0.520
  0.883  0.117  0.000  0.000  0.000
  0.000  0.000  0.333  0.666  0.001
    occupations:
  0.944  0.000  0.000  0.000  0.000
  0.000  0.987 -0.000  0.000  0.000
  0.000 -0.000  0.987 -0.000  0.000
  0.000  0.000 -0.000  0.944 -0.000
  0.000  0.000  0.000 -0.000  0.987
   spin  2
    eigenvalues: 
  0.347  0.347  0.972  0.972  0.972
    eigenvectors:
  0.171  0.829  0.000  0.000  0.000
  0.000  0.000  0.333  0.190  0.476
  0.000  0.000  0.333  0.144  0.523
  0.829  0.171  0.000  0.000  0.000
  0.000  0.000  0.333  0.666  0.001
    occupations:
  0.347  0.002  0.002  0.000  0.004
  0.002  0.972  0.000  0.003 -0.000
  0.002  0.000  0.972 -0.003 -0.000
  0.000  0.003 -0.003  0.347 -0.000
  0.004 -0.000 -0.000 -0.000  0.972
atomic mag. moment =     1.239995
atom    2   Tr[ns(na)] (up, down, total) =   3.60915  4.84915  8.45830
   spin  1
    eigenvalues: 
  0.347  0.347  0.972  0.972  0.972
    eigenvectors:
  0.097  0.903  0.000  0.000  0.000
  0.000  0.000  0.333  0.135  0.531
  0.000  0.000  0.333  0.200  0.467
  0.903  0.097  0.000  0.000  0.000
  0.000  0.000  0.333  0.665  0.002
    occupations:
  0.347  0.002  0.002  0.000  0.004
  0.002  0.972  0.000  0.003 -0.000
  0.002  0.000  0.972 -0.003 -0.000
  0.000  0.003 -0.003  0.347 -0.000
  0.004 -0.000 -0.000 -0.000  0.972
   spin  2
    eigenvalues: 
  0.944  0.944  0.987  0.988  0.988
    eigenvectors:
  0.088  0.912  0.000  0.000  0.000
  0.000  0.000  0.333  0.162  0.504
  0.000  0.000  0.333  0.171  0.496
  0.912  0.088  0.000  0.000  0.000
  0.000  0.000  0.333  0.667  0.000
    occupations:
  0.944  0.000  0.000  0.000  0.000
  0.000  0.987 -0.000  0.000  0.000
  0.000 -0.000  0.987 -0.000  0.000
  0.000  0.000 -0.000  0.944 -0.000
  0.000  0.000  0.000 -0.000  0.987
atomic mag. moment =    -1.239996
N of occupied +U levels =   16.916634
 --- exit write_ns ---
 --- in v_hubbard ---
Hubbard energy    0.0000
 -------

     total cpu time spent up to now is        9.6 secs

     total energy              =    -768.36955354 Ry
     Harris-Foulkes estimate   =    -768.36955354 Ry
     estimated scf accuracy    <          3.5E-09 Ry

     total magnetization       =     0.00 Bohr mag/cell
     absolute magnetization    =     2.73 Bohr mag/cell

     iteration # 22     ecut=    50.00 Ry     beta= 0.70
     Davidson diagonalization with overlap
     ethr =  7.34E-12,  avg # of iterations =  2.0
 --- enter write_ns ---
 LDA+U parameters:
U( 1)     =  0.00000001
alpha( 1) =  0.00000000
U( 2)     =  0.00000001
alpha( 2) =  0.00000000
atom    1   Tr[ns(na)] (up, down, total) =   4.84915  3.60916  8.45831
   spin  1
    eigenvalues: 
  0.944  0.944  0.987  0.988  0.988
    eigenvectors:
  0.167  0.833  0.000  0.000  0.000
  0.000  0.000  0.333  0.149  0.517
  0.000  0.000  0.333  0.185  0.482
  0.833  0.167  0.000  0.000  0.000
  0.000  0.000  0.333  0.666  0.001
    occupations:
  0.944  0.000  0.000  0.000  0.000
  0.000  0.987 -0.000  0.000  0.000
  0.000 -0.000  0.987 -0.000  0.000
  0.000  0.000 -0.000  0.944 -0.000
  0.000  0.000  0.000 -0.000  0.987
   spin  2
    eigenvalues: 
  0.347  0.347  0.972  0.972  0.972
    eigenvectors:
  0.203  0.797  0.000  0.000  0.000
  0.000  0.000  0.333  0.172  0.495
  0.000  0.000  0.333  0.161  0.505
  0.797  0.203  0.000  0.000  0.000
  0.000  0.000  0.333  0.667  0.000
    occupations:
  0.347  0.002  0.002  0.000  0.004
  0.002  0.972  0.000  0.003 -0.000
  0.002  0.000  0.972 -0.003 -0.000
  0.000  0.003 -0.003  0.347 -0.000
  0.004 -0.000 -0.000 -0.000  0.972
atomic mag. moment =     1.239995
atom    2   Tr[ns(na)] (up, down, total) =   3.60916  4.84915  8.45831
   spin  1
    eigenvalues: 
  0.347  0.347  0.972  0.972  0.972
    eigenvectors:
  0.051  0.949  0.000  0.000  0.000
  0.000  0.000  0.333  0.143  0.524
  0.000  0.000  0.333  0.192  0.475
  0.949  0.051  0.000  0.000  0.000
  0.000  0.000  0.333  0.665  0.001
    occupations:
  0.347  0.002  0.002  0.000  0.004
  0.002  0.972  0.000  0.003 -0.000
  0.002  0.000  0.972 -0.003 -0.000
  0.000  0.003 -0.003  0.347 -0.000
  0.004 -0.000 -0.000 -0.000  0.972
   spin  2
    eigenvalues: 
  0.944  0.944  0.987  0.988  0.988
    eigenvectors:
  0.079  0.921  0.000  0.000  0.000
  0.000  0.000  0.333  0.149  0.518
  0.000  0.000  0.333  0.185  0.481
  0.921  0.079  0.000  0.000  0.000
  0.000  0.000  0.333  0.666  0.001
    occupations:
  0.944  0.000  0.000  0.000  0.000
  0.000  0.987 -0.000  0.000  0.000
  0.000 -0.000  0.987 -0.000  0.000
  0.000  0.000 -0.000  0.944 -0.000
  0.000  0.000  0.000 -0.000  0.987
atomic mag. moment =    -1.239993
N of occupied +U levels =   16.916615
 --- exit write_ns ---
 --- in v_hubbard ---
Hubbard energy    0.0000
 -------
 
     Magnetic moment per site:
     atom:    1    charge:   15.6979    magn:    1.2311    constr:    0.0000
     atom:    2    charge:   15.6979    magn:   -1.2311    constr:    0.0000
     atom:    3    charge:    5.6370    magn:   -0.0000    constr:    0.0000
     atom:    4    charge:    5.6370    magn:   -0.0000    constr:    0.0000

     total cpu time spent up to now is        9.9 secs

     End of self-consistent calculation

 ------ SPIN UP ------------


          k = 0.0000 0.0000 0.0000 (  1443 PWs)   bands (ev):

   -89.4838 -87.7776 -50.0628 -50.0026 -50.0026 -48.4021 -48.3592 -48.3592
    -6.0779  -4.6328   5.9725   8.7513   8.7513  11.2722  11.2793  11.2793
    12.0140  12.0140  12.0834  12.4228  12.4228  13.3795  13.3795  13.6515
    15.7870  15.7870  15.7955  19.7042  24.3245

     occupation numbers 
     1.0000   1.0000   1.0000   1.0000   1.0000   1.0000   1.0000   1.0000
     1.0000   1.0000   1.0000   1.0000   1.0000   1.0000   1.0000   1.0000
     1.0000   1.0000   1.0000   1.0000   1.0000   1.0000   1.0000   1.0000
     0.0000   0.0000   0.0000   0.0000   0.0000

          k = 0.2500 0.2500-0.7500 (  1448 PWs)   bands (ev):

   -89.4819 -87.7755 -50.0594 -50.0267 -50.0087 -48.3986 -48.3861 -48.3660
    -4.6164  -4.6042   6.9867   7.0636   8.3944   8.6651   9.0238   9.4432
    11.9254  12.6574  12.8674  12.9307  13.5389  13.6490  13.7904  13.9334
    15.1325  15.1664  21.6919  21.8279  23.9581

     occupation numbers 
     1.0000   1.0000   1.0000   1.0000   1.0000   1.0000   1.0000   1.0000
     1.0000   1.0000   1.0000   1.0000   1.0000   1.0000   1.0000   1.0000
     1.0000   1.0000   1.0000   1.0000   1.0000   1.0000   1.0000   1.0000
     0.0000   0.0000   0.0000   0.0000   0.0000

          k = 0.5000-0.5000-0.5000 (  1458 PWs)   bands (ev):

   -89.4819 -87.7755 -50.0595 -50.0268 -50.0087 -48.3986 -48.3860 -48.3660
    -4.6325  -4.5728   5.9760   7.2579   8.7506   8.7604   9.9434   9.9478
    11.1513  12.5742  12.7808  12.9331  13.1585  13.5201  13.8064  13.9141
    15.8209  15.8744  19.7091  20.4629  24.3288

     occupation numbers 
     1.0000   1.0000   1.0000   1.0000   1.0000   1.0000   1.0000   1.0000
     1.0000   1.0000   1.0000   1.0000   1.0000   1.0000   1.0000   1.0000
     1.0000   1.0000   1.0000   1.0000   1.0000   1.0000   1.0000   1.0000
     0.0000   0.0000   0.0000   0.0000   0.0000

          k =-0.2500-0.2500-0.2500 (  1466 PWs)   bands (ev):

   -89.4838 -87.7776 -50.0627 -50.0026 -50.0026 -48.4023 -48.3592 -48.3592
    -5.4242  -5.4204   8.0650   8.1127   9.3356   9.3356   9.8778   9.8778
    12.1375  12.1375  12.4559  13.2067  13.2067  13.3132  13.8403  13.8403
    15.1528  15.1528  18.4653  18.5793  26.3124

     occupation numbers 
     1.0000   1.0000   1.0000   1.0000   1.0000   1.0000   1.0000   1.0000
     1.0000   1.0000   1.0000   1.0000   1.0000   1.0000   1.0000   1.0000
     1.0000   1.0000   1.0000   1.0000   1.0000   1.0000   1.0000   1.0000
     0.0000   0.0000   0.0000   0.0000   0.0000

 ------ SPIN DOWN ----------


          k = 0.0000 0.0000 0.0000 (  1443 PWs)   bands (ev):

   -89.4838 -87.7776 -50.0628 -50.0025 -50.0025 -48.4021 -48.3592 -48.3592
    -6.0779  -4.6328   5.9725   8.7513   8.7513  11.2722  11.2793  11.2793
    12.0140  12.0140  12.0834  12.4228  12.4228  13.3795  13.3795  13.6515
    15.7869  15.7869  15.7955  19.7042  24.3245

     occupation numbers 
     1.0000   1.0000   1.0000   1.0000   1.0000   1.0000   1.0000   1.0000
     1.0000   1.0000   1.0000   1.0000   1.0000   1.0000   1.0000   1.0000
     1.0000   1.0000   1.0000   1.0000   1.0000   1.0000   1.0000   1.0000
     0.0000   0.0000   0.0000   0.0000   0.0000

          k = 0.2500 0.2500-0.7500 (  1448 PWs)   bands (ev):

   -89.4819 -87.7755 -50.0594 -50.0267 -50.0087 -48.3986 -48.3861 -48.3660
    -4.6164  -4.6042   6.9867   7.0636   8.3944   8.6651   9.0238   9.4432
    11.9255  12.6574  12.8673  12.9307  13.5389  13.6490  13.7904  13.9334
    15.1325  15.1664  21.6919  21.8279  24.0881

     occupation numbers 
     1.0000   1.0000   1.0000   1.0000   1.0000   1.0000   1.0000   1.0000
     1.0000   1.0000   1.0000   1.0000   1.0000   1.0000   1.0000   1.0000
     1.0000   1.0000   1.0000   1.0000   1.0000   1.0000   1.0000   1.0000
     0.0000   0.0000   0.0000   0.0000   0.0000

          k = 0.5000-0.5000-0.5000 (  1458 PWs)   bands (ev):

   -89.4819 -87.7755 -50.0594 -50.0268 -50.0087 -48.3986 -48.3860 -48.3660
    -4.6325  -4.5728   5.9760   7.2579   8.7506   8.7604   9.9434   9.9478
    11.1513  12.5743  12.7808  12.9331  13.1586  13.5201  13.8063  13.9141
    15.8209  15.8744  19.7091  20.4629  24.3288

     occupation numbers 
     1.0000   1.0000   1.0000   1.0000   1.0000   1.0000   1.0000   1.0000
     1.0000   1.0000   1.0000   1.0000   1.0000   1.0000   1.0000   1.0000
     1.0000   1.0000   1.0000   1.0000   1.0000   1.0000   1.0000   1.0000
     0.0000   0.0000   0.0000   0.0000   0.0000

          k =-0.2500-0.2500-0.2500 (  1466 PWs)   bands (ev):

   -89.4838 -87.7776 -50.0627 -50.0025 -50.0025 -48.4023 -48.3592 -48.3592
    -5.4243  -5.4204   8.0650   8.1127   9.3356   9.3356   9.8777   9.8777
    12.1375  12.1375  12.4559  13.2067  13.2067  13.3132  13.8403  13.8403
    15.1528  15.1528  18.4653  18.5793  26.4443

     occupation numbers 
     1.0000   1.0000   1.0000   1.0000   1.0000   1.0000   1.0000   1.0000
     1.0000   1.0000   1.0000   1.0000   1.0000   1.0000   1.0000   1.0000
     1.0000   1.0000   1.0000   1.0000   1.0000   1.0000   1.0000   1.0000
     0.0000   0.0000   0.0000   0.0000   0.0000

     the Fermi energy is    14.6920 ev

!    total energy              =    -768.36955354 Ry
     Harris-Foulkes estimate   =    -768.36955354 Ry
     estimated scf accuracy    <          4.8E-11 Ry

     The total energy is the sum of the following terms:

     one-electron contribution =    -432.13164634 Ry
     hartree contribution      =     245.75393428 Ry
     xc contribution           =     -85.11196663 Ry
     ewald contribution        =    -478.66310909 Ry
     Hubbard energy            =       0.00000000 Ry
     one-center paw contrib.   =     -18.21676576 Ry
      -> PAW hartree energy AE =       0.00000000 Ry
      -> PAW hartree energy PS =       0.00000000 Ry
      -> PAW xc energy AE      =       0.00000000 Ry
      -> PAW xc energy PS      =       0.00000000 Ry
      -> total E_H with PAW    =     245.75393428 Ry
      -> total E_XC with PAW   =     -85.11196663 Ry
     smearing contrib. (-TS)   =      -0.00000000 Ry

     total magnetization       =    -0.00 Bohr mag/cell
     absolute magnetization    =     2.73 Bohr mag/cell

     convergence has been achieved in  22 iterations

     Writing output data file NiO.save/
 
     init_run     :      0.43s CPU      0.44s WALL (       1 calls)
     electrons    :      9.07s CPU      9.14s WALL (       1 calls)

     Called by init_run:
     wfcinit      :      0.10s CPU      0.11s WALL (       1 calls)
     wfcinit:atom :      0.00s CPU      0.00s WALL (       8 calls)
     wfcinit:wfcr :      0.09s CPU      0.10s WALL (       8 calls)
     potinit      :      0.11s CPU      0.11s WALL (       1 calls)
     hinit0       :      0.16s CPU      0.16s WALL (       1 calls)

     Called by electrons:
     c_bands      :      4.43s CPU      4.46s WALL (      22 calls)
     sum_band     :      2.16s CPU      2.18s WALL (      22 calls)
     v_of_rho     :      0.93s CPU      0.93s WALL (      23 calls)
     v_h          :      0.02s CPU      0.02s WALL (      23 calls)
     v_xc         :      0.91s CPU      0.91s WALL (      23 calls)
     newd         :      0.54s CPU      0.55s WALL (      23 calls)
     PAW_pot      :      0.98s CPU      1.00s WALL (      23 calls)
     mix_rho      :      0.07s CPU      0.07s WALL (      22 calls)

     Called by c_bands:
     init_us_2    :      0.04s CPU      0.04s WALL (     368 calls)
     cegterg      :      4.30s CPU      4.33s WALL (     176 calls)

     Called by sum_band:
     sum_band:bec :      0.00s CPU      0.00s WALL (     176 calls)
     addusdens    :      1.25s CPU      1.25s WALL (      22 calls)

     Called by *egterg:
     h_psi        :      3.50s CPU      3.53s WALL (     564 calls)
     s_psi        :      0.04s CPU      0.03s WALL (     572 calls)
     g_psi        :      0.01s CPU      0.01s WALL (     380 calls)
     cdiaghg      :      0.68s CPU      0.68s WALL (     556 calls)
     cegterg:over :      0.07s CPU      0.07s WALL (     380 calls)
     cegterg:upda :      0.04s CPU      0.04s WALL (     380 calls)
     cegterg:last :      0.02s CPU      0.02s WALL (     176 calls)

     Called by h_psi:
     h_psi:pot    :      3.47s CPU      3.49s WALL (     564 calls)
     h_psi:calbec :      0.05s CPU      0.04s WALL (     564 calls)
     vloc_psi     :      3.39s CPU      3.41s WALL (     564 calls)
     add_vuspsi   :      0.03s CPU      0.03s WALL (     564 calls)
     vhpsi        :      0.03s CPU      0.03s WALL (     564 calls)

     General routines
     calbec       :      0.09s CPU      0.09s WALL (    1488 calls)
     fft          :      0.35s CPU      0.36s WALL (     569 calls)
     ffts         :      0.02s CPU      0.02s WALL (      90 calls)
     fftw         :      3.91s CPU      3.82s WALL (   30082 calls)
     interpolate  :      0.04s CPU      0.04s WALL (      46 calls)
     davcio       :      0.00s CPU      0.00s WALL (       8 calls)
 
     Parallel routines
     fft_scatt_xy :      0.50s CPU      0.56s WALL (   30741 calls)
     fft_scatt_yz :      0.95s CPU      0.90s WALL (   30741 calls)

     Hubbard U routines
     new_ns       :      0.01s CPU      0.01s WALL (      22 calls)
     vhpsi        :      0.03s CPU      0.03s WALL (     564 calls)

     PAW routines
     PAW_pot      :      0.98s CPU      1.00s WALL (      23 calls)
     PAW_symme    :      0.00s CPU      0.00s WALL (      45 calls)
 
     PWSCF        :      9.87s CPU      9.99s WALL

 
   This run was terminated on:  12:30:59  29Aug2018            

=------------------------------------------------------------------------------=
   JOB DONE.
=------------------------------------------------------------------------------=
