<UPF version="2.0.1">
<PP_INFO>

This pseudopotential file has been produced using the code
ONCVPSP  (Optimized Norm-Conservinng Vanderbilt PSeudopotential)
scalar-relativistic version 3.3.0 08/16/2017 by D. R. Hamann
The code is available through a link at URL www.mat-simresearch.com.
Documentation with the package provides a full discription of the
input data below.


While it is not required under the terms of the GNU GPL, it is
suggested that you cite D. R. Hamann, Phys. Rev. B 88, 085117 (2013)
in any publication using these pseudopotentials.

<PP_INPUTFILE>
# ATOM AND REFERENCE CONFIGURATION
# atsym  z   nc   nv     iexc    psfile
F  9.00    1    2       4      upf
#
#   n    l    f        energy (Ha)
1    0    2.00
2    0    2.00
2    1    5.00
#
# PSEUDOPOTENTIAL AND OPTIMIZATION
# lmax
2
#
#   l,   rc,      ep,       ncon, nbas, qcut
0   1.30000  -1.09879    4    8   8.60000
1   1.45000  -0.40834    4    8   9.00000
2   1.60000   0.15000    4    8   5.80000
#
# LOCAL POTENTIAL
# lloc, lpopt,  rc(5),   dvloc0
4    5   0.95000      0.00000
#
# VANDERBILT-KLEINMAN-BYLANDER PROJECTORs
# l, nproj, debl
0    2   1.50000
1    2   1.50000
2    1   2.00000
#
# MODEL CORE CHARGE
# icmod, fcfact, rcfact
3   2.50000   1.85000
#
# LOG DERIVATIVE ANALYSIS
# epsh1, epsh2, depsh
-12.00   12.00    0.02
#
# OUTPUT GRID
# rlmax, drl
6.00    0.01
#
# TEST CONFIGURATIONS
# ncnf
0
# nvcnf
#   n    l    f
</PP_INPUTFILE>
</PP_INFO>
<!--                               -->
<!-- END OF HUMAN READABLE SECTION -->
<!--                               -->
<PP_HEADER
generated="Generated using ONCVPSP code by D. R. Hamann"
author="anonymous"
date="171031"
comment=""
element="F "
pseudo_type="NC"
relativistic="scalar"
is_ultrasoft="F"
is_paw="F"
is_coulomb="F"
has_so="F"
has_wfc="F"
has_gipaw="F"
core_correction="T"
functional="PBE"
z_valence="    7.00"
total_psenergy="  -4.77470363252E+01"
rho_cutoff="   8.31000000000E+00"
l_max="2"
l_local="-1"
mesh_size="   832"
number_of_wfc="2"
number_of_proj="5"/>
<PP_MESH>
<PP_R type="real"  size=" 832" columns="8">
0.0000    0.0100    0.0200    0.0300    0.0400    0.0500    0.0600    0.0700
0.0800    0.0900    0.1000    0.1100    0.1200    0.1300    0.1400    0.1500
0.1600    0.1700    0.1800    0.1900    0.2000    0.2100    0.2200    0.2300
0.2400    0.2500    0.2600    0.2700    0.2800    0.2900    0.3000    0.3100
0.3200    0.3300    0.3400    0.3500    0.3600    0.3700    0.3800    0.3900
0.4000    0.4100    0.4200    0.4300    0.4400    0.4500    0.4600    0.4700
0.4800    0.4900    0.5000    0.5100    0.5200    0.5300    0.5400    0.5500
0.5600    0.5700    0.5800    0.5900    0.6000    0.6100    0.6200    0.6300
0.6400    0.6500    0.6600    0.6700    0.6800    0.6900    0.7000    0.7100
0.7200    0.7300    0.7400    0.7500    0.7600    0.7700    0.7800    0.7900
0.8000    0.8100    0.8200    0.8300    0.8400    0.8500    0.8600    0.8700
0.8800    0.8900    0.9000    0.9100    0.9200    0.9300    0.9400    0.9500
0.9600    0.9700    0.9800    0.9900    1.0000    1.0100    1.0200    1.0300
1.0400    1.0500    1.0600    1.0700    1.0800    1.0900    1.1000    1.1100
1.1200    1.1300    1.1400    1.1500    1.1600    1.1700    1.1800    1.1900
1.2000    1.2100    1.2200    1.2300    1.2400    1.2500    1.2600    1.2700
1.2800    1.2900    1.3000    1.3100    1.3200    1.3300    1.3400    1.3500
1.3600    1.3700    1.3800    1.3900    1.4000    1.4100    1.4200    1.4300
1.4400    1.4500    1.4600    1.4700    1.4800    1.4900    1.5000    1.5100
1.5200    1.5300    1.5400    1.5500    1.5600    1.5700    1.5800    1.5900
1.6000    1.6100    1.6200    1.6300    1.6400    1.6500    1.6600    1.6700
1.6800    1.6900    1.7000    1.7100    1.7200    1.7300    1.7400    1.7500
1.7600    1.7700    1.7800    1.7900    1.8000    1.8100    1.8200    1.8300
1.8400    1.8500    1.8600    1.8700    1.8800    1.8900    1.9000    1.9100
1.9200    1.9300    1.9400    1.9500    1.9600    1.9700    1.9800    1.9900
2.0000    2.0100    2.0200    2.0300    2.0400    2.0500    2.0600    2.0700
2.0800    2.0900    2.1000    2.1100    2.1200    2.1300    2.1400    2.1500
2.1600    2.1700    2.1800    2.1900    2.2000    2.2100    2.2200    2.2300
2.2400    2.2500    2.2600    2.2700    2.2800    2.2900    2.3000    2.3100
2.3200    2.3300    2.3400    2.3500    2.3600    2.3700    2.3800    2.3900
2.4000    2.4100    2.4200    2.4300    2.4400    2.4500    2.4600    2.4700
2.4800    2.4900    2.5000    2.5100    2.5200    2.5300    2.5400    2.5500
2.5600    2.5700    2.5800    2.5900    2.6000    2.6100    2.6200    2.6300
2.6400    2.6500    2.6600    2.6700    2.6800    2.6900    2.7000    2.7100
2.7200    2.7300    2.7400    2.7500    2.7600    2.7700    2.7800    2.7900
2.8000    2.8100    2.8200    2.8300    2.8400    2.8500    2.8600    2.8700
2.8800    2.8900    2.9000    2.9100    2.9200    2.9300    2.9400    2.9500
2.9600    2.9700    2.9800    2.9900    3.0000    3.0100    3.0200    3.0300
3.0400    3.0500    3.0600    3.0700    3.0800    3.0900    3.1000    3.1100
3.1200    3.1300    3.1400    3.1500    3.1600    3.1700    3.1800    3.1900
3.2000    3.2100    3.2200    3.2300    3.2400    3.2500    3.2600    3.2700
3.2800    3.2900    3.3000    3.3100    3.3200    3.3300    3.3400    3.3500
3.3600    3.3700    3.3800    3.3900    3.4000    3.4100    3.4200    3.4300
3.4400    3.4500    3.4600    3.4700    3.4800    3.4900    3.5000    3.5100
3.5200    3.5300    3.5400    3.5500    3.5600    3.5700    3.5800    3.5900
3.6000    3.6100    3.6200    3.6300    3.6400    3.6500    3.6600    3.6700
3.6800    3.6900    3.7000    3.7100    3.7200    3.7300    3.7400    3.7500
3.7600    3.7700    3.7800    3.7900    3.8000    3.8100    3.8200    3.8300
3.8400    3.8500    3.8600    3.8700    3.8800    3.8900    3.9000    3.9100
3.9200    3.9300    3.9400    3.9500    3.9600    3.9700    3.9800    3.9900
4.0000    4.0100    4.0200    4.0300    4.0400    4.0500    4.0600    4.0700
4.0800    4.0900    4.1000    4.1100    4.1200    4.1300    4.1400    4.1500
4.1600    4.1700    4.1800    4.1900    4.2000    4.2100    4.2200    4.2300
4.2400    4.2500    4.2600    4.2700    4.2800    4.2900    4.3000    4.3100
4.3200    4.3300    4.3400    4.3500    4.3600    4.3700    4.3800    4.3900
4.4000    4.4100    4.4200    4.4300    4.4400    4.4500    4.4600    4.4700
4.4800    4.4900    4.5000    4.5100    4.5200    4.5300    4.5400    4.5500
4.5600    4.5700    4.5800    4.5900    4.6000    4.6100    4.6200    4.6300
4.6400    4.6500    4.6600    4.6700    4.6800    4.6900    4.7000    4.7100
4.7200    4.7300    4.7400    4.7500    4.7600    4.7700    4.7800    4.7900
4.8000    4.8100    4.8200    4.8300    4.8400    4.8500    4.8600    4.8700
4.8800    4.8900    4.9000    4.9100    4.9200    4.9300    4.9400    4.9500
4.9600    4.9700    4.9800    4.9900    5.0000    5.0100    5.0200    5.0300
5.0400    5.0500    5.0600    5.0700    5.0800    5.0900    5.1000    5.1100
5.1200    5.1300    5.1400    5.1500    5.1600    5.1700    5.1800    5.1900
5.2000    5.2100    5.2200    5.2300    5.2400    5.2500    5.2600    5.2700
5.2800    5.2900    5.3000    5.3100    5.3200    5.3300    5.3400    5.3500
5.3600    5.3700    5.3800    5.3900    5.4000    5.4100    5.4200    5.4300
5.4400    5.4500    5.4600    5.4700    5.4800    5.4900    5.5000    5.5100
5.5200    5.5300    5.5400    5.5500    5.5600    5.5700    5.5800    5.5900
5.6000    5.6100    5.6200    5.6300    5.6400    5.6500    5.6600    5.6700
5.6800    5.6900    5.7000    5.7100    5.7200    5.7300    5.7400    5.7500
5.7600    5.7700    5.7800    5.7900    5.8000    5.8100    5.8200    5.8300
5.8400    5.8500    5.8600    5.8700    5.8800    5.8900    5.9000    5.9100
5.9200    5.9300    5.9400    5.9500    5.9600    5.9700    5.9800    5.9900
6.0000    6.0100    6.0200    6.0300    6.0400    6.0500    6.0600    6.0700
6.0800    6.0900    6.1000    6.1100    6.1200    6.1300    6.1400    6.1500
6.1600    6.1700    6.1800    6.1900    6.2000    6.2100    6.2200    6.2300
6.2400    6.2500    6.2600    6.2700    6.2800    6.2900    6.3000    6.3100
6.3200    6.3300    6.3400    6.3500    6.3600    6.3700    6.3800    6.3900
6.4000    6.4100    6.4200    6.4300    6.4400    6.4500    6.4600    6.4700
6.4800    6.4900    6.5000    6.5100    6.5200    6.5300    6.5400    6.5500
6.5600    6.5700    6.5800    6.5900    6.6000    6.6100    6.6200    6.6300
6.6400    6.6500    6.6600    6.6700    6.6800    6.6900    6.7000    6.7100
6.7200    6.7300    6.7400    6.7500    6.7600    6.7700    6.7800    6.7900
6.8000    6.8100    6.8200    6.8300    6.8400    6.8500    6.8600    6.8700
6.8800    6.8900    6.9000    6.9100    6.9200    6.9300    6.9400    6.9500
6.9600    6.9700    6.9800    6.9900    7.0000    7.0100    7.0200    7.0300
7.0400    7.0500    7.0600    7.0700    7.0800    7.0900    7.1000    7.1100
7.1200    7.1300    7.1400    7.1500    7.1600    7.1700    7.1800    7.1900
7.2000    7.2100    7.2200    7.2300    7.2400    7.2500    7.2600    7.2700
7.2800    7.2900    7.3000    7.3100    7.3200    7.3300    7.3400    7.3500
7.3600    7.3700    7.3800    7.3900    7.4000    7.4100    7.4200    7.4300
7.4400    7.4500    7.4600    7.4700    7.4800    7.4900    7.5000    7.5100
7.5200    7.5300    7.5400    7.5500    7.5600    7.5700    7.5800    7.5900
7.6000    7.6100    7.6200    7.6300    7.6400    7.6500    7.6600    7.6700
7.6800    7.6900    7.7000    7.7100    7.7200    7.7300    7.7400    7.7500
7.7600    7.7700    7.7800    7.7900    7.8000    7.8100    7.8200    7.8300
7.8400    7.8500    7.8600    7.8700    7.8800    7.8900    7.9000    7.9100
7.9200    7.9300    7.9400    7.9500    7.9600    7.9700    7.9800    7.9900
8.0000    8.0100    8.0200    8.0300    8.0400    8.0500    8.0600    8.0700
8.0800    8.0900    8.1000    8.1100    8.1200    8.1300    8.1400    8.1500
8.1600    8.1700    8.1800    8.1900    8.2000    8.2100    8.2200    8.2300
8.2400    8.2500    8.2600    8.2700    8.2800    8.2900    8.3000    8.3100
</PP_R>
<PP_RAB type="real"  size=" 832" columns="8">
0.0100    0.0100    0.0100    0.0100    0.0100    0.0100    0.0100    0.0100
0.0100    0.0100    0.0100    0.0100    0.0100    0.0100    0.0100    0.0100
0.0100    0.0100    0.0100    0.0100    0.0100    0.0100    0.0100    0.0100
0.0100    0.0100    0.0100    0.0100    0.0100    0.0100    0.0100    0.0100
0.0100    0.0100    0.0100    0.0100    0.0100    0.0100    0.0100    0.0100
0.0100    0.0100    0.0100    0.0100    0.0100    0.0100    0.0100    0.0100
0.0100    0.0100    0.0100    0.0100    0.0100    0.0100    0.0100    0.0100
0.0100    0.0100    0.0100    0.0100    0.0100    0.0100    0.0100    0.0100
0.0100    0.0100    0.0100    0.0100    0.0100    0.0100    0.0100    0.0100
0.0100    0.0100    0.0100    0.0100    0.0100    0.0100    0.0100    0.0100
0.0100    0.0100    0.0100    0.0100    0.0100    0.0100    0.0100    0.0100
0.0100    0.0100    0.0100    0.0100    0.0100    0.0100    0.0100    0.0100
0.0100    0.0100    0.0100    0.0100    0.0100    0.0100    0.0100    0.0100
0.0100    0.0100    0.0100    0.0100    0.0100    0.0100    0.0100    0.0100
0.0100    0.0100    0.0100    0.0100    0.0100    0.0100    0.0100    0.0100
0.0100    0.0100    0.0100    0.0100    0.0100    0.0100    0.0100    0.0100
0.0100    0.0100    0.0100    0.0100    0.0100    0.0100    0.0100    0.0100
0.0100    0.0100    0.0100    0.0100    0.0100    0.0100    0.0100    0.0100
0.0100    0.0100    0.0100    0.0100    0.0100    0.0100    0.0100    0.0100
0.0100    0.0100    0.0100    0.0100    0.0100    0.0100    0.0100    0.0100
0.0100    0.0100    0.0100    0.0100    0.0100    0.0100    0.0100    0.0100
0.0100    0.0100    0.0100    0.0100    0.0100    0.0100    0.0100    0.0100
0.0100    0.0100    0.0100    0.0100    0.0100    0.0100    0.0100    0.0100
0.0100    0.0100    0.0100    0.0100    0.0100    0.0100    0.0100    0.0100
0.0100    0.0100    0.0100    0.0100    0.0100    0.0100    0.0100    0.0100
0.0100    0.0100    0.0100    0.0100    0.0100    0.0100    0.0100    0.0100
0.0100    0.0100    0.0100    0.0100    0.0100    0.0100    0.0100    0.0100
0.0100    0.0100    0.0100    0.0100    0.0100    0.0100    0.0100    0.0100
0.0100    0.0100    0.0100    0.0100    0.0100    0.0100    0.0100    0.0100
0.0100    0.0100    0.0100    0.0100    0.0100    0.0100    0.0100    0.0100
0.0100    0.0100    0.0100    0.0100    0.0100    0.0100    0.0100    0.0100
0.0100    0.0100    0.0100    0.0100    0.0100    0.0100    0.0100    0.0100
0.0100    0.0100    0.0100    0.0100    0.0100    0.0100    0.0100    0.0100
0.0100    0.0100    0.0100    0.0100    0.0100    0.0100    0.0100    0.0100
0.0100    0.0100    0.0100    0.0100    0.0100    0.0100    0.0100    0.0100
0.0100    0.0100    0.0100    0.0100    0.0100    0.0100    0.0100    0.0100
0.0100    0.0100    0.0100    0.0100    0.0100    0.0100    0.0100    0.0100
0.0100    0.0100    0.0100    0.0100    0.0100    0.0100    0.0100    0.0100
0.0100    0.0100    0.0100    0.0100    0.0100    0.0100    0.0100    0.0100
0.0100    0.0100    0.0100    0.0100    0.0100    0.0100    0.0100    0.0100
0.0100    0.0100    0.0100    0.0100    0.0100    0.0100    0.0100    0.0100
0.0100    0.0100    0.0100    0.0100    0.0100    0.0100    0.0100    0.0100
0.0100    0.0100    0.0100    0.0100    0.0100    0.0100    0.0100    0.0100
0.0100    0.0100    0.0100    0.0100    0.0100    0.0100    0.0100    0.0100
0.0100    0.0100    0.0100    0.0100    0.0100    0.0100    0.0100    0.0100
0.0100    0.0100    0.0100    0.0100    0.0100    0.0100    0.0100    0.0100
0.0100    0.0100    0.0100    0.0100    0.0100    0.0100    0.0100    0.0100
0.0100    0.0100    0.0100    0.0100    0.0100    0.0100    0.0100    0.0100
0.0100    0.0100    0.0100    0.0100    0.0100    0.0100    0.0100    0.0100
0.0100    0.0100    0.0100    0.0100    0.0100    0.0100    0.0100    0.0100
0.0100    0.0100    0.0100    0.0100    0.0100    0.0100    0.0100    0.0100
0.0100    0.0100    0.0100    0.0100    0.0100    0.0100    0.0100    0.0100
0.0100    0.0100    0.0100    0.0100    0.0100    0.0100    0.0100    0.0100
0.0100    0.0100    0.0100    0.0100    0.0100    0.0100    0.0100    0.0100
0.0100    0.0100    0.0100    0.0100    0.0100    0.0100    0.0100    0.0100
0.0100    0.0100    0.0100    0.0100    0.0100    0.0100    0.0100    0.0100
0.0100    0.0100    0.0100    0.0100    0.0100    0.0100    0.0100    0.0100
0.0100    0.0100    0.0100    0.0100    0.0100    0.0100    0.0100    0.0100
0.0100    0.0100    0.0100    0.0100    0.0100    0.0100    0.0100    0.0100
0.0100    0.0100    0.0100    0.0100    0.0100    0.0100    0.0100    0.0100
0.0100    0.0100    0.0100    0.0100    0.0100    0.0100    0.0100    0.0100
0.0100    0.0100    0.0100    0.0100    0.0100    0.0100    0.0100    0.0100
0.0100    0.0100    0.0100    0.0100    0.0100    0.0100    0.0100    0.0100
0.0100    0.0100    0.0100    0.0100    0.0100    0.0100    0.0100    0.0100
0.0100    0.0100    0.0100    0.0100    0.0100    0.0100    0.0100    0.0100
0.0100    0.0100    0.0100    0.0100    0.0100    0.0100    0.0100    0.0100
0.0100    0.0100    0.0100    0.0100    0.0100    0.0100    0.0100    0.0100
0.0100    0.0100    0.0100    0.0100    0.0100    0.0100    0.0100    0.0100
0.0100    0.0100    0.0100    0.0100    0.0100    0.0100    0.0100    0.0100
0.0100    0.0100    0.0100    0.0100    0.0100    0.0100    0.0100    0.0100
0.0100    0.0100    0.0100    0.0100    0.0100    0.0100    0.0100    0.0100
0.0100    0.0100    0.0100    0.0100    0.0100    0.0100    0.0100    0.0100
0.0100    0.0100    0.0100    0.0100    0.0100    0.0100    0.0100    0.0100
0.0100    0.0100    0.0100    0.0100    0.0100    0.0100    0.0100    0.0100
0.0100    0.0100    0.0100    0.0100    0.0100    0.0100    0.0100    0.0100
0.0100    0.0100    0.0100    0.0100    0.0100    0.0100    0.0100    0.0100
0.0100    0.0100    0.0100    0.0100    0.0100    0.0100    0.0100    0.0100
0.0100    0.0100    0.0100    0.0100    0.0100    0.0100    0.0100    0.0100
0.0100    0.0100    0.0100    0.0100    0.0100    0.0100    0.0100    0.0100
0.0100    0.0100    0.0100    0.0100    0.0100    0.0100    0.0100    0.0100
0.0100    0.0100    0.0100    0.0100    0.0100    0.0100    0.0100    0.0100
0.0100    0.0100    0.0100    0.0100    0.0100    0.0100    0.0100    0.0100
0.0100    0.0100    0.0100    0.0100    0.0100    0.0100    0.0100    0.0100
0.0100    0.0100    0.0100    0.0100    0.0100    0.0100    0.0100    0.0100
0.0100    0.0100    0.0100    0.0100    0.0100    0.0100    0.0100    0.0100
0.0100    0.0100    0.0100    0.0100    0.0100    0.0100    0.0100    0.0100
0.0100    0.0100    0.0100    0.0100    0.0100    0.0100    0.0100    0.0100
0.0100    0.0100    0.0100    0.0100    0.0100    0.0100    0.0100    0.0100
0.0100    0.0100    0.0100    0.0100    0.0100    0.0100    0.0100    0.0100
0.0100    0.0100    0.0100    0.0100    0.0100    0.0100    0.0100    0.0100
0.0100    0.0100    0.0100    0.0100    0.0100    0.0100    0.0100    0.0100
0.0100    0.0100    0.0100    0.0100    0.0100    0.0100    0.0100    0.0100
0.0100    0.0100    0.0100    0.0100    0.0100    0.0100    0.0100    0.0100
0.0100    0.0100    0.0100    0.0100    0.0100    0.0100    0.0100    0.0100
0.0100    0.0100    0.0100    0.0100    0.0100    0.0100    0.0100    0.0100
0.0100    0.0100    0.0100    0.0100    0.0100    0.0100    0.0100    0.0100
0.0100    0.0100    0.0100    0.0100    0.0100    0.0100    0.0100    0.0100
0.0100    0.0100    0.0100    0.0100    0.0100    0.0100    0.0100    0.0100
0.0100    0.0100    0.0100    0.0100    0.0100    0.0100    0.0100    0.0100
0.0100    0.0100    0.0100    0.0100    0.0100    0.0100    0.0100    0.0100
0.0100    0.0100    0.0100    0.0100    0.0100    0.0100    0.0100    0.0100
0.0100    0.0100    0.0100    0.0100    0.0100    0.0100    0.0100    0.0100
0.0100    0.0100    0.0100    0.0100    0.0100    0.0100    0.0100    0.0100
0.0100    0.0100    0.0100    0.0100    0.0100    0.0100    0.0100    0.0100
</PP_RAB>
</PP_MESH>
<PP_LOCAL type="real"  size=" 832" columns="4">
-3.0447950659E+01   -3.0445091172E+01   -3.0436519014E+01   -3.0422253008E+01
-3.0402323742E+01   -3.0376772492E+01   -3.0345649781E+01   -3.0309013696E+01
-3.0266928033E+01   -3.0219460387E+01   -3.0166680272E+01   -3.0108657355E+01
-3.0045459877E+01   -2.9977153312E+01   -2.9903799288E+01   -2.9825454795E+01
-2.9742171671E+01   -2.9653996365E+01   -2.9560969934E+01   -2.9463128267E+01
-2.9360502486E+01   -2.9253119500E+01   -2.9141002677E+01   -2.9024172604E+01
-2.8902647910E+01   -2.8776446123E+01   -2.8645584551E+01   -2.8510081169E+01
-2.8369955488E+01   -2.8225229419E+01   -2.8075928101E+01   -2.7922080709E+01
-2.7763721212E+01   -2.7600889109E+01   -2.7433630102E+01   -2.7261996739E+01
-2.7086048990E+01   -2.6905854776E+01   -2.6721490432E+01   -2.6533041097E+01
-2.6340601035E+01   -2.6144273879E+01   -2.5944172777E+01   -2.5740420462E+01
-2.5533149223E+01   -2.5322500779E+01   -2.5108626072E+01   -2.4891684955E+01
-2.4671845817E+01   -2.4449285115E+01   -2.4224186853E+01   -2.3996742007E+01
-2.3767147904E+01   -2.3535607577E+01   -2.3302329103E+01   -2.3067524927E+01
-2.2831411191E+01   -2.2594207065E+01   -2.2356134087E+01   -2.2117415504E+01
-2.1878275629E+01   -2.1638939187E+01   -2.1399630667E+01   -2.1160573667E+01
-2.0921990219E+01   -2.0684100112E+01   -2.0447120189E+01   -2.0211263632E+01
-1.9976739240E+01   -1.9743750688E+01   -1.9512495795E+01   -1.9283165787E+01
-1.9055944586E+01   -1.8831008114E+01   -1.8608523627E+01   -1.8388649098E+01
-1.8171532637E+01   -1.7957311968E+01   -1.7746113963E+01   -1.7538054230E+01
-1.7333236760E+01   -1.7131753638E+01   -1.6933684799E+01   -1.6739097842E+01
-1.6548047892E+01   -1.6360577489E+01   -1.6176716535E+01   -1.5996482244E+01
-1.5819879132E+01   -1.5646899013E+01   -1.5477521009E+01   -1.5311711555E+01
-1.5149424405E+01   -1.4990600630E+01   -1.4835168598E+01   -1.4683043989E+01
-1.4534129552E+01   -1.4388315925E+01   -1.4245489329E+01   -1.4105539389E+01
-1.3968360475E+01   -1.3833851350E+01   -1.3701915233E+01   -1.3572459737E+01
-1.3445396803E+01   -1.3320642609E+01   -1.3198117474E+01   -1.3077745741E+01
-1.2959455659E+01   -1.2843179251E+01   -1.2728852177E+01   -1.2616413601E+01
-1.2505806047E+01   -1.2396975266E+01   -1.2289870101E+01   -1.2184442355E+01
-1.2080646666E+01   -1.1978440395E+01   -1.1877783504E+01   -1.1778638458E+01
-1.1680970116E+01   -1.1584745643E+01   -1.1489934409E+01   -1.1396507903E+01
-1.1304439638E+01   -1.1213705058E+01   -1.1124281454E+01   -1.1036147891E+01
-1.0949284940E+01   -1.0863674614E+01   -1.0779300629E+01   -1.0696151301E+01
-1.0614220502E+01   -1.0533509315E+01   -1.0454010712E+01   -1.0375707505E+01
-1.0298586548E+01   -1.0222635242E+01   -1.0147839616E+01   -1.0074185227E+01
-1.0001656872E+01   -9.9302381256E+00   -9.8599119223E+00   -9.7906600248E+00
-9.7224637346E+00   -9.6552988965E+00   -9.5891295262E+00   -9.5239069427E+00
-9.4595691255E+00   -9.3960802911E+00   -9.3334362740E+00   -9.2716239948E+00
-9.2106233913E+00   -9.1504190211E+00   -9.0909959478E+00   -9.0323392188E+00
-8.9744343037E+00   -8.9172670529E+00   -8.8608236493E+00   -8.8050905957E+00
-8.7500547012E+00   -8.6957030691E+00   -8.6420230860E+00   -8.5890024143E+00
-8.5366289852E+00   -8.4848909943E+00   -8.4337768973E+00   -8.3832754077E+00
-8.3333754943E+00   -8.2840663793E+00   -8.2353375359E+00   -8.1871786866E+00
-8.1395797999E+00   -8.0925310874E+00   -8.0460229994E+00   -8.0000462205E+00
-7.9545916633E+00   -7.9096504620E+00   -7.8652139677E+00   -7.8212737390E+00
-7.7778215329E+00   -7.7348493010E+00   -7.6923491669E+00   -7.6503134021E+00
-7.6087344874E+00   -7.5676052287E+00   -7.5269185615E+00   -7.4866672568E+00
-7.4468441706E+00   -7.4074424546E+00   -7.3684554891E+00   -7.3298767792E+00
-7.2916999369E+00   -7.2539187136E+00   -7.2165269927E+00   -7.1795187810E+00
-7.1428882085E+00   -7.1066295243E+00   -7.0707370937E+00   -7.0352053952E+00
-7.0000290176E+00   -6.9652026577E+00   -6.9307211171E+00   -6.8965792999E+00
-6.8627722100E+00   -6.8292949490E+00   -6.7961427135E+00   -6.7633107929E+00
-6.7307945673E+00   -6.6985895051E+00   -6.6666911610E+00   -6.6350951742E+00
-6.6037972660E+00   -6.5727932380E+00   -6.5420789704E+00   -6.5116504201E+00
-6.4815036186E+00   -6.4516346709E+00   -6.4220397533E+00   -6.3927151118E+00
-6.3636570610E+00   -6.3348619819E+00   -6.3063263208E+00   -6.2780465879E+00
-6.2500193555E+00   -6.2222412569E+00   -6.1947089851E+00   -6.1674192911E+00
-6.1403689832E+00   -6.1135549254E+00   -6.0869740362E+00   -6.0606232875E+00
-6.0344997033E+00   -6.0086003584E+00   -5.9829223781E+00   -5.9574629366E+00
-5.9322192559E+00   -5.9071886049E+00   -5.8823682982E+00   -5.8577556956E+00
-5.8333482007E+00   -5.8091432603E+00   -5.7851383634E+00   -5.7613310405E+00
-5.7377188622E+00   -5.7142994391E+00   -5.6910704204E+00   -5.6680294936E+00
-5.6451743834E+00   -5.6225028511E+00   -5.6000126936E+00   -5.5777017431E+00
-5.5555678663E+00   -5.5336089634E+00   -5.5118229678E+00   -5.4902078453E+00
-5.4687615935E+00   -5.4474822411E+00   -5.4263678474E+00   -5.4054165017E+00
-5.3846263227E+00   -5.3639954578E+00   -5.3435220828E+00   -5.3232044013E+00
-5.3030406440E+00   -5.2830290684E+00   -5.2631679581E+00   -5.2434556224E+00
-5.2238903960E+00   -5.2044706382E+00   -5.1851947327E+00   -5.1660610870E+00
-5.1470681321E+00   -5.1282143218E+00   -5.1094981327E+00   -5.0909180635E+00
-5.0724726345E+00   -5.0541603875E+00   -5.0359798853E+00   -5.0179297113E+00
-5.0000084691E+00   -4.9822147821E+00   -4.9645472933E+00   -4.9470046650E+00
-4.9295855782E+00   -4.9122887323E+00   -4.8951128452E+00   -4.8780566524E+00
-4.8611189071E+00   -4.8442983797E+00   -4.8275938576E+00   -4.8110041448E+00
-4.7945280617E+00   -4.7781644450E+00   -4.7619121468E+00   -4.7457700352E+00
-4.7297369934E+00   -4.7138119196E+00   -4.6979937268E+00   -4.6822813428E+00
-4.6666737092E+00   -4.6511697822E+00   -4.6357685314E+00   -4.6204689403E+00
-4.6052700056E+00   -4.5901707371E+00   -4.5751701579E+00   -4.5602673034E+00
-4.5454612217E+00   -4.5307509733E+00   -4.5161356308E+00   -4.5016142785E+00
-4.4871860129E+00   -4.4728499415E+00   -4.4586051836E+00   -4.4444508694E+00
-4.4303861404E+00   -4.4164101486E+00   -4.4025220569E+00   -4.3887210386E+00
-4.3750062775E+00   -4.3613769672E+00   -4.3478323118E+00   -4.3343715248E+00
-4.3209938297E+00   -4.3076984595E+00   -4.2944846566E+00   -4.2813516726E+00
-4.2682987682E+00   -4.2553252134E+00   -4.2424302866E+00   -4.2296132753E+00
-4.2168734753E+00   -4.2042101910E+00   -4.1916227352E+00   -4.1791104288E+00
-4.1666726007E+00   -4.1543085879E+00   -4.1420177353E+00   -4.1297993955E+00
-4.1176529284E+00   -4.1055777020E+00   -4.0935730911E+00   -4.0816384782E+00
-4.0697732527E+00   -4.0579768114E+00   -4.0462485578E+00   -4.0345879024E+00
-4.0229942623E+00   -4.0114670616E+00   -4.0000057308E+00   -3.9886097068E+00
-3.9772784330E+00   -3.9660113591E+00   -3.9548079411E+00   -3.9436676410E+00
-3.9325899269E+00   -3.9215742728E+00   -3.9106201588E+00   -3.8997270704E+00
-3.8888944993E+00   -3.8781219423E+00   -3.8674089023E+00   -3.8567548872E+00
-3.8461594106E+00   -3.8356219914E+00   -3.8251421537E+00   -3.8147194267E+00
-3.8043533449E+00   -3.7940434478E+00   -3.7837892798E+00   -3.7735903902E+00
-3.7634463333E+00   -3.7533566680E+00   -3.7433209580E+00   -3.7333387717E+00
-3.7234096820E+00   -3.7135332664E+00   -3.7037091069E+00   -3.6939367897E+00
-3.6842159057E+00   -3.6745460498E+00   -3.6649268213E+00   -3.6553578236E+00
-3.6458386643E+00   -3.6363689550E+00   -3.6269483114E+00   -3.6175763531E+00
-3.6082527037E+00   -3.5989769907E+00   -3.5897488453E+00   -3.5805679025E+00
-3.5714338011E+00   -3.5623461835E+00   -3.5533046958E+00   -3.5443089876E+00
-3.5353587120E+00   -3.5264535259E+00   -3.5175930893E+00   -3.5087770657E+00
-3.5000051220E+00   -3.4912769285E+00   -3.4825921587E+00   -3.4739504893E+00
-3.4653516003E+00   -3.4567951748E+00   -3.4482808989E+00   -3.4398084621E+00
-3.4313775567E+00   -3.4229878780E+00   -3.4146391244E+00   -3.4063309972E+00
-3.3980632005E+00   -3.3898354414E+00   -3.3816474297E+00   -3.3734988782E+00
-3.3653895023E+00   -3.3573190200E+00   -3.3492871524E+00   -3.3412936229E+00
-3.3333381576E+00   -3.3254204853E+00   -3.3175403374E+00   -3.3096974478E+00
-3.3018915527E+00   -3.2941223911E+00   -3.2863897043E+00   -3.2786932360E+00
-3.2710327323E+00   -3.2634079419E+00   -3.2558186154E+00   -3.2482645060E+00
-3.2407453693E+00   -3.2332609628E+00   -3.2258110465E+00   -3.2183953826E+00
-3.2110137354E+00   -3.2036658713E+00   -3.1963515590E+00   -3.1890705691E+00
-3.1818226745E+00   -3.1746076501E+00   -3.1674252727E+00   -3.1602753213E+00
-3.1531575767E+00   -3.1460718219E+00   -3.1390178416E+00   -3.1319954227E+00
-3.1250043538E+00   -3.1180444253E+00   -3.1111154298E+00   -3.1042171613E+00
-3.0973494161E+00   -3.0905119920E+00   -3.0837046886E+00   -3.0769273073E+00
-3.0701796512E+00   -3.0634615253E+00   -3.0567727361E+00   -3.0501130918E+00
-3.0434824024E+00   -3.0368804795E+00   -3.0303071363E+00   -3.0237621875E+00
-3.0172454496E+00   -3.0107567407E+00   -3.0042958801E+00   -2.9978626892E+00
-2.9914569904E+00   -2.9850786080E+00   -2.9787273676E+00   -2.9724030962E+00
-2.9661056226E+00   -2.9598347766E+00   -2.9535903899E+00   -2.9473722953E+00
-2.9411803270E+00   -2.9350143208E+00   -2.9288741138E+00   -2.9227595443E+00
-2.9166704521E+00   -2.9106066783E+00   -2.9045680654E+00   -2.8985544570E+00
-2.8925656982E+00   -2.8866016352E+00   -2.8806621157E+00   -2.8747469884E+00
-2.8688561034E+00   -2.8629893119E+00   -2.8571464665E+00   -2.8513274208E+00
-2.8455320297E+00   -2.8397601493E+00   -2.8340116368E+00   -2.8282863506E+00
-2.8225841502E+00   -2.8169048962E+00   -2.8112484505E+00   -2.8056146758E+00
-2.8000034362E+00   -2.7944145968E+00   -2.7888480236E+00   -2.7833035838E+00
-2.7777811458E+00   -2.7722805788E+00   -2.7668017532E+00   -2.7613445402E+00
-2.7559088123E+00   -2.7504944429E+00   -2.7451013062E+00   -2.7397292777E+00
-2.7343782337E+00   -2.7290480515E+00   -2.7237386092E+00   -2.7184497861E+00
-2.7131814623E+00   -2.7079335188E+00   -2.7027058377E+00   -2.6974983018E+00
-2.6923107948E+00   -2.6871432015E+00   -2.6819954074E+00   -2.6768672989E+00
-2.6717587633E+00   -2.6666696888E+00   -2.6615999644E+00   -2.6565494800E+00
-2.6515181261E+00   -2.6465057944E+00   -2.6415123772E+00   -2.6365377675E+00
-2.6315818594E+00   -2.6266445476E+00   -2.6217257275E+00   -2.6168252956E+00
-2.6119431489E+00   -2.6070791852E+00   -2.6022333031E+00   -2.5974054021E+00
-2.5925953822E+00   -2.5878031443E+00   -2.5830285898E+00   -2.5782716213E+00
-2.5735321416E+00   -2.5688100545E+00   -2.5641052644E+00   -2.5594176765E+00
-2.5547471965E+00   -2.5500937311E+00   -2.5454571874E+00   -2.5408374732E+00
-2.5362344972E+00   -2.5316481684E+00   -2.5270783969E+00   -2.5225250929E+00
-2.5179881678E+00   -2.5134675332E+00   -2.5089631017E+00   -2.5044747862E+00
-2.5000025004E+00   -2.4955461586E+00   -2.4911056757E+00   -2.4866809671E+00
-2.4822719490E+00   -2.4778785381E+00   -2.4735006516E+00   -2.4691382075E+00
-2.4647911240E+00   -2.4604593203E+00   -2.4561427159E+00   -2.4518412310E+00
-2.4475547863E+00   -2.4432833029E+00   -2.4390267029E+00   -2.4347849084E+00
-2.4305578423E+00   -2.4263454282E+00   -2.4221475899E+00   -2.4179642520E+00
-2.4137953393E+00   -2.4096407775E+00   -2.4055004926E+00   -2.4013744110E+00
-2.3972624599E+00   -2.3931645667E+00   -2.3890806596E+00   -2.3850106670E+00
-2.3809545179E+00   -2.3769121418E+00   -2.3728834688E+00   -2.3688684291E+00
-2.3648669538E+00   -2.3608789742E+00   -2.3569044222E+00   -2.3529432300E+00
-2.3489953305E+00   -2.3450606567E+00   -2.3411391425E+00   -2.3372307218E+00
-2.3333353291E+00   -2.3294528996E+00   -2.3255833684E+00   -2.3217266716E+00