                                                                                      
                                       ``:oss/                                        
                           `.+s+.     .+ys--yh+     `./ss+.                           
                          -sh//yy+`   +yy   +yy    -+h+-oyy                           
                          -yh- .oyy/.-sh.   .syo-.:sy-  /yh                           
                 `.-.`    `yh+   -oyyyo.     `/syys:    oys      `.`                  
               `/+ssys+-` `sh+      `                   oys`   .:osyo`                
               -yh- ./syyooyo`                          .sys+/oyo--yh/                
               `yy+    .-:-.                             `-/+/:`  -sh-                
                /yh.                                              oys                 
          ``..---hho---------`   .---------..`      `.-----.`    -hd+---.             
       `./osmNMMMMMMMMMMMMMMMs. +NNMMMMMMMMNNmh+.   yNMMMMMNm-  oNMMMMMNmo++:`        
       +sy--/sdMMMhyyyyyyyNMMh- .oyNMMmyyyyyhNMMm+` -yMMMdyyo:` .oyyNMMNhs+syy`       
       -yy/   /MMM+.`-+/``mMMy-   `mMMh:`````.dMMN:` `MMMy-`-dhhy```mMMy:``+hs        
        -yy+` /MMMo:-mMM+`-oo/.    mMMh:     `dMMN/`  dMMm:`dMMMMy..MMMo-.+yo`        
         .sys`/MMMMNNMMMs-         mMMmyooooymMMNo:   oMMM/sMMMMMM++MMN//oh:          
          `sh+/MMMhyyMMMs- `-`     mMMMMMMMMMNmy+-`   -MMMhMMMsmMMmdMMd/yy+           
    `-/+++oyy-/MMM+.`/hh/.`mNm:`   mMMd+/////:-.`      NMMMMMd/:NMMMMMy:/yyo/:.`      
   +os+//:-..-oMMMo:--:::-/MMMo. .-mMMd+---`           hMMMMN+. oMMMMMo. `-+osyso:`   
   syo     `mNMMMMMNNNNNNNNMMMo.oNNMMMMMNNNN:`         +MMMMs:`  dMMMN/`     ``:syo   
   /yh`     :syyyyyyyyyyyyyyyy+.`+syyyyyyyyo:`         .oyys:`   .oyys:`        +yh   
   -yh-        ````````````````    `````````              ``        ``          oys   
   -+h/------------------------::::::::://////++++++++++++++++++++++///////::::/yd:   
   shdddddddddddddddddddddddddddddhhhhhhhhyyyyyssssssssssssssssyyyyyyyhhhhhhhddddh`   
                                                                                      
  S. Ponce, E. R. Margine, C. Verdi, and F. Giustino,                                 
                                                Comput. Phys. Commun. 209, 116 (2016) 
                                                                                      

     Program EPW v.5.2.0 starts on 26Nov2019 at 19:17:35 

     This program is part of the open-source Quantum ESPRESSO suite
     for quantum simulation of materials; please cite
         "P. Giannozzi et al., J. Phys.:Condens. Matter 21 395502 (2009);
         "P. Giannozzi et al., J. Phys.:Condens. Matter 29 465901 (2017);
          URL http://www.quantum-espresso.org", 
     in publications or presentations arising from this work. More details at
     http://www.quantum-espresso.org/quote

     Parallel version (MPI), running on     1 processors

     MPI processes distributed on     1 nodes

     Reading xml data from directory:

     ./si.save/

     IMPORTANT: XC functional enforced from input :
     Exchange-correlation= PZ
                           (   1   1   0   0   0   0   0)
     Any further DFT definition will be discarded
     Please, verify this is what you really want


     G-vector sticks info
     --------------------
     sticks:   dense  smooth     PW     G-vecs:    dense   smooth      PW
     Sum         583     583    199                 9257     9257    1759

     Reading collected, re-writing distributed wavefunctions

     --                                                                         

     bravais-lattice index     =            2
     lattice parameter (a_0)   =      10.2620  a.u.
     unit-cell volume          =     270.1693 (a.u.)^3
     number of atoms/cell      =            2
     number of atomic types    =            1
     kinetic-energy cut-off    =      40.0000  Ry
     charge density cut-off    =     160.0000  Ry
     Exchange-correlation= PZ
                           (   1   1   0   0   0   0   0)


     celldm(1)=   10.26200  celldm(2)=    0.00000  celldm(3)=    0.00000
     celldm(4)=    0.00000  celldm(5)=    0.00000  celldm(6)=    0.00000

     crystal axes: (cart. coord. in units of a_0)
               a(1) = ( -0.5000  0.0000  0.5000 )  
               a(2) = (  0.0000  0.5000  0.5000 )  
               a(3) = ( -0.5000  0.5000  0.0000 )  

     reciprocal axes: (cart. coord. in units 2 pi/a_0)
               b(1) = ( -1.0000 -1.0000  1.0000 )  
               b(2) = (  1.0000  1.0000  1.0000 )  
               b(3) = ( -1.0000  1.0000 -1.0000 )  


     Atoms inside the unit cell: 

   Cartesian axes

     site n.  atom      mass           positions (a_0 units)
        1        Si  28.0855   tau( 1) = (    0.00000    0.00000    0.00000  )
        2        Si  28.0855   tau( 2) = (    0.25000    0.25000    0.25000  )

     49 Sym.Ops. (with q -> -q+G )


     G cutoff =  426.7999  (   9257 G-vectors)     FFT grid: ( 32, 32, 32)
     number of k points=   64
                       cart. coord. in units 2pi/a_0
        k(    1) = (   0.0000000   0.0000000   0.0000000), wk =   0.0312500
        k(    2) = (  -0.2500000   0.2500000  -0.2500000), wk =   0.0312500
        k(    3) = (  -0.5000000   0.5000000  -0.5000000), wk =   0.0312500
        k(    4) = (  -0.7500000   0.7500000  -0.7500000), wk =   0.0312500
        k(    5) = (   0.2500000   0.2500000   0.2500000), wk =   0.0312500
        k(    6) = (   0.0000000   0.5000000   0.0000000), wk =   0.0312500
        k(    7) = (  -0.2500000   0.7500000  -0.2500000), wk =   0.0312500
        k(    8) = (  -0.5000000   1.0000000  -0.5000000), wk =   0.0312500
        k(    9) = (   0.5000000   0.5000000   0.5000000), wk =   0.0312500
        k(   10) = (   0.2500000   0.7500000   0.2500000), wk =   0.0312500
        k(   11) = (   0.0000000   1.0000000   0.0000000), wk =   0.0312500
        k(   12) = (  -0.2500000   1.2500000  -0.2500000), wk =   0.0312500
        k(   13) = (   0.7500000   0.7500000   0.7500000), wk =   0.0312500
        k(   14) = (   0.5000000   1.0000000   0.5000000), wk =   0.0312500
        k(   15) = (   0.2500000   1.2500000   0.2500000), wk =   0.0312500
        k(   16) = (   0.0000000   1.5000000   0.0000000), wk =   0.0312500
        k(   17) = (  -0.2500000  -0.2500000   0.2500000), wk =   0.0312500
        k(   18) = (  -0.5000000   0.0000000   0.0000000), wk =   0.0312500
        k(   19) = (  -0.7500000   0.2500000  -0.2500000), wk =   0.0312500
        k(   20) = (  -1.0000000   0.5000000  -0.5000000), wk =   0.0312500
        k(   21) = (   0.0000000   0.0000000   0.5000000), wk =   0.0312500
        k(   22) = (  -0.2500000   0.2500000   0.2500000), wk =   0.0312500
        k(   23) = (  -0.5000000   0.5000000   0.0000000), wk =   0.0312500
        k(   24) = (  -0.7500000   0.7500000  -0.2500000), wk =   0.0312500
        k(   25) = (   0.2500000   0.2500000   0.7500000), wk =   0.0312500
        k(   26) = (   0.0000000   0.5000000   0.5000000), wk =   0.0312500
        k(   27) = (  -0.2500000   0.7500000   0.2500000), wk =   0.0312500
        k(   28) = (  -0.5000000   1.0000000   0.0000000), wk =   0.0312500
        k(   29) = (   0.5000000   0.5000000   1.0000000), wk =   0.0312500
        k(   30) = (   0.2500000   0.7500000   0.7500000), wk =   0.0312500
        k(   31) = (   0.0000000   1.0000000   0.5000000), wk =   0.0312500
        k(   32) = (  -0.2500000   1.2500000   0.2500000), wk =   0.0312500
        k(   33) = (  -0.5000000  -0.5000000   0.5000000), wk =   0.0312500
        k(   34) = (  -0.7500000  -0.2500000   0.2500000), wk =   0.0312500
        k(   35) = (  -1.0000000   0.0000000   0.0000000), wk =   0.0312500
        k(   36) = (  -1.2500000   0.2500000  -0.2500000), wk =   0.0312500
        k(   37) = (  -0.2500000  -0.2500000   0.7500000), wk =   0.0312500
        k(   38) = (  -0.5000000   0.0000000   0.5000000), wk =   0.0312500
        k(   39) = (  -0.7500000   0.2500000   0.2500000), wk =   0.0312500
        k(   40) = (  -1.0000000   0.5000000   0.0000000), wk =   0.0312500
        k(   41) = (   0.0000000   0.0000000   1.0000000), wk =   0.0312500
        k(   42) = (  -0.2500000   0.2500000   0.7500000), wk =   0.0312500
        k(   43) = (  -0.5000000   0.5000000   0.5000000), wk =   0.0312500
        k(   44) = (  -0.7500000   0.7500000   0.2500000), wk =   0.0312500
        k(   45) = (   0.2500000   0.2500000   1.2500000), wk =   0.0312500
        k(   46) = (   0.0000000   0.5000000   1.0000000), wk =   0.0312500
        k(   47) = (  -0.2500000   0.7500000   0.7500000), wk =   0.0312500
        k(   48) = (  -0.5000000   1.0000000   0.5000000), wk =   0.0312500
        k(   49) = (  -0.7500000  -0.7500000   0.7500000), wk =   0.0312500
        k(   50) = (  -1.0000000  -0.5000000   0.5000000), wk =   0.0312500
        k(   51) = (  -1.2500000  -0.2500000   0.2500000), wk =   0.0312500
        k(   52) = (  -1.5000000   0.0000000   0.0000000), wk =   0.0312500
        k(   53) = (  -0.5000000  -0.5000000   1.0000000), wk =   0.0312500
        k(   54) = (  -0.7500000  -0.2500000   0.7500000), wk =   0.0312500
        k(   55) = (  -1.0000000   0.0000000   0.5000000), wk =   0.0312500
        k(   56) = (  -1.2500000   0.2500000   0.2500000), wk =   0.0312500
        k(   57) = (  -0.2500000  -0.2500000   1.2500000), wk =   0.0312500
        k(   58) = (  -0.5000000   0.0000000   1.0000000), wk =   0.0312500
        k(   59) = (  -0.7500000   0.2500000   0.7500000), wk =   0.0312500
        k(   60) = (  -1.0000000   0.5000000   0.5000000), wk =   0.0312500
        k(   61) = (   0.0000000   0.0000000   1.5000000), wk =   0.0312500
        k(   62) = (  -0.2500000   0.2500000   1.2500000), wk =   0.0312500
        k(   63) = (  -0.5000000   0.5000000   1.0000000), wk =   0.0312500
        k(   64) = (  -0.7500000   0.7500000   0.7500000), wk =   0.0312500

     PseudoPot. # 1 for Si read from file:
     ../../pseudo/Si.pz-vbc.UPF
     MD5 check sum: 9f25e6ff280f3123e9b3a84715b2e9c9
     Pseudo is Norm-conserving, Zval =  4.0
     Generated by new atomic code, or converted to UPF format
     Using radial grid of  431 points,  2 beta functions with: 
                l(1) =   0
                l(2) =   1
     EPW          :      0.13s CPU      0.15s WALL

     EPW          :      0.23s CPU      0.26s WALL

     No wavefunction gauge setting applied
     -------------------------------------------------------------------
     Wannierization on  4 x  4 x  4 electronic grid
     -------------------------------------------------------------------

     Spin CASE ( default = unpolarized )

     Initializing Wannier90


     Initial Wannier auto_projections


      - Number of bands is ( 12)
      - Number of total bands is ( 12)
      - Number of excluded bands is (  0)
      - Number of wannier functions is (  8)

  Reading data about k-point neighbours 

      - All neighbours are found 

 Case  : erfc
 mu    =     10.000 eV
 sigma =     4.000 eV

     AMN with SCDM
      k points =    64 in    1 pools
            1 of   64 on ionode
            2 of   64 on ionode
            3 of   64 on ionode
            4 of   64 on ionode
            5 of   64 on ionode
            6 of   64 on ionode
            7 of   64 on ionode
            8 of   64 on ionode
            9 of   64 on ionode
           10 of   64 on ionode
           11 of   64 on ionode
           12 of   64 on ionode
           13 of   64 on ionode
           14 of   64 on ionode
           15 of   64 on ionode
           16 of   64 on ionode
           17 of   64 on ionode
           18 of   64 on ionode
           19 of   64 on ionode
           20 of   64 on ionode
           21 of   64 on ionode
           22 of   64 on ionode
           23 of   64 on ionode
           24 of   64 on ionode
           25 of   64 on ionode
           26 of   64 on ionode
           27 of   64 on ionode
           28 of   64 on ionode
           29 of   64 on ionode
           30 of   64 on ionode
           31 of   64 on ionode
           32 of   64 on ionode
           33 of   64 on ionode
           34 of   64 on ionode
           35 of   64 on ionode
           36 of   64 on ionode
           37 of   64 on ionode
           38 of   64 on ionode
           39 of   64 on ionode
           40 of   64 on ionode
           41 of   64 on ionode
           42 of   64 on ionode
           43 of   64 on ionode
           44 of   64 on ionode
           45 of   64 on ionode
           46 of   64 on ionode
           47 of   64 on ionode
           48 of   64 on ionode
           49 of   64 on ionode
           50 of   64 on ionode
           51 of   64 on ionode
           52 of   64 on ionode
           53 of   64 on ionode
           54 of   64 on ionode
           55 of   64 on ionode
           56 of   64 on ionode
           57 of   64 on ionode
           58 of   64 on ionode
           59 of   64 on ionode
           60 of   64 on ionode
           61 of   64 on ionode
           62 of   64 on ionode
           63 of   64 on ionode
           64 of   64 on ionode

     AMN calculated with SCDM

     MMN
      k points =    64 in    1 pools
            1 of   64 on ionode
            2 of   64 on ionode
            3 of   64 on ionode
            4 of   64 on ionode
            5 of   64 on ionode
            6 of   64 on ionode
            7 of   64 on ionode
            8 of   64 on ionode
            9 of   64 on ionode
           10 of   64 on ionode
           11 of   64 on ionode
           12 of   64 on ionode
           13 of   64 on ionode
           14 of   64 on ionode
           15 of   64 on ionode
           16 of   64 on ionode
           17 of   64 on ionode
           18 of   64 on ionode
           19 of   64 on ionode
           20 of   64 on ionode
           21 of   64 on ionode
           22 of   64 on ionode
           23 of   64 on ionode
           24 of   64 on ionode
           25 of   64 on ionode
           26 of   64 on ionode
           27 of   64 on ionode
           28 of   64 on ionode
           29 of   64 on ionode
           30 of   64 on ionode
           31 of   64 on ionode
           32 of   64 on ionode
           33 of   64 on ionode
           34 of   64 on ionode
           35 of   64 on ionode
           36 of   64 on ionode
           37 of   64 on ionode
           38 of   64 on ionode
           39 of   64 on ionode
           40 of   64 on ionode
           41 of   64 on ionode
           42 of   64 on ionode
           43 of   64 on ionode
           44 of   64 on ionode
           45 of   64 on ionode
           46 of   64 on ionode
           47 of   64 on ionode
           48 of   64 on ionode
           49 of   64 on ionode
           50 of   64 on ionode
           51 of   64 on ionode
           52 of   64 on ionode
           53 of   64 on ionode
           54 of   64 on ionode
           55 of   64 on ionode
           56 of   64 on ionode
           57 of   64 on ionode
           58 of   64 on ionode
           59 of   64 on ionode
           60 of   64 on ionode
           61 of   64 on ionode
           62 of   64 on ionode
           63 of   64 on ionode
           64 of   64 on ionode
     MMN calculated

     Running Wannier90

     Wannier Function centers (cartesian, alat) and spreads (ang):

     (  -0.16555   0.33474  -0.16466) :   1.81329
     (   0.16515  -0.33502  -0.16509) :   1.80784
     (  -0.33542  -0.16491   0.16586) :   1.81064
     (   0.33555   0.16599   0.16440) :   1.79927
     (   0.08542  -0.08509   0.08414) :   1.81064
     (  -0.08445  -0.08474  -0.08534) :   1.81330
     (  -0.08555   0.08401   0.08560) :   1.79927
     (   0.08485   0.08503  -0.08491) :   1.80783

     -------------------------------------------------------------------
     WANNIER      :      2.90s CPU      2.94s WALL (       1 calls)
     -------------------------------------------------------------------

     Dipole matrix elements calculated


     Calculating kgmap

     Progress kgmap: ########################################
     kmaps        :      4.00s CPU      4.00s WALL (       1 calls)
     Symmetries of Bravais lattice:  48
     Symmetries of crystal:          48


     ===================================================================
     irreducible q point #    1
     ===================================================================

     Symmetries of small group of q: 48
          in addition sym. q -> -q+G:

     Number of q in the star =    1
     List of q in the star:
          1   0.000000000   0.000000000   0.000000000
     Imposing acoustic sum rule on the dynamical matrix
     Read dielectric tensor and effective charges

        q(    1 ) = (   0.0000000   0.0000000   0.0000000 )


     ===================================================================
     irreducible q point #    2
     ===================================================================

     Symmetries of small group of q: 12
          in addition sym. q -> -q+G:

     Number of q in the star =    4
     List of q in the star:
          1   0.500000000  -0.500000000   0.500000000
          2   0.500000000   0.500000000  -0.500000000
          3  -0.500000000  -0.500000000  -0.500000000
          4   0.500000000  -0.500000000  -0.500000000

        q(    2 ) = (   0.5000000  -0.5000000   0.5000000 )
        q(    3 ) = (   0.5000000   0.5000000  -0.5000000 )
        q(    4 ) = (  -0.5000000  -0.5000000  -0.5000000 )
        q(    5 ) = (   0.5000000  -0.5000000  -0.5000000 )


     ===================================================================
     irreducible q point #    3
     ===================================================================

     Symmetries of small group of q: 16
          in addition sym. q -> -q+G:

     Number of q in the star =    3
     List of q in the star:
          1   0.000000000  -1.000000000   0.000000000
          2  -1.000000000   0.000000000   0.000000000
          3   0.000000000   0.000000000   1.000000000

        q(    6 ) = (   0.0000000  -1.0000000   0.0000000 )
        q(    7 ) = (  -1.0000000   0.0000000   0.0000000 )
        q(    8 ) = (   0.0000000   0.0000000   1.0000000 )

     Writing epmatq on .epb files


     The .epb files have been correctly written


     Band disentanglement is used: nbndsub =    8
     Use zone-centred Wigner-Seitz cells 
     Number of WS vectors for electrons       93
     Number of WS vectors for phonons       19
     Number of WS vectors for electron-phonon       19
     Maximum number of cores for efficient parallelization      114
     Results may improve by using use_ws == .TRUE. 

     Writing Hamiltonian, Dynamical matrix and EP vertex in Wann rep to file

     ===================================================================
     Memory usage:  VmHWM =        57Mb
                   VmPeak =       366Mb
     ===================================================================
     
     Using q-mesh file: pathq.dat
     WARNING: q-point weigths do not add up to 1 [loadqmesh_serial]
     Size of q point mesh for interpolation:          4
     Using k-mesh file: path.dat
     Size of k point mesh for interpolation:          2
     Max number of k points per pool:                2

     Fermi energy coarse grid =   0.000000 eV

     Fermi energy is calculated from the fine k-mesh: Ef =   7.429981 eV

     Warning: check if difference with Fermi level fine grid makes sense

     ===================================================================

              ibndmin =     5  ebndmin =     0.632
              ibndmax =     7  ebndmax =     0.632


     Number of ep-matrix elements per pool :           54 ~=    0.42 Kb (@ 8 bytes/ DP)
      
     A selecq.fmt file was found but re-created because selecqread == .FALSE. 
     We only need to compute        4 q-points
      
      Electron-phonon vertex |g| (meV)

     iq =       1 coord.:    0.0000000   0.0000000   0.0000000
     ik =       1 coord.:    0.0000000   0.0000000   0.0000000
      ibnd     jbnd     imode   enk[eV]    enk+q[eV]  omega(q)[meV]   |g|[meV]
     ------------------------------------------------------------------------------
        5        5        1      8.6048      8.6048      0.0000    0.3349340301E+00
        5        5        2      8.6048      8.6048      0.0000    0.3349340301E+00
        5        5        3      8.6048      8.6048      0.0000    0.3349340301E+00
        5        5        4      8.6048      8.6048     62.3345    0.8967856366E+02
        5        5        5      8.6048      8.6048     62.3345    0.8967856366E+02
        5        5        6      8.6048      8.6048     62.3345    0.8967856366E+02
        5        6        1      8.6048      8.6050      0.0000    0.4418875526E+00
        5        6        2      8.6048      8.6050      0.0000    0.4418875526E+00
        5        6        3      8.6048      8.6050      0.0000    0.4418875526E+00
        5        6        4      8.6048      8.6050     62.3345    0.5709520653E+02
        5        6        5      8.6048      8.6050     62.3345    0.5709520653E+02
        5        6        6      8.6048      8.6050     62.3345    0.5709520653E+02
        5        7        1      8.6048      8.6051      0.0000    0.6217032960E+00
        5        7        2      8.6048      8.6051      0.0000    0.6217032960E+00
        5        7        3      8.6048      8.6051      0.0000    0.6217032960E+00
        5        7        4      8.6048      8.6051     62.3345    0.4044044216E+02
        5        7        5      8.6048      8.6051     62.3345    0.4044044216E+02
        5        7        6      8.6048      8.6051     62.3345    0.4044044216E+02
        6        5        1      8.6050      8.6048      0.0000    0.4418875527E+00
        6        5        2      8.6050      8.6048      0.0000    0.4418875527E+00
        6        5        3      8.6050      8.6048      0.0000    0.4418875527E+00
        6        5        4      8.6050      8.6048     62.3345    0.5709520653E+02
        6        5        5      8.6050      8.6048     62.3345    0.5709520653E+02
        6        5        6      8.6050      8.6048     62.3345    0.5709520653E+02
        6        6        1      8.6050      8.6050      0.0000    0.3268951075E+00
        6        6        2      8.6050      8.6050      0.0000    0.3268951075E+00
        6        6        3      8.6050      8.6050      0.0000    0.3268951075E+00
        6        6        4      8.6050      8.6050     62.3345    0.6986302681E+02
        6        6        5      8.6050      8.6050     62.3345    0.6986302681E+02
        6        6        6      8.6050      8.6050     62.3345    0.6986302681E+02
        6        7        1      8.6050      8.6051      0.0000    0.1554781607E+00
        6        7        2      8.6050      8.6051      0.0000    0.1554781607E+00
        6        7        3      8.6050      8.6051      0.0000    0.1554781607E+00
        6        7        4      8.6050      8.6051     62.3345    0.6933355160E+02
        6        7        5      8.6050      8.6051     62.3345    0.6933355160E+02
        6        7        6      8.6050      8.6051     62.3345    0.6933355160E+02
        7        5        1      8.6051      8.6048      0.0000    0.6217032959E+00
        7        5        2      8.6051      8.6048      0.0000    0.6217032959E+00
        7        5        3      8.6051      8.6048      0.0000    0.6217032959E+00
        7        5        4      8.6051      8.6048     62.3345    0.4044044216E+02
        7        5        5      8.6051      8.6048     62.3345    0.4044044216E+02
        7        5        6      8.6051      8.6048     62.3345    0.4044044216E+02
        7        6        1      8.6051      8.6050      0.0000    0.1554781609E+00
        7        6        2      8.6051      8.6050      0.0000    0.1554781609E+00
        7        6        3      8.6051      8.6050      0.0000    0.1554781609E+00
        7        6        4      8.6051      8.6050     62.3345    0.6933355160E+02
        7        6        5      8.6051      8.6050     62.3345    0.6933355160E+02
        7        6        6      8.6051      8.6050     62.3345    0.6933355160E+02
        7        7        1      8.6051      8.6051      0.0000    0.5214377103E-01
        7        7        2      8.6051      8.6051      0.0000    0.5214377103E-01
        7        7        3      8.6051      8.6051      0.0000    0.5214377103E-01
        7        7        4      8.6051      8.6051     62.3345    0.8069799556E+02
        7        7        5      8.6051      8.6051     62.3345    0.8069799556E+02
        7        7        6      8.6051      8.6051     62.3345    0.8069799556E+02
     ------------------------------------------------------------------------------

      Electron-phonon vertex |g| (meV)

     iq =       2 coord.:    0.0000000   0.0000000   0.3333333
     ik =       1 coord.:    0.0000000   0.0000000   0.0000000
      ibnd     jbnd     imode   enk[eV]    enk+q[eV]  omega(q)[meV]   |g|[meV]
     ------------------------------------------------------------------------------
        5        5        1      8.6048      7.7989     11.7234    0.2002034135E+02
        5        5        2      8.6048      7.7989     11.7234    0.2002034135E+02
        5        5        3      8.6048      7.7989     42.6740    0.2972479866E+01
        5        5        4      8.6048      7.7989     50.6787    0.4557164048E+02
        5        5        5      8.6048      7.7989     59.8580    0.4471796149E+02
        5        5        6      8.6048      7.7989     59.8580    0.4471796149E+02
        5        6        1      8.6048      9.7095     11.7234    0.1603067748E+02
        5        6        2      8.6048      9.7095     11.7234    0.1603067748E+02
        5        6        3      8.6048      9.7095     42.6740    0.7291531234E+01
        5        6        4      8.6048      9.7095     50.6787    0.4413959759E+02
        5        6        5      8.6048      9.7095     59.8580    0.4253025910E+02
        5        6        6      8.6048      9.7095     59.8580    0.4253025910E+02
        5        7        1      8.6048     10.0328     11.7234    0.8003173405E+01
        5        7        2      8.6048     10.0328     11.7234    0.8003173405E+01
        5        7        3      8.6048     10.0328     42.6740    0.1212536709E+02
        5        7        4      8.6048     10.0328     50.6787    0.1415573654E+03
        5        7        5      8.6048     10.0328     59.8580    0.1603301025E+02
        5        7        6      8.6048     10.0328     59.8580    0.1603301025E+02
        6        5        1      8.6050      7.7989     11.7234    0.3008839101E+02
        6        5        2      8.6050      7.7989     11.7234    0.3008839101E+02
        6        5        3      8.6050      7.7989     42.6740    0.1662524244E+02
        6        5        4      8.6050      7.7989     50.6787    0.3779596108E+02
        6        5        5      8.6050      7.7989     59.8580    0.1054516314E+03
        6        5        6      8.6050      7.7989     59.8580    0.1054516314E+03
        6        6        1      8.6050      9.7095     11.7234    0.5221986772E+02
        6        6        2      8.6050      9.7095     11.7234    0.5221986772E+02
        6        6        3      8.6050      9.7095     42.6740    0.1309312088E+02
        6        6        4      8.6050      9.7095     50.6787    0.5296946591E+02
        6        6        5      8.6050      9.7095     59.8580    0.8343026902E+02
        6        6        6      8.6050      9.7095     59.8580    0.8343026902E+02
        6        7        1      8.6050     10.0328     11.7234    0.1325862977E+02
        6        7        2      8.6050     10.0328     11.7234    0.1325862977E+02
        6        7        3      8.6050     10.0328     42.6740    0.9501880873E+01
        6        7        4      8.6050     10.0328     50.6787    0.1674536811E+02
        6        7        5      8.6050     10.0328     59.8580    0.2876606484E+02
        6        7        6      8.6050     10.0328     59.8580    0.2876606484E+02
        7        5        1      8.6051      7.7989     11.7234    0.2925948865E+02
        7        5        2      8.6051      7.7989     11.7234    0.2925948865E+02
        7        5        3      8.6051      7.7989     42.6740    0.9164433712E+01
        7        5        4      8.6051      7.7989     50.6787    0.4456034076E+02
        7        5        5      8.6051      7.7989     59.8580    0.8982559205E+02
        7        5        6      8.6051      7.7989     59.8580    0.8982559205E+02
        7        6        1      8.6051      9.7095     11.7234    0.2487745729E+02
        7        6        2      8.6051      9.7095     11.7234    0.2487745729E+02
        7        6        3      8.6051      9.7095     42.6740    0.1697754735E+02
        7        6        4      8.6051      9.7095     50.6787    0.3034888274E+02
        7        6        5      8.6051      9.7095     59.8580    0.9403872163E+02
        7        6        6      8.6051      9.7095     59.8580    0.9403872163E+02
        7        7        1      8.6051     10.0328     11.7234    0.1563897955E+02
        7        7        2      8.6051     10.0328     11.7234    0.1563897955E+02
        7        7        3      8.6051     10.0328     42.6740    0.3867749682E+01
        7        7        4      8.6051     10.0328     50.6787    0.2068490572E+02
        7        7        5      8.6051     10.0328     59.8580    0.5795913022E+02
        7        7        6      8.6051     10.0328     59.8580    0.5795913022E+02
     ------------------------------------------------------------------------------

      Electron-phonon vertex |g| (meV)

     iq =       3 coord.:    0.0000000   0.3333333   0.3333333
     ik =       1 coord.:    0.0000000   0.0000000   0.0000000
      ibnd     jbnd     imode   enk[eV]    enk+q[eV]  omega(q)[meV]   |g|[meV]
     ------------------------------------------------------------------------------
        5        5        1      8.6048      6.6455     15.7975    0.1447232362E+02
        5        5        2      8.6048      6.6455     35.2235    0.2851045728E+02
        5        5        3      8.6048      6.6455     42.9578    0.5500377398E+02
        5        5        4      8.6048      6.6455     47.6675    0.9790485414E+02
        5        5        5      8.6048      6.6455     53.2518    0.2570476539E+02
        5        5        6      8.6048      6.6455     57.1286    0.3322708169E+02
        5        6        1      8.6048      8.7199     15.7975    0.3379787625E+02
        5        6        2      8.6048      8.7199     35.2235    0.4115427097E+02
        5        6        3      8.6048      8.7199     42.9578    0.4177899093E+02
        5        6        4      8.6048      8.7199     47.6675    0.4768225067E+02
        5        6        5      8.6048      8.7199     53.2518    0.4595708515E+02
        5        6        6      8.6048      8.7199     57.1286    0.9822939031E+02
        5        7        1      8.6048     13.4657     15.7975    0.4591500667E+02
        5        7        2      8.6048     13.4657     35.2235    0.3587029702E+02
        5        7        3      8.6048     13.4657     42.9578    0.6127975440E+02
        5        7        4      8.6048     13.4657     47.6675    0.2550772968E+02
        5        7        5      8.6048     13.4657     53.2518    0.6247507172E+02
        5        7        6      8.6048     13.4657     57.1286    0.7164372641E+02
        6        5        1      8.6050      6.6455     15.7975    0.1902369426E+02
        6        5        2      8.6050      6.6455     35.2235    0.2922653601E+02
        6        5        3      8.6050      6.6455     42.9578    0.6719029457E+02
        6        5        4      8.6050      6.6455     47.6675    0.5574364751E+02
        6        5        5      8.6050      6.6455     53.2518    0.4716144936E+02
        6        5        6      8.6050      6.6455     57.1286    0.1710513215E+01
        6        6        1      8.6050      8.7199     15.7975    0.5405720539E+02
        6        6        2      8.6050      8.7199     35.2235    0.2383232797E+02
        6        6        3      8.6050      8.7199     42.9578    0.5502824801E+02
        6        6        4      8.6050      8.7199     47.6675    0.6642761014E+02
        6        6        5      8.6050      8.7199     53.2518    0.4191693389E+02
        6        6        6      8.6050      8.7199     57.1286    0.4987927673E+02
        6        7        1      8.6050     13.4657     15.7975    0.4002590481E+02
        6        7        2      8.6050     13.4657     35.2235    0.1656178825E+02
        6        7        3      8.6050     13.4657     42.9578    0.4092347415E+02
        6        7        4      8.6050     13.4657     47.6675    0.5309197885E+02
        6        7        5      8.6050     13.4657     53.2518    0.5441873813E+02
        6        7        6      8.6050     13.4657     57.1286    0.7463262012E+02
        7        5        1      8.6051      6.6455     15.7975    0.1016946353E+02
        7        5        2      8.6051      6.6455     35.2235    0.2697303514E+02
        7        5        3      8.6051      6.6455     42.9578    0.8430900225E+01
        7        5        4      8.6051      6.6455     47.6675    0.7497339595E+02
        7        5        5      8.6051      6.6455     53.2518    0.1094063484E+02
        7        5        6      8.6051      6.6455     57.1286    0.6981445819E+02
        7        6        1      8.6051      8.7199     15.7975    0.6590518420E+01
        7        6        2      8.6051      8.7199     35.2235    0.1392916005E+02
        7        6        3      8.6051      8.7199     42.9578    0.3365813731E+02
        7        6        4      8.6051      8.7199     47.6675    0.5340371687E+02
        7        6        5      8.6051      8.7199     53.2518    0.1854876057E+02
        7        6        6      8.6051      8.7199     57.1286    0.7462602463E+02
        7        7        1      8.6051     13.4657     15.7975    0.2714020399E+02
        7        7        2      8.6051     13.4657     35.2235    0.1461110052E+02
        7        7        3      8.6051     13.4657     42.9578    0.3215600858E+02
        7        7        4      8.6051     13.4657     47.6675    0.6637736608E+02
        7        7        5      8.6051     13.4657     53.2518    0.4615914204E+02
        7        7        6      8.6051     13.4657     57.1286    0.3997905491E+02
     ------------------------------------------------------------------------------

      Electron-phonon vertex |g| (meV)

     iq =       4 coord.:    0.0000000   0.3333333  -0.3333333
     ik =       1 coord.:    0.0000000   0.0000000   0.0000000
      ibnd     jbnd     imode   enk[eV]    enk+q[eV]  omega(q)[meV]   |g|[meV]
     ------------------------------------------------------------------------------
        5        5        1      8.6048      7.3231     31.2800    0.6352774261E+02
        5        5        2      8.6048      7.3231     36.3121    0.3241042644E+02
        5        5        3      8.6048      7.3231     37.4276    0.2279279010E+02
        5        5        4      8.6048      7.3231     50.2542    0.9677845434E+02
        5        5        5      8.6048      7.3231     52.3957    0.4212245279E+02
        5        5        6      8.6048      7.3231     52.8812    0.4988872318E+02
        5        6        1      8.6048     12.1401     31.2800    0.4886823584E+02
        5        6        2      8.6048     12.1401     36.3121    0.2047569968E+02
        5        6        3      8.6048     12.1401     37.4276    0.2114806625E+02
        5        6        4      8.6048     12.1401     50.2542    0.6583990560E+02
        5        6        5      8.6048     12.1401     52.3957    0.5776930415E+02
        5        6        6      8.6048     12.1401     52.8812    0.2476232466E+02
        5        7        1      8.6048     12.3316     31.2800    0.3518330403E+02
        5        7        2      8.6048     12.3316     36.3121    0.3373050063E+02
        5        7        3      8.6048     12.3316     37.4276    0.3996853582E+02
        5        7        4      8.6048     12.3316     50.2542    0.4371746038E+02
        5        7        5      8.6048     12.3316     52.3957    0.1135720296E+02
        5        7        6      8.6048     12.3316     52.8812    0.7490642180E+02
        6        5        1      8.6050      7.3231     31.2800    0.4733217498E+02
        6        5        2      8.6050      7.3231     36.3121    0.3671829554E+02
        6        5        3      8.6050      7.3231     37.4276    0.3033209062E+02
        6        5        4      8.6050      7.3231     50.2542    0.1596561486E+02
        6        5        5      8.6050      7.3231     52.3957    0.2766391053E+02
        6        5        6      8.6050      7.3231     52.8812    0.4821088310E+02
        6        6        1      8.6050     12.1401     31.2800    0.4074898010E+02
        6        6        2      8.6050     12.1401     36.3121    0.2637733073E+02
        6        6        3      8.6050     12.1401     37.4276    0.2617230164E+02
        6        6        4      8.6050     12.1401     50.2542    0.6445839123E+02
        6        6        5      8.6050     12.1401     52.3957    0.4558562911E+02
        6        6        6      8.6050     12.1401     52.8812    0.5049655867E+02
        6        7        1      8.6050     12.3316     31.2800    0.2293255606E+02
        6        7        2      8.6050     12.3316     36.3121    0.2247719344E+02
        6        7        3      8.6050     12.3316     37.4276    0.4342043146E+02
        6        7        4      8.6050     12.3316     50.2542    0.8412796417E+02
        6        7        5      8.6050     12.3316     52.3957    0.7003042197E+02
        6        7        6      8.6050     12.3316     52.8812    0.3366281572E+02
        7        5        1      8.6051      7.3231     31.2800    0.6497794480E+02
        7        5        2      8.6051      7.3231     36.3121    0.1892194582E+02
        7        5        3      8.6051      7.3231     37.4276    0.1576821669E+02
        7        5        4      8.6051      7.3231     50.2542    0.8239827809E+02
        7        5        5      8.6051      7.3231     52.3957    0.5500652159E+02
        7        5        6      8.6051      7.3231     52.8812    0.4007657999E+02
        7        6        1      8.6051     12.1401     31.2800    0.7128754766E+02
        7        6        2      8.6051     12.1401     36.3121    0.2449029088E+02
        7        6        3      8.6051     12.1401     37.4276    0.1889111703E+02
        7        6        4      8.6051     12.1401     50.2542    0.3754023810E+02
        7        6        5      8.6051     12.1401     52.3957    0.1281131175E+02
        7        6        6      8.6051     12.1401     52.8812    0.4071911366E+02
        7        7        1      8.6051     12.3316     31.2800    0.3586266924E+02
        7        7        2      8.6051     12.3316     36.3121    0.1301157906E+02
        7        7        3      8.6051     12.3316     37.4276    0.3189730016E+02
        7        7        4      8.6051     12.3316     50.2542    0.7230772267E+02
        7        7        5      8.6051     12.3316     52.3957    0.6224732332E+02
        7        7        6      8.6051     12.3316     52.8812    0.6028678316E+02
     ------------------------------------------------------------------------------

     ===================================================================
     Memory usage:  VmHWM =        58Mb
                   VmPeak =       393Mb
     ===================================================================


     Unfolding on the coarse grid
     elphon_wrap  :     46.20s CPU     46.64s WALL (       1 calls)

     INITIALIZATION: 

     init_vloc    :      0.00s CPU      0.00s WALL (       1 calls)
     init_us_1    :      0.02s CPU      0.02s WALL (       2 calls)



     Electron-Phonon interpolation
     ephwann      :      0.41s CPU      0.43s WALL (       1 calls)
     ep-interp    :      0.00s CPU      0.01s WALL (       4 calls)

     Ham: step 1  :      0.00s CPU      0.00s WALL (       1 calls)
     Ham: step 2  :      0.00s CPU      0.00s WALL (       1 calls)
     ep: step 1   :      0.01s CPU      0.01s WALL (      48 calls)
     ep: step 2   :      0.15s CPU      0.15s WALL (      48 calls)
     DynW2B       :      0.00s CPU      0.00s WALL (       4 calls)
     HamW2B       :      0.00s CPU      0.00s WALL (      15 calls)
     ephW2Bp      :      0.00s CPU      0.01s WALL (       4 calls)
     ephW2B       :      0.00s CPU      0.00s WALL (       4 calls)


     Total program execution
     EPW          :     49.73s CPU     50.28s WALL

                                                                                          
 Please consider citing:                                                                  
 S. Ponce, E. R. Margine, C. Verdi and F. Giustino, Comput. Phys. Commun. 209, 116 (2016) 
                                                                                          
