
     Program PWSCF v.4.3.2      starts on 11Aug2011 at 16: 6:40 

     This program is part of the open-source Quantum ESPRESSO suite
     for quantum simulation of materials; please cite
         "P. Giannozzi et al., J. Phys.:Condens. Matter 21 395502 (2009);
          URL http://www.quantum-espresso.org", 
     in publications or presentations arising from this work. More details at
     http://www.quantum-espresso.org/quote.php

     Parallel version (MPI), running on    12 processors
     R & G space division:  proc/pool =   12

     Current dimensions of program PWSCF are:
     Max number of different atomic species (ntypx) = 10
     Max number of k-points (npk) =  40000
     Max angular momentum in pseudopotentials (lmaxx) =  3
     Waiting for input...
     Reading input from stdin

     Subspace diagonalization in iterative solution of the eigenvalue problem:
     a serial algorithm will be used

 
     Parallelization info
     --------------------
     sticks:   dense  smooth     PW     G-vecs:    dense   smooth      PW
     Min          13      13      5                 1955     1955     435
     Max          14      14      6                 1996     1996     467
     Sum         163     163     61                23647    23647    5473
 


     bravais-lattice index     =            0
     lattice parameter (alat)  =       7.6534  a.u.
     unit-cell volume          =    1941.1667 (a.u.)^3
     number of atoms/cell      =            7
     number of atomic types    =            1
     number of electrons       =        21.00
     number of Kohn-Sham states=           15
     kinetic-energy cutoff     =      20.0000  Ry
     charge density cutoff     =      80.0000  Ry
     convergence threshold     =      1.0E-06
     mixing beta               =       0.5000
     number of iterations used =            8  plain     mixing
     Exchange-correlation      =  SLA  PW   PBE  PBE ( 1 4 3 4 0)
     EXX-fraction              =        0.00

     Effective Screening Medium Method
     =================================
     field strength (Ry/a.u.)         =       0.00 
     ESM offset from cell edge (a.u.) =       0.00 
     grid points for fit at edges     =          4 
     Boundary Conditions: Metal-Slab-Metal
 

     celldm(1)=   7.653394  celldm(2)=   0.000000  celldm(3)=   0.000000
     celldm(4)=   0.000000  celldm(5)=   0.000000  celldm(6)=   0.000000

     crystal axes: (cart. coord. in units of alat)
               a(1) = (   0.707107   0.000000   0.000000 )  
               a(2) = (   0.353553   0.612372   0.000000 )  
               a(3) = (   0.000000   0.000000  10.000000 )  

     reciprocal axes: (cart. coord. in units 2 pi/alat)
               b(1) = (  1.414214 -0.816497  0.000000 )  
               b(2) = (  0.000000  1.632993  0.000000 )  
               b(3) = (  0.000000  0.000000  0.100000 )  


     PseudoPot. # 1 for Al read from file:
     /p/lscratcha/wood37/data/esm_code_081011/espresso/pseudo/Al.pbe-rrkj.UPF
     MD5 check sum: b5320f8fdc07ab0d74f109f4aa58256b
     Pseudo is Norm-conserving, Zval =  3.0
     Generated by new atomic code, or converted to UPF format
     Using radial grid of  879 points,  4 beta functions with: 
                l(1) =   0
                l(2) =   0
                l(3) =   1
                l(4) =   1

     atomic species   valence    mass     pseudopotential
        Al             3.00    26.98154     Al( 1.00)

     No symmetry found

   Cartesian axes

     site n.     atom                  positions (alat units)
         1           Al  tau(   1) = (   0.0000000   0.0000000  -1.7320512  )
         2           Al  tau(   2) = (   0.0000000   0.4082492  -1.1547008  )
         3           Al  tau(   3) = (   0.3535529   0.2041234  -0.5773504  )
         4           Al  tau(   4) = (   0.0000000   0.0000000   0.0000000  )
         5           Al  tau(   5) = (   0.0000000   0.4082492   0.5773504  )
         6           Al  tau(   6) = (   0.3535529   0.2041234   1.1547008  )
         7           Al  tau(   7) = (   0.0000000   0.0000000   1.7320512  )

     number of k points=    34  Methfessel-Paxton smearing, width (Ry)=  0.0500
                       cart. coord. in units 2pi/alat
        k(    1) = (   0.0000000   0.0000000   0.0000000), wk =   0.0312500
        k(    2) = (   0.0000000   0.2041241   0.0000000), wk =   0.0625000
        k(    3) = (   0.0000000   0.4082483   0.0000000), wk =   0.0625000
        k(    4) = (   0.0000000   0.6123724   0.0000000), wk =   0.0625000
        k(    5) = (   0.0000000  -0.8164966   0.0000000), wk =   0.0312500
        k(    6) = (   0.1767767  -0.1020621   0.0000000), wk =   0.0625000
        k(    7) = (   0.1767767   0.1020621   0.0000000), wk =   0.0625000
        k(    8) = (   0.1767767   0.3061862   0.0000000), wk =   0.0625000
        k(    9) = (   0.1767767   0.5103104   0.0000000), wk =   0.0625000
        k(   10) = (   0.1767767  -0.9185587   0.0000000), wk =   0.0625000
        k(   11) = (   0.1767767  -0.7144345   0.0000000), wk =   0.0625000
        k(   12) = (   0.1767767  -0.5103104   0.0000000), wk =   0.0625000
        k(   13) = (   0.1767767  -0.3061862   0.0000000), wk =   0.0625000
        k(   14) = (   0.3535534  -0.2041241   0.0000000), wk =   0.0625000
        k(   15) = (   0.3535534   0.0000000   0.0000000), wk =   0.0625000
        k(   16) = (   0.3535534   0.2041241   0.0000000), wk =   0.0625000
        k(   17) = (   0.3535534   0.4082483   0.0000000), wk =   0.0625000
        k(   18) = (   0.3535534  -1.0206207   0.0000000), wk =   0.0625000
        k(   19) = (   0.3535534  -0.8164966   0.0000000), wk =   0.0625000
        k(   20) = (   0.3535534  -0.6123724   0.0000000), wk =   0.0625000
        k(   21) = (   0.3535534  -0.4082483   0.0000000), wk =   0.0625000
        k(   22) = (   0.5303301  -0.3061862   0.0000000), wk =   0.0625000
        k(   23) = (   0.5303301  -0.1020621   0.0000000), wk =   0.0625000
        k(   24) = (   0.5303301   0.1020621   0.0000000), wk =   0.0625000
        k(   25) = (   0.5303301   0.3061862   0.0000000), wk =   0.0625000
        k(   26) = (   0.5303301  -1.1226828   0.0000000), wk =   0.0625000
        k(   27) = (   0.5303301  -0.9185587   0.0000000), wk =   0.0625000
        k(   28) = (   0.5303301  -0.7144345   0.0000000), wk =   0.0625000
        k(   29) = (   0.5303301  -0.5103104   0.0000000), wk =   0.0625000
        k(   30) = (  -0.7071068   0.4082483   0.0000000), wk =   0.0312500
        k(   31) = (  -0.7071068   0.6123724   0.0000000), wk =   0.0625000
        k(   32) = (  -0.7071068   0.8164966   0.0000000), wk =   0.0625000
        k(   33) = (  -0.7071068   1.0206207   0.0000000), wk =   0.0625000
        k(   34) = (  -0.7071068  -0.4082483   0.0000000), wk =   0.0312500

     Dense  grid:    23647 G-vectors     FFT dimensions: (  15,  15, 225)

     Largest allocated arrays     est. size (Mb)     dimensions
        Kohn-Sham Wavefunctions         0.06 Mb     (    264,   15)
        NL pseudopotentials             0.23 Mb     (    264,   56)
        Each V/rho on FFT grid          0.07 Mb     (   4275)
        Each G-vector array             0.01 Mb     (   1963)
        G-vector shells                 0.01 Mb     (    963)
     Largest temporary arrays     est. size (Mb)     dimensions
        Auxiliary wavefunctions         0.24 Mb     (    264,   60)
        Each subspace H/S matrix        0.05 Mb     (  60,  60)
        Each <psi_i|beta_j> matrix      0.01 Mb     (     56,   15)
        Arrays for rho mixing           0.52 Mb     (   4275,   8)

     Initial potential from superposition of free atoms

     starting charge   20.98187, renormalised to   21.00000

     negative rho (up, down):  0.215E-04 0.000E+00
     Starting wfc are   28 atomic wfcs

     total cpu time spent up to now is        0.9 secs

     per-process dynamical memory:    18.5 Mb

     Self-consistent Calculation

     iteration #  1     ecut=    20.00 Ry     beta=0.50
     Davidson diagonalization with overlap
     ethr =  1.00E-02,  avg # of iterations =  4.6

     negative rho (up, down):  0.428E-05 0.000E+00

     total cpu time spent up to now is        2.0 secs

     total energy              =     -28.47588624 Ry
     Harris-Foulkes estimate   =     -28.88620431 Ry
     estimated scf accuracy    <       0.58624822 Ry

     iteration #  2     ecut=    20.00 Ry     beta=0.50
     Davidson diagonalization with overlap
     c_bands:  1 eigenvalues not converged
     c_bands:  1 eigenvalues not converged
     c_bands:  1 eigenvalues not converged
     c_bands:  1 eigenvalues not converged
     c_bands:  1 eigenvalues not converged
     c_bands:  1 eigenvalues not converged
     c_bands:  1 eigenvalues not converged
     c_bands:  1 eigenvalues not converged
     c_bands:  1 eigenvalues not converged
     ethr =  2.79E-03,  avg # of iterations = 17.8

     negative rho (up, down):  0.195E-05 0.000E+00

     total cpu time spent up to now is        4.7 secs

     total energy              =     -24.69056947 Ry
     Harris-Foulkes estimate   =     -32.92141954 Ry
     estimated scf accuracy    <     150.72373683 Ry

     iteration #  3     ecut=    20.00 Ry     beta=0.50
     Davidson diagonalization with overlap
     c_bands:  1 eigenvalues not converged
     c_bands:  1 eigenvalues not converged
     c_bands:  1 eigenvalues not converged
     ethr =  2.79E-03,  avg # of iterations = 14.6

     negative rho (up, down):  0.996E-06 0.000E+00

     total cpu time spent up to now is        6.9 secs

     total energy              =     -28.83785369 Ry
     Harris-Foulkes estimate   =     -28.85431679 Ry
     estimated scf accuracy    <       0.26403070 Ry

     iteration #  4     ecut=    20.00 Ry     beta=0.50
     Davidson diagonalization with overlap
     ethr =  1.26E-03,  avg # of iterations =  6.8

     negative rho (up, down):  0.635E-06 0.000E+00

     total cpu time spent up to now is        8.7 secs

     total energy              =     -28.90850033 Ry
     Harris-Foulkes estimate   =     -28.94566018 Ry
     estimated scf accuracy    <       0.41786420 Ry

     iteration #  5     ecut=    20.00 Ry     beta=0.50
     Davidson diagonalization with overlap
     ethr =  1.26E-03,  avg # of iterations =  1.0

     total cpu time spent up to now is       10.2 secs

     total energy              =     -28.91617682 Ry
     Harris-Foulkes estimate   =     -28.92645792 Ry
     estimated scf accuracy    <       0.07482106 Ry

     iteration #  6     ecut=    20.00 Ry     beta=0.50
     Davidson diagonalization with overlap
     ethr =  3.56E-04,  avg # of iterations =  5.1

     negative rho (up, down):  0.680E-07 0.000E+00

     total cpu time spent up to now is       11.0 secs

     total energy              =     -28.91823808 Ry
     Harris-Foulkes estimate   =     -28.93714765 Ry
     estimated scf accuracy    <       0.18953807 Ry

     iteration #  7     ecut=    20.00 Ry     beta=0.50
     Davidson diagonalization with overlap
     ethr =  3.56E-04,  avg # of iterations =  1.0

     negative rho (up, down):  0.451E-07 0.000E+00

     total cpu time spent up to now is       11.6 secs

     total energy              =     -28.92565255 Ry
     Harris-Foulkes estimate   =     -28.92579243 Ry
     estimated scf accuracy    <       0.01523486 Ry

     iteration #  8     ecut=    20.00 Ry     beta=0.50
     Davidson diagonalization with overlap
     c_bands:  1 eigenvalues not converged
     c_bands:  1 eigenvalues not converged
     c_bands:  1 eigenvalues not converged
     c_bands:  1 eigenvalues not converged
     c_bands:  1 eigenvalues not converged
     c_bands:  1 eigenvalues not converged
     c_bands:  1 eigenvalues not converged
     c_bands:  1 eigenvalues not converged
     c_bands:  1 eigenvalues not converged
     c_bands:  1 eigenvalues not converged
     ethr =  7.25E-05,  avg # of iterations = 12.5

     negative rho (up, down):  0.318E-07 0.000E+00

     total cpu time spent up to now is       13.0 secs

     total energy              =     -28.92741617 Ry
     Harris-Foulkes estimate   =     -28.93003967 Ry
     estimated scf accuracy    <       0.14952014 Ry

     iteration #  9     ecut=    20.00 Ry     beta=0.50
     Davidson diagonalization with overlap
     ethr =  7.25E-05,  avg # of iterations =  2.8

     negative rho (up, down):  0.569E-07 0.000E+00

     total cpu time spent up to now is       13.6 secs

     total energy              =     -28.93059923 Ry
     Harris-Foulkes estimate   =     -28.92907046 Ry
     estimated scf accuracy    <       0.03222041 Ry

     iteration # 10     ecut=    20.00 Ry     beta=0.50
     Davidson diagonalization with overlap
     ethr =  7.25E-05,  avg # of iterations =  1.0

     negative rho (up, down):  0.235E-06 0.000E+00

     total cpu time spent up to now is       14.2 secs

     total energy              =     -28.92692860 Ry
     Harris-Foulkes estimate   =     -28.93103465 Ry
     estimated scf accuracy    <       0.06274410 Ry

     iteration # 11     ecut=    20.00 Ry     beta=0.50
     Davidson diagonalization with overlap
     ethr =  7.25E-05,  avg # of iterations =  1.2

     negative rho (up, down):  0.261E-06 0.000E+00

     total cpu time spent up to now is       14.7 secs

     total energy              =     -28.92758382 Ry
     Harris-Foulkes estimate   =     -28.92819357 Ry
     estimated scf accuracy    <       0.01309999 Ry

     iteration # 12     ecut=    20.00 Ry     beta=0.50
     Davidson diagonalization with overlap
     ethr =  6.24E-05,  avg # of iterations =  1.0

     negative rho (up, down):  0.232E-03 0.000E+00

     total cpu time spent up to now is       15.4 secs

     total energy              =     -28.92764207 Ry
     Harris-Foulkes estimate   =     -28.92788974 Ry
     estimated scf accuracy    <       0.00353016 Ry

     iteration # 13     ecut=    20.00 Ry     beta=0.50
     Davidson diagonalization with overlap
     ethr =  1.68E-05,  avg # of iterations =  5.3

     negative rho (up, down):  0.246E-04 0.000E+00

     total cpu time spent up to now is       16.3 secs

     total energy              =     -28.92823008 Ry
     Harris-Foulkes estimate   =     -28.92826132 Ry
     estimated scf accuracy    <       0.00031162 Ry

     iteration # 14     ecut=    20.00 Ry     beta=0.50
     Davidson diagonalization with overlap
     c_bands:  1 eigenvalues not converged
     c_bands:  1 eigenvalues not converged
     c_bands:  1 eigenvalues not converged
     c_bands:  1 eigenvalues not converged
     c_bands:  1 eigenvalues not converged
     c_bands:  1 eigenvalues not converged
     c_bands:  2 eigenvalues not converged
     c_bands:  1 eigenvalues not converged
     c_bands:  1 eigenvalues not converged
     c_bands:  1 eigenvalues not converged
     c_bands:  1 eigenvalues not converged
     c_bands:  1 eigenvalues not converged
     ethr =  1.48E-06,  avg # of iterations = 15.0

     negative rho (up, down):  0.118E-04 0.000E+00

     total cpu time spent up to now is       18.8 secs

     total energy              =     -28.92862156 Ry
     Harris-Foulkes estimate   =     -28.92861879 Ry
     estimated scf accuracy    <       0.00046007 Ry

     iteration # 15     ecut=    20.00 Ry     beta=0.50
     Davidson diagonalization with overlap
     ethr =  1.48E-06,  avg # of iterations =  2.9

     total cpu time spent up to now is       19.5 secs

     total energy              =     -28.92863739 Ry
     Harris-Foulkes estimate   =     -28.92862577 Ry
     estimated scf accuracy    <       0.00050114 Ry

     iteration # 16     ecut=    20.00 Ry     beta=0.50
     Davidson diagonalization with overlap
     ethr =  1.48E-06,  avg # of iterations =  1.0

     total cpu time spent up to now is       20.0 secs

     total energy              =     -28.92864856 Ry
     Harris-Foulkes estimate   =     -28.92864078 Ry
     estimated scf accuracy    <       0.00054758 Ry

     iteration # 17     ecut=    20.00 Ry     beta=0.50
     Davidson diagonalization with overlap
     ethr =  1.48E-06,  avg # of iterations =  1.0

     negative rho (up, down):  0.937E-06 0.000E+00

     total cpu time spent up to now is       20.6 secs

     total energy              =     -28.92865724 Ry
     Harris-Foulkes estimate   =     -28.92865066 Ry
     estimated scf accuracy    <       0.00058479 Ry

     iteration # 18     ecut=    20.00 Ry     beta=0.50
     Davidson diagonalization with overlap
     ethr =  1.48E-06,  avg # of iterations =  1.0

     negative rho (up, down):  0.671E-05 0.000E+00

     total cpu time spent up to now is       21.2 secs

     total energy              =     -28.92860324 Ry
     Harris-Foulkes estimate   =     -28.92866982 Ry
     estimated scf accuracy    <       0.00176536 Ry

     iteration # 19     ecut=    20.00 Ry     beta=0.50
     Davidson diagonalization with overlap
     ethr =  1.48E-06,  avg # of iterations =  1.0

     total cpu time spent up to now is       21.7 secs

     total energy              =     -28.92855000 Ry
     Harris-Foulkes estimate   =     -28.92861949 Ry
     estimated scf accuracy    <       0.00040883 Ry

     iteration # 20     ecut=    20.00 Ry     beta=0.50
     Davidson diagonalization with overlap
     ethr =  1.48E-06,  avg # of iterations =  1.5

     total cpu time spent up to now is       22.3 secs

     total energy              =     -28.92858509 Ry
     Harris-Foulkes estimate   =     -28.92859157 Ry
     estimated scf accuracy    <       0.00001472 Ry

     iteration # 21     ecut=    20.00 Ry     beta=0.50
     Davidson diagonalization with overlap
     ethr =  7.01E-08,  avg # of iterations =  6.7

     total cpu time spent up to now is       24.6 secs

     total energy              =     -28.92859703 Ry
     Harris-Foulkes estimate   =     -28.92859793 Ry
     estimated scf accuracy    <       0.00001906 Ry

     iteration # 22     ecut=    20.00 Ry     beta=0.50
     Davidson diagonalization with overlap
     ethr =  7.01E-08,  avg # of iterations =  1.7

     total cpu time spent up to now is       25.2 secs

     total energy              =     -28.92859331 Ry
     Harris-Foulkes estimate   =     -28.92859848 Ry
     estimated scf accuracy    <       0.00002274 Ry

     iteration # 23     ecut=    20.00 Ry     beta=0.50
     Davidson diagonalization with overlap
     ethr =  7.01E-08,  avg # of iterations =  1.6

     total cpu time spent up to now is       25.7 secs

     End of self-consistent calculation

          k = 0.0000 0.0000 0.0000 (  2893 PWs)   bands (ev):

   -14.8975 -14.5361 -13.9415 -13.1082 -12.0343 -10.7778  -9.2832  -7.8084
    -5.9892  -4.1453  -2.3575  -0.9436  -0.2343   0.1386   0.1880

          k = 0.0000 0.2041 0.0000 (  2891 PWs)   bands (ev):

   -14.5235 -14.1628 -13.5694 -12.7378 -11.6660 -10.4116  -8.9175  -7.4567
    -5.6386  -3.8012  -2.0203  -0.5984   0.1310   0.5129   0.5531

          k = 0.0000 0.4082 0.0000 (  2909 PWs)   bands (ev):

   -13.4067 -13.0484 -12.4589 -11.6326 -10.5675  -9.3212  -7.8334  -6.4080
    -4.6192  -2.9089  -1.9267  -1.4575  -1.0460  -0.6972  -0.2069

          k = 0.0000 0.6124 0.0000 (  2936 PWs)   bands (ev):

   -11.5637 -11.2096 -10.6274  -9.8120  -8.7635  -7.5489  -6.2076  -5.8316
    -5.4407  -4.8389  -4.4631  -3.9962  -3.0066  -2.7121  -1.8206

          k = 0.0000-0.8165 0.0000 (  2982 PWs)   bands (ev):

    -9.0312  -9.0206  -8.7130  -8.6483  -8.1449  -8.0846  -7.3713  -7.3259
    -6.4795  -5.9185  -4.9488  -4.8445  -3.5284  -3.3910  -2.2517

          k = 0.1768-0.1021 0.0000 (  2891 PWs)   bands (ev):

   -14.5235 -14.1628 -13.5694 -12.7378 -11.6660 -10.4116  -8.9175  -7.4567
    -5.6386  -3.8012  -2.0203  -0.5984   0.1310   0.5129   0.5531

          k = 0.1768 0.1021 0.0000 (  2891 PWs)   bands (ev):

   -14.5235 -14.1628 -13.5694 -12.7378 -11.6660 -10.4116  -8.9175  -7.4567
    -5.6386  -3.8012  -2.0203  -0.5984   0.1310   0.5129   0.5531

          k = 0.1768 0.3062 0.0000 (  2894 PWs)   bands (ev):

   -13.7780 -13.4189 -12.8281 -12.0000 -10.9325  -9.6832  -8.1920  -6.7557
    -4.9478  -3.1396  -1.4215  -0.1083   0.5421   0.7534   0.8032

          k = 0.1768 0.5103 0.0000 (  2934 PWs)   bands (ev):

   -12.2981 -11.9422 -11.3569 -10.5366  -9.4797  -8.2453  -6.7789  -5.3867
    -3.9682  -3.5600  -3.0996  -2.6515  -2.0023  -1.6885  -1.0239

          k = 0.1768-0.9186 0.0000 (  2943 PWs)   bands (ev):

   -10.1062  -9.7563  -9.1819  -8.3820  -7.4003  -7.2110  -6.9054  -6.4931
    -6.0708  -5.3705  -4.4827  -4.3464  -3.2839  -3.1628  -1.9787

          k = 0.1768-0.7144 0.0000 (  2943 PWs)   bands (ev):

   -10.1062  -9.7563  -9.1819  -8.3820  -7.4003  -7.2110  -6.9054  -6.4931
    -6.0708  -5.3705  -4.4827  -4.3464  -3.2839  -3.1628  -1.9787

          k = 0.1768-0.5103 0.0000 (  2934 PWs)   bands (ev):

   -12.2981 -11.9422 -11.3569 -10.5366  -9.4797  -8.2453  -6.7789  -5.3867
    -3.9682  -3.5600  -3.0996  -2.6515  -2.0023  -1.6885  -1.0239

          k = 0.1768-0.3062 0.0000 (  2894 PWs)   bands (ev):

   -13.7780 -13.4189 -12.8281 -12.0000 -10.9325  -9.6832  -8.1920  -6.7557
    -4.9478  -3.1396  -1.4215  -0.1083   0.5421   0.7534   0.8032

          k = 0.3536-0.2041 0.0000 (  2909 PWs)   bands (ev):

   -13.4067 -13.0484 -12.4589 -11.6326 -10.5675  -9.3212  -7.8334  -6.4080
    -4.6192  -2.9089  -1.9267  -1.4575  -1.0460  -0.6972  -0.2069

          k = 0.3536 0.0000 0.0000 (  2894 PWs)   bands (ev):

   -13.7780 -13.4189 -12.8281 -12.0000 -10.9325  -9.6832  -8.1920  -6.7557
    -4.9478  -3.1396  -1.4215  -0.1083   0.5421   0.7534   0.8032

          k = 0.3536 0.2041 0.0000 (  2909 PWs)   bands (ev):

   -13.4067 -13.0484 -12.4589 -11.6326 -10.5675  -9.3212  -7.8334  -6.4080
    -4.6192  -2.9089  -1.9267  -1.4575  -1.0460  -0.6972  -0.2069

          k = 0.3536 0.4082 0.0000 (  2934 PWs)   bands (ev):

   -12.2981 -11.9422 -11.3569 -10.5366  -9.4797  -8.2453  -6.7789  -5.3867
    -3.9682  -3.5600  -3.0996  -2.6515  -2.0023  -1.6885  -1.0239

          k = 0.3536-1.0206 0.0000 (  2964 PWs)   bands (ev):

   -10.4689 -10.1176  -9.5405  -8.7335  -7.6991  -6.5135  -5.2554  -4.8102
    -4.7994  -4.5700  -4.3194  -3.8952  -3.5998  -3.3422  -3.0893

          k = 0.3536-0.8165 0.0000 (  2968 PWs)   bands (ev):

    -7.9582  -7.9466  -7.6493  -7.5747  -7.0905  -7.0150  -6.3233  -6.2886
    -5.4727  -5.1895  -4.8738  -4.8319  -4.4140  -4.1751  -3.6026

          k = 0.3536-0.6124 0.0000 (  2964 PWs)   bands (ev):

   -10.4689 -10.1176  -9.5405  -8.7335  -7.6991  -6.5135  -5.2554  -4.8102
    -4.7994  -4.5700  -4.3194  -3.8952  -3.5998  -3.3422  -3.0893

          k = 0.3536-0.4082 0.0000 (  2934 PWs)   bands (ev):

   -12.2981 -11.9422 -11.3569 -10.5366  -9.4797  -8.2453  -6.7789  -5.3867
    -3.9682  -3.5600  -3.0996  -2.6515  -2.0023  -1.6885  -1.0239

          k = 0.5303-0.3062 0.0000 (  2936 PWs)   bands (ev):

   -11.5637 -11.2096 -10.6274  -9.8120  -8.7635  -7.5489  -6.2076  -5.8316
    -5.4407  -4.8389  -4.4631  -3.9962  -3.0066  -2.7121  -1.8206

          k = 0.5303-0.1021 0.0000 (  2934 PWs)   bands (ev):

   -12.2981 -11.9422 -11.3569 -10.5366  -9.4797  -8.2453  -6.7789  -5.3867
    -3.9682  -3.5600  -3.0996  -2.6515  -2.0023  -1.6885  -1.0239

          k = 0.5303 0.1021 0.0000 (  2934 PWs)   bands (ev):

   -12.2981 -11.9422 -11.3569 -10.5366  -9.4797  -8.2453  -6.7789  -5.3867
    -3.9682  -3.5600  -3.0996  -2.6515  -2.0023  -1.6885  -1.0239

          k = 0.5303 0.3062 0.0000 (  2936 PWs)   bands (ev):

   -11.5637 -11.2096 -10.6274  -9.8120  -8.7635  -7.5489  -6.2076  -5.8316
    -5.4407  -4.8389  -4.4631  -3.9962  -3.0066  -2.7121  -1.8206

          k = 0.5303-1.1227 0.0000 (  2943 PWs)   bands (ev):

   -10.1062  -9.7563  -9.1819  -8.3820  -7.4003  -7.2110  -6.9054  -6.4931
    -6.0708  -5.3705  -4.4827  -4.3464  -3.2839  -3.1628  -1.9787

          k = 0.5303-0.9186 0.0000 (  2968 PWs)   bands (ev):

    -7.9582  -7.9466  -7.6493  -7.5747  -7.0905  -7.0150  -6.3233  -6.2886
    -5.4727  -5.1895  -4.8738  -4.8319  -4.4140  -4.1751  -3.6026

          k = 0.5303-0.7144 0.0000 (  2968 PWs)   bands (ev):

    -7.9582  -7.9466  -7.6493  -7.5747  -7.0905  -7.0150  -6.3233  -6.2886
    -5.4727  -5.1895  -4.8738  -4.8319  -4.4140  -4.1751  -3.6026

          k = 0.5303-0.5103 0.0000 (  2943 PWs)   bands (ev):

   -10.1062  -9.7563  -9.1819  -8.3820  -7.4003  -7.2110  -6.9054  -6.4931
    -6.0708  -5.3705  -4.4827  -4.3464  -3.2839  -3.1628  -1.9787

          k =-0.7071 0.4082 0.0000 (  2982 PWs)   bands (ev):

    -9.0312  -9.0206  -8.7130  -8.6483  -8.1449  -8.0846  -7.3713  -7.3259
    -6.4795  -5.9185  -4.9488  -4.8445  -3.5284  -3.3910  -2.2517

          k =-0.7071 0.6124 0.0000 (  2943 PWs)   bands (ev):

   -10.1062  -9.7563  -9.1819  -8.3820  -7.4003  -7.2110  -6.9054  -6.4931
    -6.0708  -5.3705  -4.4827  -4.3464  -3.2839  -3.1628  -1.9787

          k =-0.7071 0.8165 0.0000 (  2964 PWs)   bands (ev):

   -10.4689 -10.1176  -9.5405  -8.7335  -7.6991  -6.5135  -5.2554  -4.8102
    -4.7994  -4.5700  -4.3194  -3.8952  -3.5998  -3.3422  -3.0893

          k =-0.7071 1.0206 0.0000 (  2943 PWs)   bands (ev):

   -10.1062  -9.7563  -9.1819  -8.3820  -7.4003  -7.2110  -6.9054  -6.4931
    -6.0708  -5.3705  -4.4827  -4.3464  -3.2839  -3.1628  -1.9787

          k =-0.7071-0.4082 0.0000 (  2982 PWs)   bands (ev):

    -9.0312  -9.0206  -8.7130  -8.6483  -8.1449  -8.0846  -7.3713  -7.3259
    -6.4795  -5.9185  -4.9488  -4.8445  -3.5284  -3.3910  -2.2517

     the Fermi energy is    -4.0029 ev

!    total energy              =     -28.92859536 Ry
     Harris-Foulkes estimate   =     -28.92859604 Ry
     estimated scf accuracy    <       0.00000070 Ry

     The total energy is the sum of the following terms:

     one-electron contribution =   -6093.37495123 Ry
     hartree contribution      =    3047.54345815 Ry
     xc contribution           =     -11.06491983 Ry
     ewald contribution        =    3027.96511646 Ry
     smearing contrib. (-TS)   =       0.00270110 Ry

     ESM Charge and Potential
     ========================

    z (A)      rho (e)      Avg v_hartree        Avg v_local  Avg v_hart+v_loc
                                   (eV/A)             (eV/A)            (eV/A)
    ==========================================================================
  -20.160      0.00000        176.6587166       -176.6586081         0.0001086
  -19.980      0.00000        196.2058753       -196.2055839         0.0002913
  -19.800      0.00000        242.7718452       -242.7713026         0.0005425
  -19.620      0.00000        318.4805272       -318.4798471         0.0006802
  -19.440      0.00000        409.4764636       -409.4754880         0.0009755
  -19.260      0.00000        500.4703068       -500.4692367         0.0010701
  -19.080      0.00000        591.4652908       -591.4638840         0.0014068
  -18.900      0.00000        682.4600939       -682.4586321         0.0014618
  -18.720      0.00000        773.4541174       -773.4522817         0.0018357
  -18.540      0.00000        864.4498744       -864.4480184         0.0018560
  -18.360      0.00000        955.4429574       -955.4406958         0.0022616
  -18.180      0.00000       1046.4396343      -1046.4373810         0.0022532
  -18.000      0.00000       1137.4318244      -1137.4291406         0.0026838
  -17.820      0.00000       1228.4293604      -1228.4267063         0.0026541
  -17.640      0.00000       1319.4207311      -1319.4176291         0.0031019
  -17.460      0.00000       1410.4190407      -1410.4159816         0.0030591
  -17.280      0.00000       1501.4096888      -1501.4061734         0.0035154
  -17.100      0.00000       1592.4086647      -1592.4051960         0.0034687
  -16.920      0.00000       1683.3987071      -1683.3947834         0.0039237
  -16.740      0.00000       1774.3982237      -1774.3943404         0.0038833
  -16.560      0.00000       1865.3877936      -1865.3834669         0.0043267
  -16.380      0.00000       1956.3877114      -1956.3834083         0.0043031
  -16.200      0.00000       2047.3769535      -2047.3722295         0.0047240
  -16.020      0.00000       2138.3771236      -2138.3723952         0.0047284
  -15.840      0.00000       2229.3661897      -2229.3610741         0.0051156
  -15.660      0.00000       2320.3664588      -2320.3612997         0.0051591
  -15.480      0.00000       2411.3555023      -2411.3500010         0.0055013
  -15.300      0.00000       2502.3557179      -2502.3501228         0.0055951
  -15.120      0.00000       2593.3448891      -2593.3390078         0.0058813
  -14.940      0.00000       2684.3449041      -2684.3388680         0.0060361
  -14.760      0.00000       2775.3343454      -2775.3280897         0.0062557
  -14.580      0.00000       2866.3340232      -2866.3275416         0.0064816
  -14.400      0.00000       2957.3238640      -2957.3172393         0.0066247
  -14.220      0.00000       3048.3230823      -3048.3161518         0.0069304
  -14.040      0.00000       3139.3134354      -3139.3064473         0.0069881
  -13.860      0.00000       3230.3120900      -3230.3047091         0.0073809
  -13.680      0.00000       3321.3030477      -3321.2957024         0.0073453
  -13.500      0.00000       3412.3010549      -3412.2932255         0.0078295
  -13.320      0.00000       3503.2926856      -3503.2849920         0.0076936
  -13.140      0.00000       3594.2899837      -3594.2817141         0.0082696
  -12.960      0.00000       3685.2823283      -3685.2743023         0.0080260
  -12.780      0.00000       3776.2788761      -3776.2701892         0.0086869
  -12.600      0.00001       3867.2719435      -3867.2636189         0.0083246
  -12.420      0.00001       3958.2677150      -3958.2586653         0.0090497
  -12.240      0.00002       4049.2614728      -4049.2529267         0.0085461
  -12.060      0.00002       4140.2564421      -4140.2471548         0.0092873
  -11.880      0.00004       4231.2507948      -4231.2422078         0.0085870
  -11.700      0.00006       4322.2449002      -4322.2356735         0.0092267
  -11.520      0.00009       4413.2396353      -4413.2314519         0.0081834
  -11.340      0.00014       4504.2326888      -4504.2242382         0.0084505
  -11.160      0.00021       4595.2273434      -4595.2206448         0.0066986
  -10.980      0.00033       4686.2188139      -4686.2128638         0.0059501
  -10.800      0.00052       4777.2123341      -4777.2097714         0.0025627
  -10.620      0.00082       4868.2008020      -4868.2015656        -0.0007636
  -10.440      0.00128       4959.1907076      -4959.1988143        -0.0081067
  -10.260      0.00202       5050.1725428      -5050.1903629        -0.0178201
  -10.080      0.00318       5141.1528240      -5141.1877501        -0.0349261
   -9.900      0.00501       5232.1188392      -5232.1792841        -0.0604448
   -9.720      0.00790       5323.0747249      -5323.1765387        -0.1018138
   -9.540      0.01248       5414.0019137      -5414.1683827        -0.1664690
   -9.360      0.01967       5504.8967356      -5505.1651047        -0.2683691
   -9.180      0.03091       5595.7275613      -5596.1577869        -0.4302256
   -9.000      0.04834       5686.4707393      -5687.1531882        -0.6824489
   -8.820      0.07491       5777.0643278      -5778.1475015        -1.0831738
   -8.640      0.11418       5867.4386585      -5869.1393436        -1.7006851
   -8.460      0.17010       5957.4678432      -5960.1237187        -2.6558755
   -8.280      0.24602       6046.9948519      -6050.8278010        -3.8329490
   -8.100      0.34170       6135.7877847      -6141.6624194        -5.8746347
   -7.920      0.44853       6223.5741349      -6233.4564930        -9.8823581
   -7.740      0.54884       6310.0367145      -6325.8343288       -15.7976143
   -7.560      0.62456       6394.8903927      -6417.4984724       -22.6080797
   -7.380      0.66858       6477.9085917      -6507.0440258       -29.1354341
   -7.200      0.68600       6558.9644490      -6592.9628025       -33.9983535
   -7.020      0.68699       6638.0007162      -6673.8789549       -35.8782387
   -6.840      0.68225       6715.0142458      -6749.2678720       -34.2536262
   -6.660      0.68014       6790.0153688      -6819.5954801       -29.5801112
   -6.480      0.68106       6863.0107697      -6886.2081382       -23.1973685
   -6.300      0.67774       6934.0000514      -6950.6151063       -16.6150549
   -6.120      0.66739       7002.9925743      -7014.2198977       -11.2273234
   -5.940      0.65916       7070.0185571      -7078.0648996        -8.0463425
   -5.760      0.66416       7135.0963595      -7143.0283392        -7.9319797
   -5.580      0.68099       7198.2153123      -7209.1396107       -10.9242983
   -5.400      0.69553       7259.3250306      -7275.5369845       -16.2119539
   -5.220      0.69574       7318.3909088      -7341.1905143       -22.7996055
   -5.040      0.68379       7375.4060062      -7404.7102003       -29.3041941
   -4.860      0.67089       7430.4088499      -7464.5882196       -34.1793697
   -4.680      0.66497       7483.4288207      -7519.4537611       -36.0249404
   -4.500      0.66824       7534.4899080      -7568.7916716       -34.3017636
   -4.320      0.67942       7583.5754127      -7613.0777541       -29.5023414
   -4.140      0.69145       7630.6616387      -7653.6639849       -23.0023462
   -3.960      0.69336       7675.7083945      -7692.0580526       -16.3496581
   -3.780      0.68224       7718.7184801      -7729.6629802       -10.9445001
   -3.600      0.66921       7759.7142254      -7767.5155840        -7.8013586
   -3.420      0.66776       7798.7378892      -7806.4948128        -7.7569237
   -3.240      0.67861       7835.7864498      -7846.6136577       -10.8272079
   -3.060      0.68933       7870.8379751      -7887.0122926       -16.1743175
   -2.880      0.68907       7903.8573243      -7926.6523417       -22.7950174
   -2.700      0.68022       7934.8504688      -7964.1475907       -29.2971219
   -2.520      0.67250       7963.8355814      -7997.9829320       -34.1473506
   -2.340      0.67117       7990.8388818      -8026.7995242       -35.9606425
   -2.160      0.67605       8015.8602946      -8050.0847002       -34.2244056
   -1.980      0.68511       8038.8892936      -8068.3312938       -29.4420003
   -1.800      0.69229       8059.8979825      -8082.8891983       -22.9912158
   -1.620      0.68860       8078.8694877      -8095.2726827       -16.4031950
   -1.440      0.67306       8095.8138817      -8106.8755307       -11.0616490
   -1.260      0.65794       8110.7741286      -8118.7382307        -7.9641021
   -1.080      0.65702       8123.7916281      -8131.7307811        -7.9391530
   -0.900      0.67076       8134.8677769      -8145.8596074       -10.9918305
   -0.720      0.68618       8143.9674416      -8160.2569267       -16.2894851
   -0.540      0.69148       8151.0455367      -8173.8857960       -22.8402593
   -0.360      0.68752       8156.0895388      -8185.3541247       -29.2645860
   -0.180      0.68240       8159.1049063      -8193.1488652       -34.0439589
    0.000      0.68057       8160.1103006      -8195.9144151       -35.8041146
    0.180      0.68242       8159.1058778      -8193.1487426       -34.0428648
    0.360      0.68754       8156.0919296      -8185.3543686       -29.2624390
    0.540      0.69151       8151.0482982      -8173.8854336       -22.8371354
    0.720      0.68622       8143.9719191      -8160.2574036       -16.2854845
    0.900      0.67080       8134.8719516      -8145.8590214       -10.9870698
    1.080      0.65707       8123.7977061      -8131.7314698        -7.9337637
    1.260      0.65800       8110.7792105      -8118.7374471        -7.9582366
    1.440      0.67313       8095.8209144      -8106.8764005       -11.0554861
    1.620      0.68866       8078.8748027      -8095.2717365       -16.3969338
    1.800      0.69235       8059.9051561      -8082.8902103       -22.9850541
    1.980      0.68515       8038.8941219      -8068.3302275       -29.4361056
    2.160      0.67607       8015.8669108      -8050.0858088       -34.2188980
    2.340      0.67119       7990.8427873      -8026.7983859       -35.9555986
    2.520      0.67252       7963.8412631      -7997.9840872       -34.1428241
    2.700      0.68024       7934.8532653      -7964.1464319       -29.2931667
    2.880      0.68910       7903.8617902      -7926.6534907       -22.7917005
    3.060      0.68936       7870.8394479      -7887.0111666       -16.1717187
    3.240      0.67863       7835.7893348      -7846.6147476       -10.8254128
    3.420      0.66778       7798.7377575      -7806.4937718        -7.7560144
    3.600      0.66922       7759.7151582      -7767.5165637        -7.8014056
    3.780      0.68226       7718.7165155      -7729.6620734       -10.9455579
    3.960      0.69337       7675.7071080      -7692.0588754       -16.3517674
    4.140      0.69146       7630.6577155      -7653.6632562       -23.0055407
    4.320      0.67944       7583.5717223      -7613.0783794       -29.5066571
    4.500      0.66826       7534.4839106      -7568.7911578       -34.3072472
    4.680      0.66500       7483.4225039      -7519.4541563       -36.0316524
    4.860      0.67091       7430.4005706      -7464.5879486       -34.1873780
    5.040      0.68380       7375.3967848      -7404.7103426       -29.3135578
    5.220      0.69574       7318.3801454      -7341.1905038       -22.8103584
    5.400      0.69552       7259.3127674      -7275.5368617       -16.2240943
    5.580      0.68097       7198.2020772      -7209.1398672       -10.9377900
    5.760      0.66414       7135.0811859      -7143.0279503        -7.9467644
    5.940      0.65915       7070.0030585      -7078.0654181        -8.0623596
    6.120      0.66738       7002.9747249      -7014.2192536       -11.2445287
    6.300      0.67774       6933.9824381      -6950.6158703       -16.6334322
    6.480      0.68107       6862.9903320      -6886.2072612       -23.2169292
    6.660      0.68015       6789.9955815      -6819.5964618       -29.6008803
    6.840      0.68224       6714.9911769      -6749.2667950       -34.2756182
    7.020      0.68697       6637.9786879      -6673.8801164       -35.9014285
    7.200      0.68594       6558.9389148      -6592.9615682       -34.0226534
    7.380      0.66851       6477.8846348      -6507.0453202       -29.1606853
    7.560      0.62448       6394.8630673      -6417.4971315       -22.6340643
    7.740      0.54876       6310.0116193      -6325.8357020       -15.8240826
    7.920      0.44846       6223.5460393      -6233.4551024        -9.9090630
    8.100      0.34165       6135.7624476      -6141.6638121        -5.9013645
    8.280      0.24599       6046.9668740      -6050.8264215        -3.8595475
    8.460      0.17008       5957.4428252      -5960.1250691        -2.6822439
    8.640      0.11417       5867.4112699      -5869.1380379        -1.7267680
    8.820      0.07490       5777.0398061      -5778.1487470        -1.1089409
    9.000      0.04834       5686.4441364      -5687.1520180        -0.7078816
    9.180      0.03090       5595.7035576      -5596.1588672        -0.4553096
    9.360      0.01966       5504.8710361      -5505.1641284        -0.2930923
    9.540      0.01247       5413.9784214      -5414.1692419        -0.1908205
    9.720      0.00790       5323.0500243      -5323.1758090        -0.1257847
    9.900      0.00501       5232.0958448      -5232.1798731        -0.0840283
   10.080      0.00318       5141.1291947      -5141.1873118        -0.0581171
   10.260      0.00202       5050.1500271      -5050.1906417        -0.0406146
   10.440      0.00128       4959.1682010      -4959.1987023        -0.0305013
   10.620      0.00082       4868.1787495      -4868.2015049        -0.0227554
   10.800      0.00052       4777.1909852      -4777.2100092        -0.0190240
   10.980      0.00033       4686.1972166      -4686.2124463        -0.0152297
   11.160      0.00021       4595.2071701      -4595.2212430        -0.0140729
   11.340      0.00014       4504.2115485      -4504.2234600        -0.0119115
   11.520      0.00009       4413.2206394      -4413.2324078        -0.0117684
   11.700      0.00006       4322.2242296      -4322.2345441        -0.0103144
   11.880      0.00004       4231.2329620      -4231.2435051        -0.0105430
   12.060      0.00002       4140.2362659      -4140.2456972        -0.0094314
   12.240      0.00002       4049.2447744      -4049.2545355        -0.0097611
   12.420      0.00001       3958.2480699      -3958.2569159        -0.0088460
   12.600      0.00001       3867.2563373      -3867.2654968        -0.0091595
   12.780      0.00000       3776.2598105      -3776.2681962        -0.0083857
   12.960      0.00000       3685.2677606      -3685.2763956        -0.0086350
   13.140      0.00000       3594.2715565      -3594.2795364        -0.0079798
   13.320      0.00000       3503.2790929      -3503.2872373        -0.0081444
   13.500      0.00000       3412.2833335      -3412.2909305        -0.0075970
   13.680      0.00000       3321.2903590      -3321.2980287        -0.0076697
   13.860      0.00000       3230.2951481      -3230.3023707        -0.0072226
   14.040      0.00000       3139.3015744      -3139.3087784        -0.0072039
   14.220      0.00000       3048.3069975      -3048.3138477        -0.0068502
   14.400      0.00000       2957.3127521      -2957.3194966        -0.0067446
   14.580      0.00000       2866.3188744      -2866.3253507        -0.0064763
   14.760      0.00000       2775.3239040      -2775.3301948        -0.0062907
   14.940      0.00000       2684.3307686      -2684.3368676        -0.0060990
   15.120      0.00000       2593.3350429      -2593.3408853        -0.0058424
   15.300      0.00000       2502.3426684      -2502.3483856        -0.0057173
   15.480      0.00000       2411.3461816      -2411.3515812        -0.0053997
   15.660      0.00000       2320.3545611      -2320.3598917        -0.0053306
   15.840      0.00000       2229.3573330      -2229.3622957        -0.0049627
   16.020      0.00000       2138.3664341      -2138.3713727        -0.0049386
   16.200      0.00000       2047.3685102      -2047.3730417        -0.0045315
   16.380      0.00000       1956.3782749      -1956.3828160        -0.0045411
   16.560      0.00000       1865.3797253      -1865.3838314        -0.0041061
   16.740      0.00000       1774.3900716      -1774.3942098        -0.0041382
   16.920      0.00000       1683.3909895      -1683.3946759        -0.0036864
   17.100      0.00000       1592.4018139      -1592.4055439        -0.0037301
   17.280      0.00000       1501.4023126      -1501.4055846        -0.0032720
   17.460      0.00000       1410.4134927      -1410.4168097        -0.0033170
   17.640      0.00000       1319.4137025      -1319.4165653        -0.0028628
   17.820      0.00000       1228.4251013      -1228.4280005        -0.0028993
   18.000      0.00000       1137.4251652      -1137.4276233        -0.0024582
   18.180      0.00000       1046.4366347      -1046.4391121        -0.0024774
   18.360      0.00000        955.4367041       -955.4387618        -0.0020577
   18.540      0.00000        864.4480908       -864.4501427        -0.0020519
   18.720      0.00000        773.4483204       -773.4499812        -0.0016609
   18.900      0.00000        682.4594697       -682.4610931        -0.0016234
   19.080      0.00000        591.4600125       -591.4612796        -0.0012670
   19.260      0.00000        500.4707741       -500.4719665        -0.0011924
   19.440      0.00000        409.4717766       -409.4726522        -0.0008756
   19.620      0.00000        325.9463975       -325.9471571        -0.0007596
   19.800      0.00000        258.7629476       -258.7634335        -0.0004859
   19.980      0.00000        210.0707242       -210.0710499        -0.0003257
   20.160      0.00000        181.9871643       -181.9872615        -0.0000971
 

     convergence has been achieved in  23 iterations

     Forces acting on atoms (Ry/au):

     atom    1 type  1   force =    -0.00000010    0.00000011   -0.00172608
     atom    2 type  1   force =     0.00000004   -0.00000025    0.00678134
     atom    3 type  1   force =     0.00000024    0.00000013   -0.00542286
     atom    4 type  1   force =     0.00000006   -0.00000001    0.00011435
     atom    5 type  1   force =    -0.00000022   -0.00000015    0.00531161
     atom    6 type  1   force =    -0.00000005    0.00000027   -0.00681761
     atom    7 type  1   force =     0.00000002   -0.00000011    0.00175926

     Total force =     0.012497     Total SCF correction =     0.001347
     SCF correction compared to forces is large: reduce conv_thr to get better values

     Writing output data file Al111.save
 
     init_run     :      0.74s CPU      0.82s WALL (       1 calls)
     electrons    :     23.71s CPU     24.87s WALL (       1 calls)
     forces       :      0.12s CPU      0.12s WALL (       1 calls)

     Called by init_run:
     wfcinit      :      0.32s CPU      0.35s WALL (       1 calls)
     potinit      :      0.03s CPU      0.03s WALL (       1 calls)

     Called by electrons:
     c_bands      :     19.07s CPU     19.73s WALL (      23 calls)
     sum_band     :      4.18s CPU      4.24s WALL (      23 calls)
     v_of_rho     :      0.14s CPU      0.14s WALL (      24 calls)
     mix_rho      :      0.03s CPU      0.03s WALL (      23 calls)

     Called by c_bands:
     init_us_2    :      0.25s CPU      0.24s WALL (    1632 calls)
     cegterg      :     18.43s CPU     18.99s WALL (     782 calls)

     Called by *egterg:
     h_psi        :     12.55s CPU     12.94s WALL (    4486 calls)
     g_psi        :      0.18s CPU      0.18s WALL (    3670 calls)
     cdiaghg      :      3.57s CPU      3.57s WALL (    4452 calls)

     Called by h_psi:
     add_vuspsi   :      0.69s CPU      0.68s WALL (    4486 calls)

     General routines
     calbec       :      1.00s CPU      1.05s WALL (    4520 calls)
     fft          :      0.05s CPU      0.05s WALL (     267 calls)
     fftw         :     14.03s CPU     14.36s WALL (   86706 calls)
     davcio       :      0.01s CPU      0.15s WALL (    2414 calls)
 
     Parallel routines
     fft_scatter  :      7.62s CPU      7.88s WALL (   86973 calls)
 
     PWSCF        :    24.66s CPU        26.93s WALL

 
   This run was terminated on:  16: 7: 7  11Aug2011            

=------------------------------------------------------------------------------=
   JOB DONE.
=------------------------------------------------------------------------------=
