
     Program PWSCF v.> 4.2      starts on 28Jan2011 at 15:43:24 

     This program is part of the open-source Quantum ESPRESSO suite
     for quantum simulation of materials; please cite
         "P. Giannozzi et al., J. Phys.:Condens. Matter 21 395502 (2009);
          URL http://www.quantum-espresso.org", 
     in publications or presentations arising from this work. More details at
     http://www.quantum-espresso.org/wiki/index.php/Citing_Quantum-ESPRESSO

     Parallel version (MPI), running on     4 processors
     R & G space division:  proc/pool =    4

     Current dimensions of program PWSCF are:
     Max number of different atomic species (ntypx) = 10
     Max number of k-points (npk) =  40000
     Max angular momentum in pseudopotentials (lmaxx) =  3
     Waiting for input...

     Subspace diagonalization in iterative solution of the eigenvalue problem:
     a serial algorithm will be used


     Planes per process (thick) : nr3 = 225 npp =   57 ncplane =   256
 
     Proc/  planes cols     G    planes cols    G      columns  G
     Pool       (dense grid)       (smooth grid)      (wavefct grid)
        1    57     41     5901   57     41     5901     15     1373
        2    56     40     5892   56     40     5892     16     1368
        3    56     41     5927   56     41     5927     15     1361
        4    56     41     5927   56     41     5927     15     1371
     tot    225    163    23647  225    163    23647     61     5473
 


     bravais-lattice index     =            0
     lattice parameter (a_0)   =       7.6534  a.u.
     unit-cell volume          =    1941.1667 (a.u.)^3
     number of atoms/cell      =            7
     number of atomic types    =            1
     number of electrons       =        21.00
     number of Kohn-Sham states=           14
     kinetic-energy cutoff     =      20.0000  Ry
     charge density cutoff     =      80.0000  Ry
     convergence threshold     =      1.0E-06
     mixing beta               =       0.2000
     number of iterations used =            8  plain     mixing
     Exchange-correlation      =  SLA  PW   PBE  PBE (1434)
     EXX-fraction              =        0.00

     Effective Screening Medium Method
     =================================
     field strength (Ry/a.u.)         =       0.00 
     ESM offset from cell edge (a.u.) =       0.00 
     grid points for fit at edges     =          4 
     Boundary Conditions: Vacuum-Slab-Metal
 

     celldm(1)=   7.653394  celldm(2)=   0.000000  celldm(3)=   0.000000
     celldm(4)=   0.000000  celldm(5)=   0.000000  celldm(6)=   0.000000

     crystal axes: (cart. coord. in units of a_0)
               a(1) = (   0.707107   0.000000   0.000000 )  
               a(2) = (   0.353553   0.612372   0.000000 )  
               a(3) = (   0.000000   0.000000  10.000000 )  

     reciprocal axes: (cart. coord. in units 2 pi/a_0)
               b(1) = (  1.414214 -0.816497  0.000000 )  
               b(2) = (  0.000000  1.632993  0.000000 )  
               b(3) = (  0.000000  0.000000  0.100000 )  


     PseudoPot. # 1 for Al read from file Al.pbe-n-van.UPF
     MD5 check sum: b11ded24487aef5bc42d5c7a2e22a7b6
     Pseudo is Ultrasoft + core correction, Zval =  3.0
     Generated by new atomic code, or converted to UPF format
     Using radial grid of  893 points,  2 beta functions with: 
                l(1) =   0
                l(2) =   1
     Q(r) pseudized with  8 coefficients,  rinner =    0.900   0.900   0.900


     atomic species   valence    mass     pseudopotential
        Al             3.00    26.98154     Al( 1.00)

     No symmetry found

   Cartesian axes

     site n.     atom                  positions (a_0 units)
         1           Al  tau(  1) = (   0.0000000   0.0000000  -1.7320512  )
         2           Al  tau(  2) = (   0.0000000   0.4082492  -1.1547008  )
         3           Al  tau(  3) = (   0.3535529   0.2041234  -0.5773504  )
         4           Al  tau(  4) = (   0.0000000   0.0000000   0.0000000  )
         5           Al  tau(  5) = (   0.0000000   0.4082492   0.5773504  )
         6           Al  tau(  6) = (   0.3535529   0.2041234   1.1547008  )
         7           Al  tau(  7) = (   0.0000000   0.0000000   1.7320512  )

     number of k points=    34  Methfessel-Paxton smearing, width (Ry)=  0.0500
                       cart. coord. in units 2pi/a_0
        k(    1) = (   0.0000000   0.0000000   0.0000000), wk =   0.0312500
        k(    2) = (   0.0000000   0.2041241   0.0000000), wk =   0.0625000
        k(    3) = (   0.0000000   0.4082483   0.0000000), wk =   0.0625000
        k(    4) = (   0.0000000   0.6123724   0.0000000), wk =   0.0625000
        k(    5) = (   0.0000000  -0.8164966   0.0000000), wk =   0.0312500
        k(    6) = (   0.1767767  -0.1020621   0.0000000), wk =   0.0625000
        k(    7) = (   0.1767767   0.1020621   0.0000000), wk =   0.0625000
        k(    8) = (   0.1767767   0.3061862   0.0000000), wk =   0.0625000
        k(    9) = (   0.1767767   0.5103104   0.0000000), wk =   0.0625000
        k(   10) = (   0.1767767  -0.9185587   0.0000000), wk =   0.0625000
        k(   11) = (   0.1767767  -0.7144345   0.0000000), wk =   0.0625000
        k(   12) = (   0.1767767  -0.5103104   0.0000000), wk =   0.0625000
        k(   13) = (   0.1767767  -0.3061862   0.0000000), wk =   0.0625000
        k(   14) = (   0.3535534  -0.2041241   0.0000000), wk =   0.0625000
        k(   15) = (   0.3535534   0.0000000   0.0000000), wk =   0.0625000
        k(   16) = (   0.3535534   0.2041241   0.0000000), wk =   0.0625000
        k(   17) = (   0.3535534   0.4082483   0.0000000), wk =   0.0625000
        k(   18) = (   0.3535534  -1.0206207   0.0000000), wk =   0.0625000
        k(   19) = (   0.3535534  -0.8164966   0.0000000), wk =   0.0625000
        k(   20) = (   0.3535534  -0.6123724   0.0000000), wk =   0.0625000
        k(   21) = (   0.3535534  -0.4082483   0.0000000), wk =   0.0625000
        k(   22) = (   0.5303301  -0.3061862   0.0000000), wk =   0.0625000
        k(   23) = (   0.5303301  -0.1020621   0.0000000), wk =   0.0625000
        k(   24) = (   0.5303301   0.1020621   0.0000000), wk =   0.0625000
        k(   25) = (   0.5303301   0.3061862   0.0000000), wk =   0.0625000
        k(   26) = (   0.5303301  -1.1226828   0.0000000), wk =   0.0625000
        k(   27) = (   0.5303301  -0.9185587   0.0000000), wk =   0.0625000
        k(   28) = (   0.5303301  -0.7144345   0.0000000), wk =   0.0625000
        k(   29) = (   0.5303301  -0.5103104   0.0000000), wk =   0.0625000
        k(   30) = (  -0.7071068   0.4082483   0.0000000), wk =   0.0312500
        k(   31) = (  -0.7071068   0.6123724   0.0000000), wk =   0.0625000
        k(   32) = (  -0.7071068   0.8164966   0.0000000), wk =   0.0625000
        k(   33) = (  -0.7071068   1.0206207   0.0000000), wk =   0.0625000
        k(   34) = (  -0.7071068  -0.4082483   0.0000000), wk =   0.0312500

     G cutoff =  118.6966  (  23647 G-vectors)     FFT grid: ( 16, 16,225)

     Largest allocated arrays     est. size (Mb)     dimensions
        Kohn-Sham Wavefunctions         0.18 Mb     (    821,  14)
        NL pseudopotentials             0.35 Mb     (    821,  28)
        Each V/rho on FFT grid          0.22 Mb     (  14592)
        Each G-vector array             0.05 Mb     (   5901)
        G-vector shells                 0.02 Mb     (   2424)
     Largest temporary arrays     est. size (Mb)     dimensions
        Auxiliary wavefunctions         0.70 Mb     (    821,  56)
        Each subspace H/S matrix        0.05 Mb     (     56,  56)
        Each <psi_i|beta_j> matrix      0.01 Mb     (     28,  14)
        Arrays for rho mixing           1.78 Mb     (  14592,   8)

     Check: negative/imaginary core charge=   -0.000010    0.000000

     Initial potential from superposition of free atoms
     Check: negative starting charge=   -0.000290

     starting charge   20.98274, renormalised to   20.99500

     negative rho (up, down):  0.290E-03 0.000E+00
     Starting wfc are   28 atomic wfcs

     total cpu time spent up to now is      1.36 secs

     per-process dynamical memory:    30.9 Mb

     Self-consistent Calculation

     iteration #  1     ecut=    20.00 Ry     beta=0.20
     Davidson diagonalization with overlap
     ethr =  1.00E-02,  avg # of iterations =  4.0

     negative rho (up, down):  0.221E-03 0.000E+00

     total cpu time spent up to now is      3.06 secs

     total energy              =     -86.47363863 Ry
     Harris-Foulkes estimate   =     -87.14848079 Ry
     estimated scf accuracy    <       1.48448337 Ry

     iteration #  2     ecut=    20.00 Ry     beta=0.20
     Davidson diagonalization with overlap
     c_bands:  1 eigenvalues not converged
     c_bands:  2 eigenvalues not converged
     c_bands:  1 eigenvalues not converged
     c_bands:  1 eigenvalues not converged
     c_bands:  1 eigenvalues not converged
     c_bands:  1 eigenvalues not converged
     c_bands:  1 eigenvalues not converged
     c_bands:  4 eigenvalues not converged
     c_bands:  1 eigenvalues not converged
     c_bands:  4 eigenvalues not converged
     c_bands:  4 eigenvalues not converged
     c_bands:  1 eigenvalues not converged
     c_bands:  2 eigenvalues not converged
     c_bands:  1 eigenvalues not converged
     c_bands:  1 eigenvalues not converged
     c_bands:  2 eigenvalues not converged
     ethr =  7.07E-03,  avg # of iterations = 18.6

     negative rho (up, down):  0.158E-03 0.000E+00

     total cpu time spent up to now is      8.28 secs

     total energy              =     -79.07593400 Ry
     Harris-Foulkes estimate   =     -94.24318489 Ry
     estimated scf accuracy    <     533.47627338 Ry

     iteration #  3     ecut=    20.00 Ry     beta=0.20
     Davidson diagonalization with overlap
     c_bands:  1 eigenvalues not converged
     c_bands:  1 eigenvalues not converged
     c_bands:  1 eigenvalues not converged
     c_bands:  3 eigenvalues not converged
     c_bands:  3 eigenvalues not converged
     c_bands:  3 eigenvalues not converged
     ethr =  7.07E-03,  avg # of iterations = 15.4

     negative rho (up, down):  0.114E-03 0.000E+00

     total cpu time spent up to now is     12.74 secs

     total energy              =     -86.97761991 Ry
     Harris-Foulkes estimate   =     -87.13885188 Ry
     estimated scf accuracy    <       1.30605277 Ry

     iteration #  4     ecut=    20.00 Ry     beta=0.20
     Davidson diagonalization with overlap
     ethr =  6.22E-03,  avg # of iterations =  1.5

     negative rho (up, down):  0.113E-03 0.000E+00

     total cpu time spent up to now is     13.83 secs

     total energy              =     -87.09001506 Ry
     Harris-Foulkes estimate   =     -87.09105512 Ry
     estimated scf accuracy    <       0.16967070 Ry

     iteration #  5     ecut=    20.00 Ry     beta=0.20
     Davidson diagonalization with overlap
     c_bands:  3 eigenvalues not converged
     c_bands:  3 eigenvalues not converged
     c_bands:  3 eigenvalues not converged
     ethr =  8.08E-04,  avg # of iterations = 12.2

     negative rho (up, down):  0.111E-03 0.000E+00

     total cpu time spent up to now is     16.51 secs

     total energy              =     -87.20090379 Ry
     Harris-Foulkes estimate   =     -87.20694602 Ry
     estimated scf accuracy    <       1.66951786 Ry

     iteration #  6     ecut=    20.00 Ry     beta=0.20
     Davidson diagonalization with overlap
     ethr =  8.08E-04,  avg # of iterations =  1.4

     negative rho (up, down):  0.782E-04 0.000E+00

     total cpu time spent up to now is     17.60 secs

     total energy              =     -87.17875973 Ry
     Harris-Foulkes estimate   =     -87.20453904 Ry
     estimated scf accuracy    <       1.47152948 Ry

     iteration #  7     ecut=    20.00 Ry     beta=0.20
     Davidson diagonalization with overlap
     ethr =  8.08E-04,  avg # of iterations =  1.3

     negative rho (up, down):  0.207E-04 0.000E+00

     total cpu time spent up to now is     18.66 secs

     total energy              =     -87.13936593 Ry
     Harris-Foulkes estimate   =     -87.18316225 Ry
     estimated scf accuracy    <       0.75487537 Ry

     iteration #  8     ecut=    20.00 Ry     beta=0.20
     Davidson diagonalization with overlap
     ethr =  8.08E-04,  avg # of iterations =  1.6

     negative rho (up, down):  0.235E-04 0.000E+00

     total cpu time spent up to now is     19.75 secs

     total energy              =     -87.17903051 Ry
     Harris-Foulkes estimate   =     -87.17743251 Ry
     estimated scf accuracy    <       0.57922492 Ry

     iteration #  9     ecut=    20.00 Ry     beta=0.20
     Davidson diagonalization with overlap
     ethr =  8.08E-04,  avg # of iterations =  1.0

     negative rho (up, down):  0.477E-05 0.000E+00

     total cpu time spent up to now is     20.81 secs

     total energy              =     -87.16921606 Ry
     Harris-Foulkes estimate   =     -87.18103920 Ry
     estimated scf accuracy    <       0.60338720 Ry

     iteration # 10     ecut=    20.00 Ry     beta=0.20
     Davidson diagonalization with overlap
     ethr =  8.08E-04,  avg # of iterations =  1.0

     negative rho (up, down):  0.106E-05 0.000E+00

     total cpu time spent up to now is     21.87 secs

     total energy              =     -87.17177513 Ry
     Harris-Foulkes estimate   =     -87.17452672 Ry
     estimated scf accuracy    <       0.25589357 Ry

     iteration # 11     ecut=    20.00 Ry     beta=0.20
     Davidson diagonalization with overlap
     ethr =  8.08E-04,  avg # of iterations =  1.0

     negative rho (up, down):  0.139E-04 0.000E+00

     total cpu time spent up to now is     22.92 secs

     total energy              =     -87.17032453 Ry
     Harris-Foulkes estimate   =     -87.17455407 Ry
     estimated scf accuracy    <       0.32624321 Ry

     iteration # 12     ecut=    20.00 Ry     beta=0.20
     Davidson diagonalization with overlap
     ethr =  8.08E-04,  avg # of iterations =  1.0

     negative rho (up, down):  0.230E-04 0.000E+00

     total cpu time spent up to now is     23.98 secs

     total energy              =     -87.17237494 Ry
     Harris-Foulkes estimate   =     -87.17207461 Ry
     estimated scf accuracy    <       0.16849660 Ry

     iteration # 13     ecut=    20.00 Ry     beta=0.20
     Davidson diagonalization with overlap
     ethr =  8.03E-04,  avg # of iterations =  1.0

     negative rho (up, down):  0.607E-06 0.000E+00

     total cpu time spent up to now is     25.04 secs

     total energy              =     -87.17553943 Ry
     Harris-Foulkes estimate   =     -87.17314171 Ry
     estimated scf accuracy    <       0.19752204 Ry

     iteration # 14     ecut=    20.00 Ry     beta=0.20
     Davidson diagonalization with overlap
     ethr =  8.03E-04,  avg # of iterations =  1.0

     negative rho (up, down):  0.393E-05 0.000E+00

     total cpu time spent up to now is     26.09 secs

     total energy              =     -87.16865595 Ry
     Harris-Foulkes estimate   =     -87.17758074 Ry
     estimated scf accuracy    <       0.39973801 Ry

     iteration # 15     ecut=    20.00 Ry     beta=0.20
     Davidson diagonalization with overlap
     ethr =  8.03E-04,  avg # of iterations =  1.0

     negative rho (up, down):  0.443E-04 0.000E+00

     total cpu time spent up to now is     27.16 secs

     total energy              =     -87.16856482 Ry
     Harris-Foulkes estimate   =     -87.17298862 Ry
     estimated scf accuracy    <       0.06219703 Ry

     iteration # 16     ecut=    20.00 Ry     beta=0.20
     Davidson diagonalization with overlap
     c_bands:  1 eigenvalues not converged
     c_bands:  1 eigenvalues not converged
     c_bands:  1 eigenvalues not converged
     c_bands:  1 eigenvalues not converged
     ethr =  2.96E-04,  avg # of iterations =  4.2

     negative rho (up, down):  0.540E-03 0.000E+00

     total cpu time spent up to now is     28.40 secs

     total energy              =     -87.17112475 Ry
     Harris-Foulkes estimate   =     -87.17143487 Ry
     estimated scf accuracy    <       0.00236340 Ry

     iteration # 17     ecut=    20.00 Ry     beta=0.20
     Davidson diagonalization with overlap
     c_bands:  3 eigenvalues not converged
     c_bands:  3 eigenvalues not converged
     c_bands:  3 eigenvalues not converged
     c_bands:  3 eigenvalues not converged
     c_bands:  3 eigenvalues not converged
     c_bands:  1 eigenvalues not converged
     c_bands:  1 eigenvalues not converged
     c_bands:  3 eigenvalues not converged
     c_bands:  3 eigenvalues not converged
     c_bands:  1 eigenvalues not converged
     c_bands:  1 eigenvalues not converged
     c_bands:  1 eigenvalues not converged
     c_bands:  1 eigenvalues not converged
     c_bands:  1 eigenvalues not converged
     c_bands:  1 eigenvalues not converged
     c_bands:  1 eigenvalues not converged
     ethr =  1.13E-05,  avg # of iterations = 17.2

     negative rho (up, down):  0.747E-03 0.000E+00

     total cpu time spent up to now is     31.76 secs

     total energy              =     -87.17363412 Ry
     Harris-Foulkes estimate   =     -87.17362814 Ry
     estimated scf accuracy    <       0.00445847 Ry

     iteration # 18     ecut=    20.00 Ry     beta=0.20
     Davidson diagonalization with overlap
     c_bands:  2 eigenvalues not converged
     c_bands:  2 eigenvalues not converged
     c_bands:  2 eigenvalues not converged
     c_bands:  2 eigenvalues not converged
     c_bands:  2 eigenvalues not converged
     c_bands:  2 eigenvalues not converged
     c_bands:  2 eigenvalues not converged
     ethr =  1.13E-05,  avg # of iterations =  5.3

     negative rho (up, down):  0.409E-03 0.000E+00

     total cpu time spent up to now is     33.22 secs

     total energy              =     -87.17359969 Ry
     Harris-Foulkes estimate   =     -87.17367328 Ry
     estimated scf accuracy    <       0.00452485 Ry

     iteration # 19     ecut=    20.00 Ry     beta=0.20
     Davidson diagonalization with overlap
     c_bands:  2 eigenvalues not converged
     c_bands:  2 eigenvalues not converged
     c_bands:  2 eigenvalues not converged
     ethr =  1.13E-05,  avg # of iterations =  2.7

     negative rho (up, down):  0.443E-03 0.000E+00

     total cpu time spent up to now is     34.44 secs

     total energy              =     -87.17357256 Ry
     Harris-Foulkes estimate   =     -87.17361530 Ry
     estimated scf accuracy    <       0.00346669 Ry

     iteration # 20     ecut=    20.00 Ry     beta=0.20
     Davidson diagonalization with overlap
     ethr =  1.13E-05,  avg # of iterations =  1.9

     negative rho (up, down):  0.105E-03 0.000E+00

     total cpu time spent up to now is     35.93 secs

     total energy              =     -87.17334198 Ry
     Harris-Foulkes estimate   =     -87.17358587 Ry
     estimated scf accuracy    <       0.00367349 Ry

     iteration # 21     ecut=    20.00 Ry     beta=0.20
     Davidson diagonalization with overlap
     ethr =  1.13E-05,  avg # of iterations =  1.0

     negative rho (up, down):  0.892E-05 0.000E+00

     total cpu time spent up to now is     36.99 secs

     total energy              =     -87.17330906 Ry
     Harris-Foulkes estimate   =     -87.17339967 Ry
     estimated scf accuracy    <       0.00037054 Ry

     iteration # 22     ecut=    20.00 Ry     beta=0.20
     Davidson diagonalization with overlap
     c_bands:  1 eigenvalues not converged
     c_bands:  1 eigenvalues not converged
     c_bands:  1 eigenvalues not converged
     c_bands:  1 eigenvalues not converged
     c_bands:  1 eigenvalues not converged
     c_bands:  1 eigenvalues not converged
     c_bands:  1 eigenvalues not converged
     ethr =  1.76E-06,  avg # of iterations = 12.3

     negative rho (up, down):  0.730E-05 0.000E+00

     total cpu time spent up to now is     39.61 secs

     total energy              =     -87.17351250 Ry
     Harris-Foulkes estimate   =     -87.17360219 Ry
     estimated scf accuracy    <       0.00096236 Ry

     iteration # 23     ecut=    20.00 Ry     beta=0.20
     Davidson diagonalization with overlap
     c_bands:  1 eigenvalues not converged
     c_bands:  1 eigenvalues not converged
     c_bands:  1 eigenvalues not converged
     c_bands:  1 eigenvalues not converged
     ethr =  1.76E-06,  avg # of iterations =  4.6

     negative rho (up, down):  0.689E-05 0.000E+00

     total cpu time spent up to now is     40.88 secs

     total energy              =     -87.17347105 Ry
     Harris-Foulkes estimate   =     -87.17352645 Ry
     estimated scf accuracy    <       0.00054155 Ry

     iteration # 24     ecut=    20.00 Ry     beta=0.20
     Davidson diagonalization with overlap
     ethr =  1.76E-06,  avg # of iterations =  1.0

     negative rho (up, down):  0.132E-03 0.000E+00

     total cpu time spent up to now is     41.94 secs

     total energy              =     -87.17344013 Ry
     Harris-Foulkes estimate   =     -87.17348410 Ry
     estimated scf accuracy    <       0.00014845 Ry

     iteration # 25     ecut=    20.00 Ry     beta=0.20
     Davidson diagonalization with overlap
     ethr =  7.07E-07,  avg # of iterations =  6.4

     negative rho (up, down):  0.293E-04 0.000E+00

     total cpu time spent up to now is     43.86 secs

     total energy              =     -87.17348957 Ry
     Harris-Foulkes estimate   =     -87.17363087 Ry
     estimated scf accuracy    <       0.00059742 Ry

     iteration # 26     ecut=    20.00 Ry     beta=0.20
     Davidson diagonalization with overlap
     ethr =  7.07E-07,  avg # of iterations =  2.9

     negative rho (up, down):  0.458E-04 0.000E+00

     total cpu time spent up to now is     45.07 secs

     total energy              =     -87.17353476 Ry
     Harris-Foulkes estimate   =     -87.17352652 Ry
     estimated scf accuracy    <       0.00008061 Ry

     iteration # 27     ecut=    20.00 Ry     beta=0.20
     Davidson diagonalization with overlap
     ethr =  3.84E-07,  avg # of iterations =  2.3

     negative rho (up, down):  0.215E-05 0.000E+00

     total cpu time spent up to now is     46.22 secs

     total energy              =     -87.17352375 Ry
     Harris-Foulkes estimate   =     -87.17354261 Ry
     estimated scf accuracy    <       0.00008831 Ry

     iteration # 28     ecut=    20.00 Ry     beta=0.20
     Davidson diagonalization with overlap
     ethr =  3.84E-07,  avg # of iterations =  3.7

     negative rho (up, down):  0.349E-06 0.000E+00

     total cpu time spent up to now is     47.68 secs

     total energy              =     -87.17355021 Ry
     Harris-Foulkes estimate   =     -87.17354924 Ry
     estimated scf accuracy    <       0.00000563 Ry

     iteration # 29     ecut=    20.00 Ry     beta=0.20
     Davidson diagonalization with overlap
     ethr =  2.68E-08,  avg # of iterations =  8.6

     negative rho (up, down):  0.874E-05 0.000E+00

     total cpu time spent up to now is     50.08 secs

     total energy              =     -87.17355352 Ry
     Harris-Foulkes estimate   =     -87.17355821 Ry
     estimated scf accuracy    <       0.00003500 Ry

     iteration # 30     ecut=    20.00 Ry     beta=0.20
     Davidson diagonalization with overlap
     ethr =  2.68E-08,  avg # of iterations =  1.7

     negative rho (up, down):  0.139E-04 0.000E+00

     total cpu time spent up to now is     51.20 secs

     total energy              =     -87.17355224 Ry
     Harris-Foulkes estimate   =     -87.17355438 Ry
     estimated scf accuracy    <       0.00001439 Ry

     iteration # 31     ecut=    20.00 Ry     beta=0.20
     Davidson diagonalization with overlap
     ethr =  2.68E-08,  avg # of iterations =  2.0

     negative rho (up, down):  0.293E-05 0.000E+00

     total cpu time spent up to now is     52.32 secs

     total energy              =     -87.17355903 Ry
     Harris-Foulkes estimate   =     -87.17355261 Ry
     estimated scf accuracy    <       0.00000791 Ry

     iteration # 32     ecut=    20.00 Ry     beta=0.20
     Davidson diagonalization with overlap
     ethr =  2.68E-08,  avg # of iterations =  2.1

     negative rho (up, down):  0.343E-05 0.000E+00

     total cpu time spent up to now is     53.50 secs

     total energy              =     -87.17356203 Ry
     Harris-Foulkes estimate   =     -87.17356145 Ry
     estimated scf accuracy    <       0.00004600 Ry

     iteration # 33     ecut=    20.00 Ry     beta=0.20
     Davidson diagonalization with overlap
     ethr =  2.68E-08,  avg # of iterations =  1.0

     negative rho (up, down):  0.120E-04 0.000E+00

     total cpu time spent up to now is     54.56 secs

     total energy              =     -87.17354937 Ry
     Harris-Foulkes estimate   =     -87.17356211 Ry
     estimated scf accuracy    <       0.00004740 Ry

     iteration # 34     ecut=    20.00 Ry     beta=0.20
     Davidson diagonalization with overlap
     ethr =  2.68E-08,  avg # of iterations =  2.1

     negative rho (up, down):  0.102E-04 0.000E+00

     total cpu time spent up to now is     55.77 secs

     total energy              =     -87.17355123 Ry
     Harris-Foulkes estimate   =     -87.17355218 Ry
     estimated scf accuracy    <       0.00000658 Ry

     iteration # 35     ecut=    20.00 Ry     beta=0.20
     Davidson diagonalization with overlap
     ethr =  2.68E-08,  avg # of iterations =  1.0

     negative rho (up, down):  0.480E-05 0.000E+00

     total cpu time spent up to now is     56.83 secs

     total energy              =     -87.17355291 Ry
     Harris-Foulkes estimate   =     -87.17355142 Ry
     estimated scf accuracy    <       0.00000400 Ry

     iteration # 36     ecut=    20.00 Ry     beta=0.20
     Davidson diagonalization with overlap
     ethr =  1.91E-08,  avg # of iterations =  3.7

     total cpu time spent up to now is     58.13 secs

     End of self-consistent calculation

          k = 0.0000 0.0000 0.0000 (  2893 PWs)   bands (ev):

   -16.4646 -16.1006 -15.5022 -14.6611 -13.5777 -12.3124 -10.8107  -9.3025
    -7.4813  -5.6241  -3.8302  -2.5489  -2.2238  -1.7946

          k = 0.0000 0.2041 0.0000 (  2891 PWs)   bands (ev):

   -16.0877 -15.7243 -15.1270 -14.2877 -13.2067 -11.9437 -10.4422  -8.9482
    -7.1281  -5.2782  -3.4912  -2.1889  -1.8540  -1.4249

          k = 0.0000 0.4082 0.0000 (  2909 PWs)   bands (ev):

   -14.9620 -14.6009 -14.0077 -13.1738 -12.0995 -10.8450  -9.3501  -7.8935
    -6.0997  -4.3729  -3.3951  -2.9408  -2.5190  -2.1792

          k = 0.0000 0.6124 0.0000 (  2936 PWs)   bands (ev):

   -13.1038 -12.7471 -12.1611 -11.3385 -10.2815  -9.0581  -7.6996  -7.3326
    -6.9427  -6.3396  -5.9454  -5.4912  -4.4942  -4.1929

          k = 0.0000-0.8165 0.0000 (  2982 PWs)   bands (ev):

   -10.5503 -10.5407 -10.2263 -10.1694  -9.6538  -9.6078  -8.8816  -8.8326
    -7.9794  -7.4318  -6.4547  -6.3494  -5.0267  -4.8875

          k = 0.1768-0.1021 0.0000 (  2891 PWs)   bands (ev):

   -16.0877 -15.7243 -15.1270 -14.2877 -13.2067 -11.9437 -10.4422  -8.9482
    -7.1281  -5.2782  -3.4912  -2.1889  -1.8540  -1.4249

          k = 0.1768 0.1021 0.0000 (  2891 PWs)   bands (ev):

   -16.0877 -15.7243 -15.1270 -14.2877 -13.2067 -11.9437 -10.4422  -8.9482
    -7.1281  -5.2782  -3.4912  -2.1889  -1.8540  -1.4249

          k = 0.1768 0.3062 0.0000 (  2894 PWs)   bands (ev):

   -15.3362 -14.9744 -14.3798 -13.5441 -12.4674 -11.2096  -9.7112  -8.2430
    -6.4312  -4.6091  -2.8819  -1.6115  -1.1848  -0.9072

          k = 0.1768 0.5103 0.0000 (  2934 PWs)   bands (ev):

   -13.8445 -13.4860 -12.8969 -12.0692 -11.0035  -9.7609  -8.2859  -6.8655
    -5.4403  -5.0391  -4.5857  -4.1416  -3.4773  -3.1560

          k = 0.1768-0.9186 0.0000 (  2943 PWs)   bands (ev):

   -11.6345 -11.2825 -10.7046  -9.8969  -8.8998  -8.7254  -8.4113  -7.9901
    -7.5739  -6.8764  -5.9875  -5.8434  -4.7638  -4.6357

          k = 0.1768-0.7144 0.0000 (  2943 PWs)   bands (ev):

   -11.6345 -11.2825 -10.7046  -9.8969  -8.8998  -8.7254  -8.4113  -7.9901
    -7.5739  -6.8764  -5.9875  -5.8434  -4.7638  -4.6357

          k = 0.1768-0.5103 0.0000 (  2934 PWs)   bands (ev):

   -13.8445 -13.4860 -12.8969 -12.0692 -11.0035  -9.7609  -8.2859  -6.8655
    -5.4403  -5.0391  -4.5857  -4.1416  -3.4773  -3.1560

          k = 0.1768-0.3062 0.0000 (  2894 PWs)   bands (ev):

   -15.3362 -14.9744 -14.3798 -13.5441 -12.4674 -11.2096  -9.7112  -8.2430
    -6.4312  -4.6091  -2.8819  -1.6115  -1.1848  -0.9072

          k = 0.3536-0.2041 0.0000 (  2909 PWs)   bands (ev):

   -14.9620 -14.6009 -14.0077 -13.1738 -12.0995 -10.8450  -9.3501  -7.8935
    -6.0997  -4.3729  -3.3951  -2.9408  -2.5190  -2.1792

          k = 0.3536 0.0000 0.0000 (  2894 PWs)   bands (ev):

   -15.3362 -14.9744 -14.3798 -13.5441 -12.4674 -11.2096  -9.7112  -8.2430
    -6.4312  -4.6091  -2.8819  -1.6115  -1.1848  -0.9072

          k = 0.3536 0.2041 0.0000 (  2909 PWs)   bands (ev):

   -14.9620 -14.6009 -14.0077 -13.1738 -12.0995 -10.8450  -9.3501  -7.8935
    -6.0997  -4.3729  -3.3951  -2.9408  -2.5190  -2.1792

          k = 0.3536 0.4082 0.0000 (  2934 PWs)   bands (ev):

   -13.8445 -13.4860 -12.8969 -12.0692 -11.0035  -9.7609  -8.2859  -6.8655
    -5.4403  -5.0391  -4.5857  -4.1416  -3.4773  -3.1560

          k = 0.3536-1.0206 0.0000 (  2964 PWs)   bands (ev):

   -11.9997 -11.6464 -11.0657 -10.2517  -9.2086  -8.0132  -6.7381  -6.2982
    -6.2884  -6.0533  -5.8099  -5.3833  -5.1053  -4.8114

          k = 0.3536-0.8165 0.0000 (  2968 PWs)   bands (ev):

    -9.4692  -9.4586  -9.1544  -9.0873  -8.5916  -8.5290  -7.8223  -7.7854
    -6.9612  -6.6717  -6.3772  -6.3186  -5.8975  -5.6551

          k = 0.3536-0.6124 0.0000 (  2964 PWs)   bands (ev):

   -11.9997 -11.6464 -11.0657 -10.2517  -9.2086  -8.0132  -6.7381  -6.2982
    -6.2884  -6.0533  -5.8099  -5.3833  -5.1053  -4.8114

          k = 0.3536-0.4082 0.0000 (  2934 PWs)   bands (ev):

   -13.8445 -13.4860 -12.8969 -12.0692 -11.0035  -9.7609  -8.2859  -6.8655
    -5.4403  -5.0391  -4.5857  -4.1416  -3.4773  -3.1560

          k = 0.5303-0.3062 0.0000 (  2936 PWs)   bands (ev):

   -13.1038 -12.7471 -12.1611 -11.3385 -10.2815  -9.0581  -7.6996  -7.3326
    -6.9427  -6.3396  -5.9454  -5.4912  -4.4942  -4.1929

          k = 0.5303-0.1021 0.0000 (  2934 PWs)   bands (ev):

   -13.8445 -13.4860 -12.8969 -12.0692 -11.0035  -9.7609  -8.2859  -6.8655
    -5.4403  -5.0391  -4.5857  -4.1416  -3.4773  -3.1560

          k = 0.5303 0.1021 0.0000 (  2934 PWs)   bands (ev):

   -13.8445 -13.4860 -12.8969 -12.0692 -11.0035  -9.7609  -8.2859  -6.8655
    -5.4403  -5.0391  -4.5857  -4.1416  -3.4773  -3.1560

          k = 0.5303 0.3062 0.0000 (  2936 PWs)   bands (ev):

   -13.1038 -12.7471 -12.1611 -11.3385 -10.2815  -9.0581  -7.6996  -7.3326
    -6.9427  -6.3396  -5.9454  -5.4912  -4.4942  -4.1929

          k = 0.5303-1.1227 0.0000 (  2943 PWs)   bands (ev):

   -11.6345 -11.2825 -10.7046  -9.8969  -8.8998  -8.7254  -8.4113  -7.9901
    -7.5739  -6.8764  -5.9875  -5.8434  -4.7638  -4.6357

          k = 0.5303-0.9186 0.0000 (  2968 PWs)   bands (ev):

    -9.4692  -9.4586  -9.1544  -9.0873  -8.5916  -8.5290  -7.8223  -7.7854
    -6.9612  -6.6717  -6.3772  -6.3186  -5.8975  -5.6551

          k = 0.5303-0.7144 0.0000 (  2968 PWs)   bands (ev):

    -9.4692  -9.4586  -9.1544  -9.0873  -8.5916  -8.5290  -7.8223  -7.7854
    -6.9612  -6.6717  -6.3772  -6.3186  -5.8975  -5.6551

          k = 0.5303-0.5103 0.0000 (  2943 PWs)   bands (ev):

   -11.6345 -11.2825 -10.7046  -9.8969  -8.8998  -8.7254  -8.4113  -7.9901
    -7.5739  -6.8764  -5.9875  -5.8434  -4.7638  -4.6357

          k =-0.7071 0.4082 0.0000 (  2982 PWs)   bands (ev):

   -10.5503 -10.5407 -10.2263 -10.1694  -9.6538  -9.6078  -8.8816  -8.8326
    -7.9794  -7.4318  -6.4547  -6.3494  -5.0267  -4.8875

          k =-0.7071 0.6124 0.0000 (  2943 PWs)   bands (ev):

   -11.6345 -11.2825 -10.7046  -9.8969  -8.8998  -8.7254  -8.4113  -7.9901
    -7.5739  -6.8764  -5.9875  -5.8434  -4.7638  -4.6357

          k =-0.7071 0.8165 0.0000 (  2964 PWs)   bands (ev):

   -11.9997 -11.6464 -11.0657 -10.2517  -9.2086  -8.0132  -6.7381  -6.2982
    -6.2884  -6.0533  -5.8099  -5.3833  -5.1053  -4.8114

          k =-0.7071 1.0206 0.0000 (  2943 PWs)   bands (ev):

   -11.6345 -11.2825 -10.7046  -9.8969  -8.8998  -8.7254  -8.4113  -7.9901
    -7.5739  -6.8764  -5.9875  -5.8434  -4.7638  -4.6357

          k =-0.7071-0.4082 0.0000 (  2982 PWs)   bands (ev):

   -10.5503 -10.5407 -10.2263 -10.1694  -9.6538  -9.6078  -8.8816  -8.8326
    -7.9794  -7.4318  -6.4547  -6.3494  -5.0267  -4.8875

     the Fermi energy is    -5.4873 ev

!    total energy              =     -87.17356042 Ry
     Harris-Foulkes estimate   =     -87.17355388 Ry
     estimated scf accuracy    <       0.00000077 Ry

     The total energy is the sum of the following terms:

     one-electron contribution =  -14451.59617954 Ry
     hartree contribution      =    7225.87789204 Ry
     xc contribution           =     -69.97620852 Ry
     ewald contribution        =    7208.51839567 Ry
     smearing contrib. (-TS)   =       0.00253993 Ry

     ESM Charge and Potential
     ========================

    z (A)      rho (e)      Avg v_hartree        Avg v_local  Avg v_hart+v_loc
                                   (eV/A)             (eV/A)            (eV/A)
    ==========================================================================
  -20.160      0.00000      14125.0919073     -14126.9338454        -1.8419381
  -19.980      0.00000      17332.1032884     -17334.3525343        -2.2492458
  -19.800      0.00000      19606.8978720     -19609.4364196        -2.5385477
  -19.620      0.00000      20470.9264526     -20473.5754606        -2.6490079
  -19.440      0.00000      20471.3183494     -20473.9669875        -2.6486381
  -19.260      0.00000      20470.8458271     -20473.4949347        -2.6491075
  -19.080      0.00000      20471.3955999     -20474.0441570        -2.6485571
  -18.900      0.00000      20470.7724541     -20473.4216602        -2.6492060
  -18.720      0.00000      20471.4645457     -20474.1130303        -2.6484846
  -18.540      0.00000      20470.7083556     -20473.3576575        -2.6493019
  -18.360      0.00000      20471.5233110     -20474.1717333        -2.6484223
  -18.180      0.00000      20470.6552459     -20473.3046392        -2.6493933
  -18.000      0.00000      20471.5703569     -20474.2187291        -2.6483722
  -17.820      0.00000      20470.6144757     -20473.2639542        -2.6494785
  -17.640      0.00000      20471.6045307     -20474.2528669        -2.6483362
  -17.460      0.00000      20470.5869903     -20473.2365459        -2.6495557
  -17.280      0.00000      20471.6251019     -20474.2734182        -2.6483163
  -17.100      0.00000      20470.5733006     -20473.2229233        -2.6496227
  -16.920      0.00000      20471.6317821     -20474.2800966        -2.6483145
  -16.740      0.00000      20470.5734709     -20473.2231486        -2.6496778
  -16.560      0.00000      20471.6247303     -20474.2730634        -2.6483330
  -16.380      0.00000      20470.5871210     -20473.2368399        -2.6497190
  -16.200      0.00000      20471.6045425     -20474.2529165        -2.6483739
  -16.020      0.00000      20470.6134452     -20473.2631897        -2.6497444
  -15.840      0.00000      20471.5722256     -20474.2206647        -2.6484391
  -15.660      0.00000      20470.6512451     -20473.3009976        -2.6497525
  -15.480      0.00000      20471.5291575     -20474.1776880        -2.6485305
  -15.300      0.00000      20470.6989756     -20473.3487177        -2.6497421
  -15.120      0.00000      20471.4770341     -20474.1256841        -2.6486501
  -14.940      0.00000      20470.7548041     -20473.4045160        -2.6497119
  -14.760      0.00000      20471.4178068     -20474.0666060        -2.6487991
  -14.580      0.00000      20470.8166773     -20473.4663388        -2.6496616
  -14.400      0.00000      20471.3536099     -20474.0025894        -2.6489795
  -14.220      0.00000      20470.8823957     -20473.5319873        -2.6495916
  -14.040      0.00000      20471.2866833     -20473.9358765        -2.6491932
  -13.860      0.00000      20470.9496920     -20473.5991963        -2.6495043
  -13.680      0.00000      20471.2192920     -20473.8687355        -2.6494434
  -13.500      0.00000      20471.0163107     -20473.6657147        -2.6494039
  -13.320      0.00000      20471.1536451     -20473.8033806        -2.6497356
  -13.140      0.00000      20471.0800834     -20473.7293838        -2.6493004
  -12.960      0.00000      20471.0918137     -20473.7418962        -2.6500825
  -12.780      0.00001      20471.1389979     -20473.7882117        -2.6492138
  -12.600      0.00001      20471.0356556     -20473.6861653        -2.6505097
  -12.420      0.00001      20471.1912529     -20473.8404400        -2.6491870
  -12.240      0.00002      20470.9867291     -20473.6378035        -2.6510745
  -12.060      0.00003      20471.2352888     -20473.8845807        -2.6492919
  -11.880      0.00005      20470.9462082     -20473.5980963        -2.6518881
  -11.700      0.00007      20471.2697692     -20473.9195137        -2.6497446
  -11.520      0.00010      20470.9147329     -20473.5680187        -2.6532858
  -11.340      0.00015      20471.2934663     -20473.9444856        -2.6510192
  -11.160      0.00024      20470.8921782     -20473.5481441        -2.6559659
  -10.980      0.00036      20471.3049239     -20473.9591209        -2.6541970
  -10.800      0.00055      20470.8770361     -20473.5386558        -2.6616197
  -10.620      0.00085      20471.3015636     -20473.9634323        -2.6618687
  -10.440      0.00134      20470.8651007     -20473.5393519        -2.6742513
  -10.260      0.00209      20471.2775095     -20473.9578048        -2.6802953
  -10.080      0.00324      20470.8458921     -20473.5496666        -2.7037745
   -9.900      0.00506      20471.2180632     -20473.9429612        -2.7248980
   -9.720      0.00796      20470.7944733     -20473.5686909        -2.7742176
   -9.540      0.01251      20471.0866211     -20473.9199013        -2.8332801
   -9.360      0.01959      20470.6501268     -20473.5952936        -2.9451668
   -9.180      0.03071      20470.7909022     -20473.8898791        -3.0989769
   -9.000      0.04813      20470.2647576     -20473.6282041        -3.3634466
   -8.820      0.07470      20470.1030224     -20473.8541755        -3.7511531
   -8.640      0.11379      20469.2801429     -20473.6662802        -4.3861373
   -8.460      0.16953      20468.4814935     -20473.8137414        -5.3322479
   -8.280      0.24586      20466.8909827     -20473.7098352        -6.8188525
   -8.100      0.34237      20464.7792259     -20473.7692795        -8.9900536
   -7.920      0.44936      20461.5261838     -20473.7721668       -12.2459830
   -7.740      0.54896      20457.0005885     -20473.5734049       -16.5728164
   -7.560      0.62428      20450.8908097     -20474.4213347       -23.5305249
   -7.380      0.66863      20442.8442349     -20476.7509529       -33.9067181
   -7.200      0.68603      20433.0113769     -20475.5925955       -42.5812186
   -7.020      0.68652      20420.9120685     -20466.7127206       -45.8006520
   -6.840      0.68189      20407.1048015     -20450.0878118       -42.9830103
   -6.660      0.68011      20390.9106953     -20425.5277820       -34.6170867
   -6.480      0.68017      20373.1431773     -20397.3923224       -24.2491451
   -6.300      0.67607      20352.8897764     -20370.2001348       -17.3103584
   -6.120      0.66733      20331.1703010     -20344.6771241       -13.5068231
   -5.940      0.66188      20306.9204902     -20318.3560158       -11.4355256
   -5.760      0.66720      20281.3088212     -20292.6673751       -11.3585538
   -5.580      0.68136      20253.1138210     -20266.3771631       -13.2633421
   -5.400      0.69378      20223.5397379     -20240.5129326       -16.9731947
   -5.220      0.69470      20191.2873982     -20215.0123353       -23.7249371
   -5.040      0.68418      20157.6257690     -20191.7438347       -34.1180656
   -4.860      0.67112      20121.3203204     -20164.0919581       -42.7716377
   -4.680      0.66461      20083.6471780     -20129.5937637       -45.9465856
   -4.500      0.66832      20043.4223949     -20086.4183739       -42.9959790
   -4.320      0.67956      20001.7863940     -20036.2839630       -34.4975690
   -4.140      0.69007      19957.6220635     -19981.6487967       -24.0267332
   -3.960      0.69110      19911.9099025     -19928.9744706       -17.0645681
   -3.780      0.68210      19863.7259370     -19876.9636204       -13.2376834
   -3.600      0.67213      19813.9172039     -19825.1213661       -11.2041622
   -3.420      0.67088      19761.7948713     -19772.9733304       -11.1784591
   -3.240      0.67903      19707.9633613     -19721.1235963       -13.1602351
   -3.060      0.68786      19651.9210639     -19668.8475668       -16.9265029
   -2.880      0.68846      19593.9982706     -19617.7508608       -23.7525902
   -2.700      0.68094      19533.9683773     -19568.1339187       -34.1655414
   -2.520      0.67293      19471.9452585     -19514.7268522       -42.7815937
   -2.340      0.67094      19407.9885611     -19453.8911750       -45.9026139
   -2.160      0.67608      19341.9360094     -19384.8566439       -42.9206344
   -1.980      0.68508      19274.0687062     -19308.4926287       -34.4239225
   -1.800      0.69085      19203.9430296     -19227.9706671       -24.0276375
   -1.620      0.68642      19132.0805768     -19149.2519777       -17.1714009
   -1.440      0.67288      19057.8463580     -19071.2587683       -13.4124103
   -1.260      0.66054      18982.0283345     -18993.4518650       -11.4235304
   -1.080      0.65974      18903.8158321     -18915.2210566       -11.4052245
   -0.900      0.67093      18824.1387881     -18837.5060338       -13.3672457
   -0.720      0.68457      18741.9669549     -18759.0499814       -17.0830265
   -0.540      0.69064      18658.3224380     -18682.2019249       -23.8794869
   -0.360      0.68796      18572.0806397     -18606.3136564       -34.2330167
   -0.180      0.68273      18484.3887463     -18527.1513646       -42.7626183
    0.000      0.68041      18394.0995537     -18439.9003261       -45.8007724
    0.180      0.68260      18302.3872385     -18345.1605905       -42.7733520
    0.360      0.68775      18208.0854740     -18242.3396029       -34.2541289
    0.540      0.69039      18112.3193300     -18136.2296862       -23.9103563
    0.720      0.68432      18013.9787940     -18031.1017079       -17.1229139
    0.900      0.67071      17914.1371641     -17927.5525781       -13.4154140
    1.080      0.65956      17811.8371992     -17823.2982373       -11.4610381
    1.260      0.66040      17708.0311345     -17719.5175932       -11.4864587
    1.440      0.67273      17601.8789139     -17615.3609313       -13.4820173
    1.620      0.68625      17494.0901784     -17511.3374277       -17.2472493
    1.800      0.69064      17383.9879731     -17408.0972144       -24.1092413
    1.980      0.68483      17272.0877901     -17306.5984520       -34.5106619
    2.160      0.67579      17157.9951033     -17201.0068769       -43.0117736
    2.340      0.67064      17042.0208089     -17088.0181100       -45.9973012
    2.520      0.67267      16924.0210205     -16966.9000008       -42.8789803
    2.700      0.68073      16804.0179121     -16838.2827591       -34.2648470
    2.880      0.68832      16682.0928981     -16705.9461161       -23.8532180
    3.060      0.68777      16557.9911031     -16575.0191281       -17.0280250
    3.240      0.67898      16432.0777401     -16445.3401452       -13.2624051
    3.420      0.67084      16303.8872998     -16315.1684146       -11.2811148
    3.600      0.67207      16174.0512438     -16185.3584262       -11.3071824
    3.780      0.68200      16041.8421081     -16055.1829817       -13.3408736
    3.960      0.69096      15908.0636852     -15925.2313241       -17.1676389
    4.140      0.68991      15771.7638425     -15795.8931084       -24.1292660
    4.320      0.67942      15633.9608871     -15668.5599885       -34.5991014
    4.500      0.66824      15493.5921025     -15536.6881986       -43.0960962
    4.680      0.66465      15351.8433793     -15397.8884639       -46.0450846
    4.860      0.67127      15207.5190976     -15250.3877220       -42.8686244
    5.040      0.68441      15061.8428783     -15096.0568598       -34.2139815
    5.220      0.69494      14913.5138688     -14937.3343075       -23.8204387
    5.400      0.69398      14763.7751206     -14780.8440976       -17.0689771
    5.580      0.68147      14611.3654713     -14624.7254418       -13.3599705
    5.760      0.66722      14457.5603202     -14469.0166705       -11.4563503
    5.940      0.66182      14301.1959748     -14312.7305209       -11.5345461
    6.120      0.66725      14143.4378134     -14157.0447198       -13.6069064
    6.300      0.67604      13983.1893134     -14000.6006075       -17.4112941
    6.480      0.68025      13821.4277160     -13845.7785641       -24.3508481
    6.660      0.68034      13657.2339817     -13691.9537921       -34.7198104
    6.840      0.68227      13491.4057747     -13534.4932105       -43.0874358
    7.020      0.68695      13323.2557955     -13369.1636808       -45.9078853
    7.200      0.68633      13153.3253402     -13196.0178099       -42.6924697
    7.380      0.66857      12981.2033314     -13015.2261393       -34.0228079
    7.560      0.62373      12807.2159073     -12830.8671472       -23.6512398
    7.740      0.54788      12631.3754561     -12648.0719836       -16.6965275
    7.920      0.44784      12453.8699404     -12466.2394547       -12.3695143
    8.100      0.34058      12275.1813583     -12284.2903383        -9.1089800
    8.280      0.24399      12095.2716040     -12102.1995370        -6.9279330
    8.460      0.16773      11914.9303143     -11920.3563247        -5.4260104
    8.640      0.11216      11733.7200705     -11738.1793591        -4.4592887
    8.820      0.07332      11552.6183816     -11556.4173218        -3.7989402
    9.000      0.04701      11370.7838182     -11374.1656102        -3.3817921
    9.180      0.02983      11189.3880844     -11192.4726596        -3.0845751
    9.360      0.01891      11007.2625279     -11010.1579252        -2.8953974
    9.540      0.01199      10825.7753200     -10828.5214574        -2.7461373
    9.720      0.00757      10643.5091964     -10646.1573577        -2.6481613
    9.900      0.00477      10462.0037613     -10464.5625405        -2.5587792
   10.080      0.00302      10279.6683312     -10282.1650557        -2.4967244
   10.260      0.00193      10098.1631203     -10100.5947935        -2.4316732
   10.440      0.00122       9915.7984208      -9918.1819971        -2.3835763
   10.620      0.00077       9734.2885924      -9736.6173824        -2.3287900
   10.800      0.00049       9551.9230313      -9554.2089135        -2.2858822
   10.980      0.00032       9370.3941590      -9372.6297723        -2.2356133
   11.160      0.00020       9188.0517694      -9190.2461745        -2.1944051
   11.340      0.00013       9006.4854020      -9008.6317807        -2.1463787
   11.520      0.00008       8824.1882724      -8826.2937747        -2.1055023
   11.700      0.00006       8642.5648460      -8644.6236054        -2.0587593
   11.880      0.00004       8460.3336458      -8462.3513198        -2.0176740
   12.060      0.00002       8278.6340201      -8280.6058313        -1.9718112
   12.240      0.00002       8096.4877094      -8098.4180297        -1.9303203
   12.420      0.00001       7914.6942818      -7916.5794136        -1.8851318
   12.600      0.00001       7732.6495766      -7734.4927348        -1.8431582
   12.780      0.00000       7550.7471156      -7552.5456581        -1.7985426
   12.960      0.00000       7368.8178715      -7370.5739746        -1.7561032
   13.140      0.00000       7186.7942239      -7188.5062153        -1.7119914
   13.320      0.00000       7004.9908726      -7006.6599851        -1.6691125
   13.500      0.00000       6822.8375308      -6824.4629766        -1.6254458
   13.680      0.00000       6641.1665987      -6642.7487669        -1.5821682
   13.860      0.00000       6458.8791410      -6460.4180323        -1.5388912
   14.040      0.00000       6277.3428955      -6278.8381568        -1.4952613
   14.220      0.00000       6094.9212791      -6096.3735998        -1.4523207
   14.400      0.00000       5913.5175135      -5914.9259020        -1.4083885
   14.580      0.00000       5730.9662165      -5732.3319477        -1.3657312
   14.760      0.00000       5549.6881909      -5551.0097386        -1.3215477
   14.940      0.00000       5367.0161937      -5368.2953152        -1.2791215
   15.120      0.00000       5185.8527343      -5187.0874718        -1.2347375
   15.300      0.00000       5003.0733413      -5004.2658327        -1.1924914
   15.480      0.00000       4822.0090986      -4823.1570549        -1.1479563
   15.660      0.00000       4639.1396031      -4640.2454446        -1.1058415
   15.840      0.00000       4458.1554607      -4459.2166637        -1.0612030
   16.020      0.00000       4275.2166650      -4276.2358381        -1.0191730
   16.200      0.00000       4094.2902883      -4095.2647641        -0.9744758
   16.380      0.00000       3911.3058925      -3912.2383798        -0.9324873
   16.560      0.00000       3730.4123969      -3731.3001696        -0.8877727
   16.740      0.00000       3547.4082782      -3548.2540640        -0.8457858
   16.920      0.00000       3366.5209962      -3367.3220882        -0.8010920
   17.100      0.00000       3183.5244024      -3184.2834730        -0.7590705
   17.280      0.00000       3002.6157226      -3003.3301540        -0.7144314
   17.460      0.00000       2819.6544080      -2820.3267513        -0.6723432
   17.640      0.00000       2638.6966569      -2639.3244460        -0.6277891
   17.820      0.00000       2455.7979903      -2456.3835961        -0.5856058
   18.000      0.00000       2274.7643267      -2275.3054895        -0.5411628
   18.180      0.00000       2091.9544024      -2092.4532626        -0.4988602
   18.360      0.00000       1910.8196926      -1911.2742434        -0.4545508
   18.540      0.00000       1728.1224770      -1728.5345853        -0.4121083
   18.720      0.00000       1546.8641201      -1547.2320710        -0.3679510
   18.900      0.00000       1364.3006619      -1364.6260138        -0.3253519
   19.080      0.00000       1182.8993359      -1183.1806974        -0.2813615
   19.260      0.00000       1000.4870700      -1000.7256626        -0.2385926
   19.440      0.00000        818.9273722       -819.1221529        -0.1947807
   19.620      0.00000       1523.7598102      -1524.0272368        -0.2674267
   19.800      0.00000       3684.8320610      -3685.3615964        -0.5295354
   19.980      0.00000       6823.6203099      -6824.5410098        -0.9206999
   20.160      0.00000      10462.9812619     -10464.3598179        -1.3785561
 

     convergence has been achieved in  36 iterations

     Forces acting on atoms (Ry/au):

     atom   1 type  1   force =     0.00000000    0.00000007   -0.00008994
     atom   2 type  1   force =    -0.00000003   -0.00000021    0.00726615
     atom   3 type  1   force =     0.00000008    0.00000022   -0.00573034
     atom   4 type  1   force =    -0.00000004    0.00000002   -0.00022805
     atom   5 type  1   force =    -0.00000004   -0.00000023    0.00588748
     atom   6 type  1   force =     0.00000007    0.00000020   -0.00691481
     atom   7 type  1   force =    -0.00000004   -0.00000006   -0.00019050

     Total force =     0.012969     Total SCF correction =     0.001657

     Writing output data file Al111.save
 
     init_run     :      0.97s CPU      1.19s WALL (       1 calls)
     electrons    :     48.50s CPU     56.80s WALL (       1 calls)
     forces       :      0.52s CPU      0.53s WALL (       1 calls)

     Called by init_run:
     wfcinit      :      0.63s CPU      0.79s WALL (       1 calls)
     potinit      :      0.08s CPU      0.09s WALL (       1 calls)

     Called by electrons:
     c_bands      :     40.97s CPU     47.84s WALL (      36 calls)
     sum_band     :      5.71s CPU      6.75s WALL (      36 calls)
     v_of_rho     :      1.15s CPU      1.22s WALL (      37 calls)
     newd         :      0.19s CPU      0.20s WALL (      37 calls)
     mix_rho      :      0.11s CPU      0.12s WALL (      36 calls)

     Called by c_bands:
     init_us_2    :      0.64s CPU      0.66s WALL (    2516 calls)
     cegterg      :     40.04s CPU     46.33s WALL (    1224 calls)

     Called by *egterg:
     h_psi        :     28.30s CPU     33.95s WALL (    6378 calls)
     s_psi        :      1.10s CPU      1.11s WALL (    6378 calls)
     g_psi        :      0.71s CPU      0.72s WALL (    5120 calls)
     cdiaghg      :      4.01s CPU      4.04s WALL (    6344 calls)

     Called by h_psi:
     add_vuspsi   :      1.16s CPU      1.12s WALL (    6378 calls)

     General routines
     calbec       :      1.71s CPU      1.79s WALL (    7636 calls)
     fft          :      0.18s CPU      0.22s WALL (     493 calls)
     fftw         :     26.86s CPU     33.21s WALL (  120450 calls)
     davcio       :      0.03s CPU      0.73s WALL (    3740 calls)
 
     Parallel routines
     fft_scatter  :      5.96s CPU      9.96s WALL (  120943 calls)
 
     PWSCF        :    50.11s CPU        59.09s WALL

 
   This run was terminated on:  15:44:23  28Jan2011            

=------------------------------------------------------------------------------=
   JOB DONE.
=------------------------------------------------------------------------------=
